72
Step 1 | ATOMIC_POSITIONS (angstrom) | Cartesian Angstrom
Ni      1.2286390390     0.7093535490     9.0125970590
Ni      2.4572760100     2.8374169220     9.0125970590
Ni      3.6859498400     4.9655441370     9.0125970590
Ni      3.6859144660     0.7093535490     9.0125970590
Ni      4.9145514370     2.8374169220     9.0125970590
Ni      6.1432252670     4.9655441370     9.0125970590
Ni      6.1432636120     0.7093535490     9.0125970590
Ni      7.3719005830     2.8374169220     9.0125970590
Ni      8.6005744130     4.9655441370     9.0125970590
Ni      0.0000019230    -0.0000011100    11.0191845730
Ni      1.2286511800     2.1280835430    11.0191845730
Ni      2.4573004380     4.2561681970    11.0191845730
Ni      2.4573019230    -0.0000011100    11.0191845730
Ni      3.6859511800     2.1280835430    11.0191845730
Ni      4.9146004380     4.2561681970    11.0191845730
Ni      4.9146019230    -0.0000011100    11.0191845730
Ni      6.1432511800     2.1280835430    11.0191845730
Ni      7.3719004380     4.2561681970    11.0191845730
Ni      2.4572820074     1.4187159655    13.0265364501
Ni      3.6859485275     3.5468260387    13.0265374579
Ni      4.9145907684     5.6748964405    13.0265356186
Ni      4.9146207366     1.4187136165    13.0265385112
Ni      6.1432951188     3.5468282198    13.0265393532
Ni      7.3719350142     5.6748973070    13.0265382027
Ni      7.3719032081     1.4187155461    13.0265363491
Ni      8.6005752903     3.5468288138    13.0265380209
Ni      9.8292098690     5.6748947057    13.0265361569
Ni      1.2286404151     0.7093589960    15.0307668439
Ni      2.4572768462     2.8374236218    15.0307657850
Ni      3.6859448128     4.9655360414    15.0307661006
Ni      3.6859234279     0.7093539702    15.0307663829
Ni      4.9145589915     2.8374182957    15.0307642129
Ni      6.1432353528     4.9655357609    15.0307647889
Ni      6.1432584723     0.7093551608    15.0307674541
Ni      7.3719029241     2.8374243295    15.0307658445
Ni      8.6005717423     4.9655373333    15.0307670006
Ni     -0.0000016026     0.0000009877    17.0393162163
Ni      1.2286521458     2.1280878878    17.0393176813
Ni      2.4572972181     4.2561650122    17.0393143318
Ni      2.4573065619     0.0000013272    17.0393180013
Ni      3.6859496025     2.1280820484    17.0393195433
Ni      4.9146006572     4.2561627491    17.0393158045
Ni      4.9146039096    -0.0000016934    17.0393155577
Ni      6.1432528070     2.1280823293    17.0393167194
Ni      7.3719086395     4.2561657976    17.0393134713
Ni      2.4572850386     1.4187148252    19.0435295660
Ni      3.6859495508     3.5468227263    19.0435307185
Ni      4.9145931068     5.6748971052    19.0435290777
Ni      4.9146221407     1.4187109504    19.0435315217
Ni      6.1432974993     3.5468251042    19.0435326148
Ni      7.3719385117     5.6748984765    19.0435313457
Ni      7.3719017988     1.4187159604    19.0435291497
Ni      8.6005749163     3.5468285872    19.0435307055
Ni      9.8292071273     5.6748969461    19.0435289124
Ni      1.2286418367     0.7093594859    21.0551632454
Ni      2.4572781230     2.8374211934    21.0551622444
Ni      3.6859446896     4.9655364169    21.0551629434
Ni      3.6859267761     0.7093532839    21.0551622759
Ni      4.9145611215     2.8374140416    21.0551607220
Ni      6.1432394238     4.9655356604    21.0551622734
Ni      6.1432569981     0.7093557900    21.0551635552
Ni      7.3719030394     2.8374233138    21.0551625691
Ni      8.6005712891     4.9655392639    21.0551639900
Ni     -0.0000013001     0.0000008328    23.0532742333
Ni      1.2286528596     2.1280863051    23.0532719564
Ni      2.4572971623     4.2561650004    23.0532704166
Ni      2.4573088948     0.0000006982    23.0532740767
Ni      3.6859523909     2.1280799913    23.0532716386
Ni      4.9146025449     4.2561621951    23.0532726638
Ni      4.9146034614    -0.0000019806    23.0532694282
Ni      6.1432528333     2.1280806905    23.0532700898
Ni      7.3719080224     4.2561656695    23.0532685453
72
Step 2 | ATOMIC_POSITIONS (angstrom) | Cartesian Angstrom
Ni      1.2286390390     0.7093535490     9.0125970590
Ni      2.4572760100     2.8374169220     9.0125970590
Ni      3.6859498400     4.9655441370     9.0125970590
Ni      3.6859144660     0.7093535490     9.0125970590
Ni      4.9145514370     2.8374169220     9.0125970590
Ni      6.1432252670     4.9655441370     9.0125970590
Ni      6.1432636120     0.7093535490     9.0125970590
Ni      7.3719005830     2.8374169220     9.0125970590
Ni      8.6005744130     4.9655441370     9.0125970590
Ni      0.0000019230    -0.0000011100    11.0191845730
Ni      1.2286511800     2.1280835430    11.0191845730
Ni      2.4573004380     4.2561681970    11.0191845730
Ni      2.4573019230    -0.0000011100    11.0191845730
Ni      3.6859511800     2.1280835430    11.0191845730
Ni      4.9146004380     4.2561681970    11.0191845730
Ni      4.9146019230    -0.0000011100    11.0191845730
Ni      6.1432511800     2.1280835430    11.0191845730
Ni      7.3719004380     4.2561681970    11.0191845730
Ni      2.4572883549     1.4187177486    13.0276762398
Ni      3.6859528145     3.5468183774    13.0276781852
Ni      4.9145961881     5.6748937911    13.0276757859
Ni      4.9146149833     1.4187199758    13.0276790496
Ni      6.1432848089     3.5468236340    13.0276815036
Ni      7.3719268189     5.6748983152    13.0276790533
Ni      7.3719031436     1.4187199561    13.0276759327
Ni      8.6005715990     3.5468228356    13.0276783927
Ni      9.8292098547     5.6748952427    13.0276753160
Ni      1.2286417871     0.7093576033    15.0298140785
Ni      2.4572812923     2.8374287674    15.0298118175
Ni      3.6859468366     4.9655311319    15.0298131476
Ni      3.6859295967     0.7093534234    15.0298119035
Ni      4.9145685569     2.8374244732    15.0298089139
Ni      6.1432394049     4.9655301722    15.0298109536
Ni      6.1432539213     0.7093579695    15.0298135647
Ni      7.3718988483     2.8374320695    15.0298114732
Ni      8.6005648879     4.9655349044    15.0298132414
Ni      0.0000002576    -0.0000000250    17.0403331614
Ni      1.2286512251     2.1280865424    17.0403360717
Ni      2.4572998101     4.2561653136    17.0403302068
Ni      2.4573051229    -0.0000009847    17.0403360846
Ni      3.6859492616     2.1280817055    17.0403380513
Ni      4.9146018451     4.2561627774    17.0403327699
Ni      4.9146034687    -0.0000005853    17.0403304943
Ni      6.1432514823     2.1280842872    17.0403329043
Ni      7.3719069152     4.2561671146    17.0403282927
Ni      2.4572901119     1.4187160655    19.0429219479
Ni      3.6859539051     3.5468166838    19.0429241422
Ni      4.9145984088     5.6748936205    19.0429216274
Ni      4.9146165755     1.4187175669    19.0429239188
Ni      6.1432871263     3.5468221944    19.0429268515
Ni      7.3719291807     5.6748980120    19.0429244155
Ni      7.3719027579     1.4187198931    19.0429210190
Ni      8.6005711819     3.5468230190    19.0429245697
Ni      9.8292080585     5.6748961803    19.0429208380
Ni      1.2286431403     0.7093570414    21.0591839822
Ni      2.4572819315     2.8374271093    21.0591822266
Ni      3.6859476396     4.9655317226    21.0591839952
Ni      3.6859317042     0.7093521942    21.0591819853
Ni      4.9145706401     2.8374220459    21.0591797560
Ni      6.1432425509     4.9655302983    21.0591822760
Ni      6.1432537014     0.7093577990    21.0591840517
Ni      7.3718996384     2.8374318683    21.0591824392
Ni      8.6005648574     4.9655354991    21.0591845775
Ni     -0.0000002330    -0.0000002773    23.0485760400
Ni      1.2286524854     2.1280853969    23.0485742547
Ni      2.4572985776     4.2561644676    23.0485711261
Ni      2.4573070279    -0.0000007807    23.0485750258
Ni      3.6859517092     2.1280799255    23.0485735041
Ni      4.9146028366     4.2561625572    23.0485710991
Ni      4.9146027129    -0.0000014071    23.0485703001
Ni      6.1432515808     2.1280818210    23.0485703660
Ni      7.3719063446     4.2561658957    23.0485670152
72
Step 3 | ATOMIC_POSITIONS (angstrom) | Cartesian Angstrom
Ni      1.2286390390     0.7093535490     9.0125970590
Ni      2.4572760100     2.8374169220     9.0125970590
Ni      3.6859498400     4.9655441370     9.0125970590
Ni      3.6859144660     0.7093535490     9.0125970590
Ni      4.9145514370     2.8374169220     9.0125970590
Ni      6.1432252670     4.9655441370     9.0125970590
Ni      6.1432636120     0.7093535490     9.0125970590
Ni      7.3719005830     2.8374169220     9.0125970590
Ni      8.6005744130     4.9655441370     9.0125970590
Ni      0.0000019230    -0.0000011100    11.0191845730
Ni      1.2286511800     2.1280835430    11.0191845730
Ni      2.4573004380     4.2561681970    11.0191845730
Ni      2.4573019230    -0.0000011100    11.0191845730
Ni      3.6859511800     2.1280835430    11.0191845730
Ni      4.9146004380     4.2561681970    11.0191845730
Ni      4.9146019230    -0.0000011100    11.0191845730
Ni      6.1432511800     2.1280835430    11.0191845730
Ni      7.3719004380     4.2561681970    11.0191845730
Ni      2.4572974260     1.4187205615    13.0291518436
Ni      3.6859575896     3.5468078055    13.0291545810
Ni      4.9146034526     5.6748906410    13.0291519818
Ni      4.9146070497     1.4187277122    13.0291550565
Ni      6.1432697431     3.5468162467    13.0291589029
Ni      7.3719152798     5.6748989955    13.0291554402
Ni      7.3719033656     1.4187259561    13.0291513910
Ni      8.6005656576     3.5468142415    13.0291543650
Ni      9.8292093469     5.6748958472    13.0291508920
Ni      1.2286434885     0.7093561915    15.0288720459
Ni      2.4572875782     2.8374364106    15.0288687108
Ni      3.6859487078     4.9655249780    15.0288708196
Ni      3.6859388445     0.7093530288    15.0288681836
Ni      4.9145826317     2.8374332681    15.0288645640
Ni      6.1432457773     4.9655231827    15.0288676566
Ni      6.1432480045     0.7093613003    15.0288701488
Ni      7.3718945364     2.8374425762    15.0288678631
Ni      8.6005557519     4.9655313376    15.0288699088
Ni      0.0000021643    -0.0000011141    17.0416058524
Ni      1.2286499429     2.1280849543    17.0416102536
Ni      2.4573029113     4.2561657906    17.0416023314
Ni      2.4573034351    -0.0000036771    17.0416097919
Ni      3.6859485451     2.1280810416    17.0416127738
Ni      4.9146031147     4.2561627117    17.0416059138
Ni      4.9146033357     0.0000008815    17.0416016123
Ni      6.1432497996     2.1280863567    17.0416054871
Ni      7.3719058219     4.2561688605    17.0415988912
Ni      2.4572979744     1.4187190290    19.0428996519
Ni      3.6859584752     3.5468073554    19.0429025872
Ni      4.9146047369     5.6748898393    19.0428993858
Ni      4.9146086949     1.4187258846    19.0429013735
Ni      6.1432717243     3.5468159168    19.0429055961
Ni      7.3719170672     5.6748977085    19.0429020691
Ni      7.3719037383     1.4187254645    19.0428985311
Ni      8.6005658522     3.5468145336    19.0429030765
Ni      9.8292086584     5.6748954901    19.0428977884
Ni      1.2286442771     0.7093553180    21.0640468324
Ni      2.4572880331     2.8374353789    21.0640439816
Ni      3.6859497649     4.9655253868    21.0640468180
Ni      3.6859399692     0.7093518043    21.0640430917
Ni      4.9145843112     2.8374322929    21.0640403354
Ni      6.1432477078     4.9655236309    21.0640439985
Ni      6.1432492680     0.7093602548    21.0640460961
Ni      7.3718959869     2.8374419522    21.0640439232
Ni      8.6005568775     4.9655311975    21.0640472816
Ni      0.0000003238    -0.0000018712    23.0415274938
Ni      1.2286510376     2.1280840413    23.0415268389
Ni      2.4573004097     4.2561641726    23.0415213074
Ni      2.4573046580    -0.0000029324    23.0415261000
Ni      3.6859502927     2.1280797380    23.0415250994
Ni      4.9146027887     4.2561626962    23.0415191234
Ni      4.9146018675    -0.0000012319    23.0415202588
Ni      6.1432505347     2.1280832037    23.0415198250
Ni      7.3719049378     4.2561666241    23.0415146683
