72
Step 1 | ATOMIC_POSITIONS (angstrom) | Cartesian Angstrom
Ni      1.2286390390     0.7093535490     9.0125970590
Ni      2.4572760100     2.8374169220     9.0125970590
Ni      3.6859498400     4.9655441370     9.0125970590
Ni      3.6859144660     0.7093535490     9.0125970590
Ni      4.9145514370     2.8374169220     9.0125970590
Ni      6.1432252670     4.9655441370     9.0125970590
Ni      6.1432636120     0.7093535490     9.0125970590
Ni      7.3719005830     2.8374169220     9.0125970590
Ni      8.6005744130     4.9655441370     9.0125970590
Ni      0.0000019230    -0.0000011100    11.0191845730
Ni      1.2286511800     2.1280835430    11.0191845730
Ni      2.4573004380     4.2561681970    11.0191845730
Ni      2.4573019230    -0.0000011100    11.0191845730
Ni      3.6859511800     2.1280835430    11.0191845730
Ni      4.9146004380     4.2561681970    11.0191845730
Ni      4.9146019230    -0.0000011100    11.0191845730
Ni      6.1432511800     2.1280835430    11.0191845730
Ni      7.3719004380     4.2561681970    11.0191845730
Ni      2.4572820074     1.4187159655    13.0265364501
Ni      3.6859485275     3.5468260387    13.0265374579
Ni      4.9145907684     5.6748964405    13.0265356186
Ni      4.9146207366     1.4187136165    13.0265385112
Ni      6.1432951188     3.5468282198    13.0265393532
Ni      7.3719350142     5.6748973070    13.0265382027
Ni      7.3719032081     1.4187155461    13.0265363491
Ni      8.6005752903     3.5468288138    13.0265380209
Ni      9.8292098690     5.6748947057    13.0265361569
Ni      1.2286404151     0.7093589960    15.0307668439
Ni      2.4572768462     2.8374236218    15.0307657850
Ni      3.6859448128     4.9655360414    15.0307661006
Ni      3.6859234279     0.7093539702    15.0307663829
Ni      4.9145589915     2.8374182957    15.0307642129
Ni      6.1432353528     4.9655357609    15.0307647889
Ni      6.1432584723     0.7093551608    15.0307674541
Ni      7.3719029241     2.8374243295    15.0307658445
Ni      8.6005717423     4.9655373333    15.0307670006
Ni     -0.0000016026     0.0000009877    17.0393162163
Ni      1.2286521458     2.1280878878    17.0393176813
Ni      2.4572972181     4.2561650122    17.0393143318
Ni      2.4573065619     0.0000013272    17.0393180013
Ni      3.6859496025     2.1280820484    17.0393195433
Ni      4.9146006572     4.2561627491    17.0393158045
Ni      4.9146039096    -0.0000016934    17.0393155577
Ni      6.1432528070     2.1280823293    17.0393167194
Ni      7.3719086395     4.2561657976    17.0393134713
Ni      2.4572850386     1.4187148252    19.0435295660
Ni      3.6859495508     3.5468227263    19.0435307185
Ni      4.9145931068     5.6748971052    19.0435290777
Ni      4.9146221407     1.4187109504    19.0435315217
Ni      6.1432974993     3.5468251042    19.0435326148
Ni      7.3719385117     5.6748984765    19.0435313457
Ni      7.3719017988     1.4187159604    19.0435291497
Ni      8.6005749163     3.5468285872    19.0435307055
Ni      9.8292071273     5.6748969461    19.0435289124
Ni      1.2286418367     0.7093594859    21.0551632454
Ni      2.4572781230     2.8374211934    21.0551622444
Ni      3.6859446896     4.9655364169    21.0551629434
Ni      3.6859267761     0.7093532839    21.0551622759
Ni      4.9145611215     2.8374140416    21.0551607220
Ni      6.1432394238     4.9655356604    21.0551622734
Ni      6.1432569981     0.7093557900    21.0551635552
Ni      7.3719030394     2.8374233138    21.0551625691
Ni      8.6005712891     4.9655392639    21.0551639900
Ni     -0.0000013001     0.0000008328    23.0532742333
Ni      1.2286528596     2.1280863051    23.0532719564
Ni      2.4572971623     4.2561650004    23.0532704166
Ni      2.4573088948     0.0000006982    23.0532740767
Ni      3.6859523909     2.1280799913    23.0532716386
Ni      4.9146025449     4.2561621951    23.0532726638
Ni      4.9146034614    -0.0000019806    23.0532694282
Ni      6.1432528333     2.1280806905    23.0532700898
Ni      7.3719080224     4.2561656695    23.0532685453
