78
Step 1 | ATOMIC_POSITIONS angstrom | Cartesian Angstrom
NI      0.0000000000     0.0000000000     1.9999949100
NI      1.2286500000     2.1280842250     1.9999949100
NI      2.4573000000     4.2561684490     1.9999949100
NI      3.6859500000     6.3842526740     1.9999949100
NI      2.4573000000     0.0000000000     1.9999949100
NI      3.6859500000     2.1280842250     1.9999949100
NI      4.9146000000     4.2561684490     1.9999949100
NI      6.1432500000     6.3842526740     1.9999949100
NI      4.9146000000     0.0000000000     1.9999949100
NI      6.1432500000     2.1280842250     1.9999949100
NI      7.3719000000     4.2561684490     1.9999949100
NI      8.6005500000     6.3842526740     1.9999949100
NI      7.3719000000     0.0000000000     1.9999949100
NI      8.6005500000     2.1280842250     1.9999949100
NI      9.8292000000     4.2561684490     1.9999949100
NI     11.0578500000     6.3842526740     1.9999949100
NI      1.2286450850     0.7093585710     4.0066035650
NI      2.4572967240     2.8374456330     4.0066035650
NI      3.6859450850     4.9655270200     4.0066035650
NI      4.9145950850     7.0936112450     4.0066035650
NI      3.6859483620     0.7093585710     4.0066035650
NI      4.9146000000     2.8374456330     4.0066035650
NI      6.1432483620     4.9655270200     4.0066035650
NI      7.3718983620     7.0936112450     4.0066035650
NI      6.1432450850     0.7093585710     4.0066035650
NI      7.3718967240     2.8374456330     4.0066035650
NI      8.6005450850     4.9655270200     4.0066035650
NI      9.8291950850     7.0936112450     4.0066035650
NI      8.6005450850     0.7093585710     4.0066035650
NI      9.8291967240     2.8374456330     4.0066035650
NI     11.0578450850     4.9655270200     4.0066035650
NI     12.2864950850     7.0936112450     4.0066035650
NI      2.4573049150     1.4187256540     6.0131618830
NI      3.6859549150     3.5468098790     6.0131618830
NI      4.9146032760     5.6748912660     6.0131618830
NI      6.1432549150     7.8029783280     6.0131618830
NI      4.9146049150     1.4187256540     6.0131618830
NI      6.1432549150     3.5468098790     6.0131618830
NI      7.3719032760     5.6748912660     6.0131618830
NI      8.6005549150     7.8029783280     6.0131618830
NI      7.3719016380     1.4187256540     6.0131618830
NI      8.6005516380     3.5468098790     6.0131618830
NI      9.8292000000     5.6748912660     6.0131618830
NI     11.0578516380     7.8029783280     6.0131618830
NI      9.8292049150     1.4187256540     6.0131618830
NI     11.0578549150     3.5468098790     6.0131618830
NI     12.2865032760     5.6748912660     6.0131618830
NI     13.5151549150     7.8029783280     6.0131618830
NI      0.0000000000     0.0000000000     8.0197705380
NI      1.2286500000     2.1280842250     8.0197705380
NI      2.4573000000     4.2561684490     8.0197705380
NI      3.6859500000     6.3842526740     8.0197705380
NI      2.4573000000     0.0000000000     8.0197705380
NI      3.6859500000     2.1280842250     8.0197705380
NI      4.9146000000     4.2561684490     8.0197705380
NI      6.1432500000     6.3842526740     8.0197705380
NI      4.9146000000     0.0000000000     8.0197705380
NI      6.1432500000     2.1280842250     8.0197705380
NI      7.3719000000     4.2561684490     8.0197705380
NI      8.6005500000     6.3842526740     8.0197705380
NI      7.3719000000     0.0000000000     8.0197705380
NI      8.6005500000     2.1280842250     8.0197705380
NI      9.8292000000     4.2561684490     8.0197705380
NI     11.0578500000     6.3842526740     8.0197705380
C       6.1727000000     3.3923000000    10.9761000000
C       5.9413000000     1.9224000000    10.7463000000
C       7.2149800000     3.9202300000    10.0176100000
O       5.1382000000     4.2569000000    10.5838000000
O       5.0230000000     1.3336000000    11.6360000000
O       9.4045000000     3.8298000000    10.7865000000
H       4.5868000000     3.7757000000     9.9619000000
H       4.7708000000     1.9999000000    12.2821000000
H       6.8777000000     1.3291000000    10.8393000000
H       5.6447000000     1.6255000000     9.7161000000
H       6.9718417680     4.8622931040    10.5618235780
H       6.6846000000     3.7487000000    11.8973000000
H       7.9520323920     4.1875693560    11.1590137470
H      10.0897000000     3.9747000000    10.1186000000
