77
Step 1 | ATOMIC_POSITIONS (angstrom) | Cartesian Angstrom
NI      0.0000000000     0.0000000000     1.9999949100
NI      1.2286500000     2.1280842250     1.9999949100
NI      2.4573000000     4.2561684490     1.9999949100
NI      3.6859500000     6.3842526740     1.9999949100
NI      2.4573000000     0.0000000000     1.9999949100
NI      3.6859500000     2.1280842250     1.9999949100
NI      4.9146000000     4.2561684490     1.9999949100
NI      6.1432500000     6.3842526740     1.9999949100
NI      4.9146000000     0.0000000000     1.9999949100
NI      6.1432500000     2.1280842250     1.9999949100
NI      7.3719000000     4.2561684490     1.9999949100
NI      8.6005500000     6.3842526740     1.9999949100
NI      7.3719000000     0.0000000000     1.9999949100
NI      8.6005500000     2.1280842250     1.9999949100
NI      9.8292000000     4.2561684490     1.9999949100
NI     11.0578500000     6.3842526740     1.9999949100
NI      1.2288438586     0.7094141427     4.0079054103
NI      2.4571253473     2.8372959627     4.0073574198
NI      3.6860965901     4.9654166363     4.0077353268
NI      4.9146350753     7.0935618793     4.0080854379
NI      3.6857355813     0.7090970257     4.0074134145
NI      4.9147274105     2.8373122034     4.0074946833
NI      6.1434708839     4.9653390967     4.0077001479
NI      7.3719801003     7.0937858404     4.0076729354
NI      6.1431431821     0.7093545871     4.0077884130
NI      7.3718242088     2.8376221737     4.0081847812
NI      8.6003298536     4.9653985025     4.0079826438
NI      9.8291074193     7.0936806710     4.0076688332
NI      8.6007102298     0.7092778662     4.0075799737
NI      9.8293028676     2.8373127321     4.0075211746
NI     11.0577893913     4.9654598432     4.0078064414
NI     12.2864885300     7.0936487132     4.0081658764
NI      2.4573454297     1.4188476268     6.0126965740
NI      3.6857316748     3.5470135447     6.0122254512
NI      4.9146609704     5.6742464168     6.0124640239
NI      6.1435158564     7.8027888522     6.0123550987
NI      4.9147220466     1.4187341368     6.0118016135
NI      6.1430453951     3.5470621468     6.0118380580
NI      7.3716755820     5.6745897864     6.0112001696
NI      8.6004041827     7.8029268890     6.0130315320
NI      7.3717687585     1.4191081081     6.0120964585
NI      8.6009258594     3.5465394649     6.0098122245
NI      9.8290092721     5.6747963689     6.0117731456
NI     11.0577633022     7.8032571297     6.0119437422
NI      9.8289578927     1.4190556047     6.0122822067
NI     11.0579013275     3.5468888779     6.0126735567
NI     12.2865697169     5.6747298034     6.0120033856
NI     13.5151464394     7.8031980082     6.0123242448
NI     -0.0001235772     0.0000012548     8.0237142117
NI      1.2287199682     2.1281303022     8.0237078306
NI      2.4559744080     4.2563837127     8.0223448432
NI      3.6859677899     6.3848089300     8.0232286616
NI      2.4572560017    -0.0002332183     8.0237174539
NI      3.6825374095     2.1265663830     8.0194158914
NI      4.9145821633     4.2563155098     8.0227358645
NI      6.1417321686     6.3884039901     8.0198701295
NI      4.9142147592    -0.0015919363     8.0226370435
NI      6.1416904188     2.1274678784     8.0249389824
NI      7.3799885518     4.2530580171     8.0328351725
NI      8.6020594691     6.3869640531     8.0211452783
NI      7.3727562637    -0.0009037716     8.0226816366
NI      8.6034832493     2.1257110533     8.0213930397
NI      9.8313053113     4.2559098685     8.0226274994
NI     11.0576053055     6.3840007172     8.0234508852
C       6.0242721484     3.4628554271    10.2013261047
C       5.9139379226     1.9012572721    10.3661479382
C       7.2175080092     4.2938188868     9.9504814380
O       4.6480059163     3.7120498161    10.5013360005
O       5.1465141781     1.3405406509    11.5832568312
O       8.1373357627     3.8570964260    11.1639839310
H       4.4406527046     2.8398318387    11.0222946222
H       8.3146534210     4.6973516489    11.5830371169
H       4.3057902382     1.9509289643    11.7615722642
H       6.6600116809     1.6565193774    10.5259176245
H       4.6305452199     2.0720904160    10.1303613609
H       8.5549902521     3.7722650473    10.1287296178
H       6.9100445123     5.2358712310    10.2498225636
77
Step 2 | ATOMIC_POSITIONS (angstrom) | Cartesian Angstrom
NI      0.0000000000     0.0000000000     1.9999949100
NI      1.2286500000     2.1280842250     1.9999949100
NI      2.4573000000     4.2561684490     1.9999949100
NI      3.6859500000     6.3842526740     1.9999949100
NI      2.4573000000     0.0000000000     1.9999949100
NI      3.6859500000     2.1280842250     1.9999949100
NI      4.9146000000     4.2561684490     1.9999949100
NI      6.1432500000     6.3842526740     1.9999949100
NI      4.9146000000     0.0000000000     1.9999949100
NI      6.1432500000     2.1280842250     1.9999949100
NI      7.3719000000     4.2561684490     1.9999949100
NI      8.6005500000     6.3842526740     1.9999949100
NI      7.3719000000     0.0000000000     1.9999949100
NI      8.6005500000     2.1280842250     1.9999949100
NI      9.8292000000     4.2561684490     1.9999949100
NI     11.0578500000     6.3842526740     1.9999949100
NI      1.2292598086     0.7094058408     4.0100625762
NI      2.4569012244     2.8369931422     4.0087751680
NI      3.6864434606     4.9652896123     4.0096587497
NI      4.9148189419     7.0934340754     4.0108036477
NI      3.6852883243     0.7086590917     4.0088929676
NI      4.9149601113     2.8370035348     4.0090487889
NI      6.1438123748     4.9650827334     4.0095489941
NI      7.3721190504     7.0942180701     4.0093892238
NI      6.1430465950     0.7093230757     4.0097497228
NI      7.3716383274     2.8379214536     4.0110231280
NI      8.5999129174     4.9652159557     4.0106520570
NI      9.8289266319     7.0938588621     4.0094731478
NI      8.6009401412     0.7091531363     4.0094360823
NI      9.8296184186     2.8369537187     4.0089815191
NI     11.0577416339     4.9653401614     4.0100386655
NI     12.2865076061     7.0937703476     4.0110351223
NI      2.4572185466     1.4189709753     6.0119518741
NI      3.6853813178     3.5472660609     6.0108731143
NI      4.9147442004     5.6729135271     6.0115804099
NI      6.1440727559     7.8026091347     6.0113795721
NI      4.9148611801     1.4189240615     6.0089737721
NI      6.1427040096     3.5476085583     6.0100064325
NI      7.3712420099     5.6737290265     6.0080529562
NI      8.6002063123     7.8029725696     6.0133539892
NI      7.3712181782     1.4200278951     6.0109465976
NI      8.6014185822     3.5460010927     6.0041147302
NI      9.8286530161     5.6745793396     6.0095584429
NI     11.0574947024     7.8038404352     6.0102853121
NI      9.8286308361     1.4196255258     6.0109610361
NI     11.0580365209     3.5470319884     6.0121084825
NI     12.2866716912     5.6743785679     6.0102103652
NI     13.5150939350     7.8036065418     6.0113235529
NI     -0.0003685407     0.0000505876     8.0314360146
NI      1.2286656745     2.1281407493     8.0310362767
NI      2.4534080208     4.2570385296     8.0270104469
NI      3.6859396774     6.3859597991     8.0299234382
NI      2.4567763271    -0.0009425551     8.0309692018
NI      3.6778015725     2.1231521470     8.0260188050
NI      4.9140297791     4.2574719455     8.0279216229
NI      6.1391526811     6.3961452699     8.0197260752
NI      4.9135215784    -0.0047925633     8.0287969488
NI      6.1369871419     2.1246421777     8.0434273947
NI      7.3958321509     4.2483459378     8.0587318252
NI      8.6048454457     6.3917789744     8.0235545963
NI      7.3747997137    -0.0030243254     8.0277234650
NI      8.6096019075     2.1214603623     8.0244831913
NI      9.8347211908     4.2552279790     8.0291425691
NI     11.0572284981     6.3835692194     8.0303553892
C       5.9627503282     3.3574055030    10.1696969998
C       5.8503018077     2.0127618249    10.3176228834
C       7.0235787875     4.3172300819     9.9356353592
O       4.6281081364     3.8762876422    10.5258047512
O       5.2071209740     1.2790325649    11.6720616549
O       8.1855029032     3.8127102610    11.2347079517
H       4.4184764374     2.9183407016    11.0269066033
H       8.3374707313     4.7215147386    11.5972605680
H       4.2501090648     1.9472824873    11.8077877329
H       7.0423389010     1.4801695803    10.5700186341
H       4.4270584286     2.0438786651     9.9491202768
H       8.6398424290     3.7528690917    10.1006288948
H       6.9194198915     5.2803289530    10.2451917208
