77
Step 1 | ATOMIC_POSITIONS (angstrom) | Cartesian Angstrom
NI      0.0000000000     0.0000000000     1.9999949100
NI      1.2286500000     2.1280842250     1.9999949100
NI      2.4573000000     4.2561684490     1.9999949100
NI      3.6859500000     6.3842526740     1.9999949100
NI      2.4573000000     0.0000000000     1.9999949100
NI      3.6859500000     2.1280842250     1.9999949100
NI      4.9146000000     4.2561684490     1.9999949100
NI      6.1432500000     6.3842526740     1.9999949100
NI      4.9146000000     0.0000000000     1.9999949100
NI      6.1432500000     2.1280842250     1.9999949100
NI      7.3719000000     4.2561684490     1.9999949100
NI      8.6005500000     6.3842526740     1.9999949100
NI      7.3719000000     0.0000000000     1.9999949100
NI      8.6005500000     2.1280842250     1.9999949100
NI      9.8292000000     4.2561684490     1.9999949100
NI     11.0578500000     6.3842526740     1.9999949100
NI      1.2288204598     0.7094359486     4.0079309289
NI      2.4571791538     2.8372794126     4.0074077896
NI      3.6860838007     4.9654407871     4.0076768567
NI      4.9146624362     7.0935428566     4.0079322166
NI      3.6858162992     0.7091662362     4.0073489877
NI      4.9145789866     2.8372945629     4.0072609064
NI      6.1435161941     4.9654157433     4.0077716607
NI      7.3718908393     7.0937522463     4.0074587370
NI      6.1430752983     0.7093726858     4.0076846539
NI      7.3717856720     2.8376308871     4.0082686005
NI      8.6003379891     4.9654144470     4.0078798817
NI      9.8291084405     7.0937116649     4.0076997253
NI      8.6007300281     0.7093066717     4.0075943575
NI      9.8293120488     2.8373351320     4.0074758978
NI     11.0577665944     4.9654719911     4.0078375225
NI     12.2864964818     7.0936272012     4.0081108066
NI      2.4574426927     1.4189952416     6.0127120316
NI      3.6856774620     3.5470090145     6.0121390438
NI      4.9146773348     5.6741795233     6.0125975487
NI      6.1435296618     7.8026956339     6.0124168045
NI      4.9147828318     1.4188016884     6.0123115458
NI      6.1429108514     3.5471942041     6.0110202565
NI      7.3715209993     5.6747566107     6.0112093691
NI      8.6004456958     7.8027994769     6.0128105362
NI      7.3717246545     1.4191329451     6.0122985616
NI      8.6007084276     3.5466327799     6.0104015488
NI      9.8289897333     5.6747597032     6.0118241536
NI     11.0577897906     7.8031493141     6.0119998472
NI      9.8289888039     1.4190314603     6.0122892967
NI     11.0579437144     3.5468949607     6.0124933224
NI     12.2866052198     5.6747674919     6.0119517652
NI     13.5151812017     7.8031086826     6.0121170351
NI     -0.0001387820     0.0000235407     8.0238256055
NI      1.2283695183     2.1283441293     8.0243125531
NI      2.4556880866     4.2564878897     8.0225244513
NI      3.6857910899     6.3848637221     8.0231520933
NI      2.4572722313    -0.0001400071     8.0238429209
NI      3.6838301379     2.1263761427     8.0212656214
NI      4.9149033905     4.2552902254     8.0259671278
NI      6.1419306776     6.3884048641     8.0201739872
NI      4.9143970344    -0.0006214474     8.0233994668
NI      6.1416181111     2.1292544508     8.0277794917
NI      7.3799581676     4.2532731500     8.0357009241
NI      8.6018796391     6.3864124754     8.0218469195
NI      7.3722372254    -0.0004994256     8.0231732477
NI      8.6031632822     2.1260634435     8.0222811665
NI      9.8311199494     4.2557611476     8.0232538075
NI     11.0576938320     6.3839725097     8.0238384505
C       6.0404963029     3.4656280413    10.2184043664
C       6.0377152969     1.9731560180    10.7021395125
C       7.2755571518     4.2734758790     9.9475135811
O       4.6374044130     3.6686328329    10.4643956884
O       5.5535420735     1.6232987821    12.1006824766
O       8.1523058205     3.8636099792    11.1289921903
H       3.9919204750     3.6444393103    11.1729353901
H       8.3064698377     4.7002543844    11.5874351837
H       4.7325260878     2.2265794077    12.3101210857
H       6.8260884718     1.7649142979    10.7320647266
H       4.7339289255     2.0527938082    10.6823462956
H       9.0058188530     3.4351392041    11.0007097316
H       6.9124223485     5.2363639414    10.2544264904
77
Step 2 | ATOMIC_POSITIONS (angstrom) | Cartesian Angstrom
NI      0.0000000000     0.0000000000     1.9999949100
NI      1.2286500000     2.1280842250     1.9999949100
NI      2.4573000000     4.2561684490     1.9999949100
NI      3.6859500000     6.3842526740     1.9999949100
NI      2.4573000000     0.0000000000     1.9999949100
NI      3.6859500000     2.1280842250     1.9999949100
NI      4.9146000000     4.2561684490     1.9999949100
NI      6.1432500000     6.3842526740     1.9999949100
NI      4.9146000000     0.0000000000     1.9999949100
NI      6.1432500000     2.1280842250     1.9999949100
NI      7.3719000000     4.2561684490     1.9999949100
NI      8.6005500000     6.3842526740     1.9999949100
NI      7.3719000000     0.0000000000     1.9999949100
NI      8.6005500000     2.1280842250     1.9999949100
NI      9.8292000000     4.2561684490     1.9999949100
NI     11.0578500000     6.3842526740     1.9999949100
NI      1.2292423611     0.7095911139     4.0106338743
NI      2.4569311331     2.8369688703     4.0090720677
NI      3.6864101356     4.9652694210     4.0098124749
NI      4.9148582526     7.0933542803     4.0106979175
NI      3.6855006602     0.7087591810     4.0088044765
NI      4.9145385730     2.8369653720     4.0084321959
NI      6.1440126718     4.9651693214     4.0100569982
NI      7.3719212209     7.0941015683     4.0091111880
NI      6.1428057387     0.7094119461     4.0097283980
NI      7.3715615940     2.8379932456     4.0115442356
NI      8.5999087365     4.9652101058     4.0105057630
NI      9.8289199502     7.0939173434     4.0098770238
NI      8.6010293855     0.7092443675     4.0096528858
NI      9.8296295355     2.8370488644     4.0090567830
NI     11.0576415608     4.9653360663     4.0103146284
NI     12.2865045824     7.0937076883     4.0111575974
NI      2.4576907454     1.4194310144     6.0120699354
NI      3.6852824068     3.5473575332     6.0105898964
NI      4.9148369363     5.6725815051     6.0118820252
NI      6.1440788549     7.8022660980     6.0112090311
NI      4.9152185802     1.4190789944     6.0108534485
NI      6.1423054385     3.5480600292     6.0077046161
NI      7.3706894278     5.6740705253     6.0079269322
NI      8.6002864471     7.8026517265     6.0125622246
NI      7.3710483925     1.4201255158     6.0112729689
NI      8.6008700214     3.5462128869     6.0052106745
NI      9.8285173765     5.6744857609     6.0094620954
NI     11.0576067515     7.8035582048     6.0101219572
NI      9.8285911850     1.4196759498     6.0108610358
NI     11.0580726096     3.5470286657     6.0115501662
NI     12.2868151559     5.6745205995     6.0098316536
NI     13.5152420615     7.8033891060     6.0104849549
NI     -0.0004139095     0.0001633687     8.0325166294
NI      1.2277695205     2.1288239233     8.0338304062
NI      2.4522313211     4.2572058737     8.0280771118
NI      3.6853901627     6.3862615137     8.0302915820
NI      2.4570084404    -0.0005217489     8.0323286169
NI      3.6790155037     2.1224907848     8.0254165291
NI      4.9151035057     4.2540490323     8.0379209104
NI      6.1394665702     6.3968820573     8.0207365019
NI      4.9139691346    -0.0021381636     8.0316659462
NI      6.1378241968     2.1316007870     8.0492228511
NI      7.3974176735     4.2479872016     8.0672415866
NI      8.6046059344     6.3906924566     8.0258097438
NI      7.3732326122    -0.0018327447     8.0300337095
NI      8.6091347793     2.1216543471     8.0269105572
NI      9.8351484965     4.2549925178     8.0302084410
NI     11.0574014355     6.3833714378     8.0323513442
C       6.0085744012     3.3437491646    10.2179724203
C       5.9571326786     2.0969219854    10.6841318146
C       7.1322479886     4.2921807733     9.9246807989
O       4.5858851361     3.8118005973    10.4011340042
O       5.6306446797     1.5973302876    12.1980953219
O       8.2066934761     3.8482736834    11.1944643257
H       4.0010951294     3.6683626799    11.2082020486
H       8.3161943753     4.7223070711    11.6093899435
H       4.6877315578     2.2531943655    12.3392089319
H       7.2125114883     1.5931205659    10.7125091876
H       4.4972041919     2.0110782516    10.5587549853
H       9.0208106525     3.4232005608    10.9701667301
H       6.9362561796     5.2685586555    10.2504887576
77
Step 3 | ATOMIC_POSITIONS (angstrom) | Cartesian Angstrom
NI      0.0000000000     0.0000000000     1.9999949100
NI      1.2286500000     2.1280842250     1.9999949100
NI      2.4573000000     4.2561684490     1.9999949100
NI      3.6859500000     6.3842526740     1.9999949100
NI      2.4573000000     0.0000000000     1.9999949100
NI      3.6859500000     2.1280842250     1.9999949100
NI      4.9146000000     4.2561684490     1.9999949100
NI      6.1432500000     6.3842526740     1.9999949100
NI      4.9146000000     0.0000000000     1.9999949100
NI      6.1432500000     2.1280842250     1.9999949100
NI      7.3719000000     4.2561684490     1.9999949100
NI      8.6005500000     6.3842526740     1.9999949100
NI      7.3719000000     0.0000000000     1.9999949100
NI      8.6005500000     2.1280842250     1.9999949100
NI      9.8292000000     4.2561684490     1.9999949100
NI     11.0578500000     6.3842526740     1.9999949100
NI      1.2294287289     0.7096575509     4.0116757868
NI      2.4568803324     2.8368899070     4.0097962900
NI      3.6865467878     4.9651975186     4.0104406154
NI      4.9150633995     7.0931465596     4.0119457119
NI      3.6853526331     0.7086341843     4.0094051479
NI      4.9143702247     2.8367683525     4.0085595984
NI      6.1441268495     4.9651295532     4.0106721440
NI      7.3719307581     7.0943608176     4.0094393414
NI      6.1427761915     0.7094425080     4.0102814591
NI      7.3714381303     2.8380313678     4.0126679028
NI      8.5997509898     4.9651345828     4.0115501859
NI      9.8288299072     7.0940444423     4.0106393607
NI      8.6010904529     0.7093397882     4.0105393711
NI      9.8300757025     2.8368294760     4.0090324648
NI     11.0576447019     4.9652118860     4.0111524510
NI     12.2865097606     7.0937383497     4.0122483271
NI      2.4576571752     1.4194379960     6.0126575201
NI      3.6854852212     3.5471414227     6.0111298151
NI      4.9149470103     5.6714738990     6.0129636824
NI      6.1442975436     7.8024806367     6.0115710655
NI      4.9158267434     1.4196185282     6.0120071149
NI      6.1425191528     3.5488478209     6.0094650475
NI      7.3703827306     5.6729052917     6.0085104837
NI      8.6002137693     7.8028706118     6.0134692558
NI      7.3700338985     1.4210050522     6.0130643614
NI      8.6004558508     3.5460367916     6.0046689036
NI      9.8282771833     5.6743509390     6.0096718002
NI     11.0574299941     7.8039398032     6.0108383056
NI      9.8285351878     1.4198088168     6.0114078687
NI     11.0580564430     3.5469623258     6.0124897394
NI     12.2868991235     5.6745169494     6.0102349638
NI     13.5153668999     7.8035869336     6.0112240726
NI     -0.0003067673     0.0004031740     8.0367098969
NI      1.2273700614     2.1287970890     8.0380917995
NI      2.4505786588     4.2577146957     8.0303703502
NI      3.6849898899     6.3872662224     8.0335137932
NI      2.4566056591    -0.0007268140     8.0363747615
NI      3.6762824971     2.1199412464     8.0306684518
NI      4.9126999229     4.2557819376     8.0422221886
NI      6.1392475663     6.3996773229     8.0208265888
NI      4.9137469163    -0.0033682545     8.0359048774
NI      6.1361958116     2.1322707508     8.0639411557
NI      7.4055253914     4.2477610415     8.0802487194
NI      8.6057160604     6.3922286267     8.0274031284
NI      7.3738463389    -0.0029154714     8.0332056523
NI      8.6125272760     2.1193841644     8.0288874203
NI      9.8371261476     4.2547884220     8.0329425996
NI     11.0572486829     6.3831908773     8.0362957830
C       5.9790826397     3.3997309178    10.2049773862
C       5.9538546400     2.0027382653    10.7271878922
C       7.0891382463     4.2534701558     9.9132178677
O       4.5829701972     3.8638383643    10.3881742520
O       5.5805071875     1.6637467563    12.1995021235
O       8.1836520080     3.8637820565    11.2179337562
H       4.0276074091     3.6724342449    11.2005257900
H       8.3293694352     4.7222074154    11.6147009909
H       4.7506437103     2.2031023280    12.3395067409
H       7.1877298915     1.5893566254    10.6999142302
H       4.5380103648     1.9816539442    10.5277961841
H       9.0534949844     3.4136466352    10.9529618285
H       6.9320481802     5.2997473604    10.2617208691
77
Step 4 | ATOMIC_POSITIONS (angstrom) | Cartesian Angstrom
NI      0.0000000000     0.0000000000     1.9999949100
NI      1.2286500000     2.1280842250     1.9999949100
NI      2.4573000000     4.2561684490     1.9999949100
NI      3.6859500000     6.3842526740     1.9999949100
NI      2.4573000000     0.0000000000     1.9999949100
NI      3.6859500000     2.1280842250     1.9999949100
NI      4.9146000000     4.2561684490     1.9999949100
NI      6.1432500000     6.3842526740     1.9999949100
NI      4.9146000000     0.0000000000     1.9999949100
NI      6.1432500000     2.1280842250     1.9999949100
NI      7.3719000000     4.2561684490     1.9999949100
NI      8.6005500000     6.3842526740     1.9999949100
NI      7.3719000000     0.0000000000     1.9999949100
NI      8.6005500000     2.1280842250     1.9999949100
NI      9.8292000000     4.2561684490     1.9999949100
NI     11.0578500000     6.3842526740     1.9999949100
NI      1.2297391363     0.7096667032     4.0132605792
NI      2.4568483596     2.8367478663     4.0109143056
NI      3.6868406359     4.9650594515     4.0113929593
NI      4.9154013764     7.0927943152     4.0138951666
NI      3.6851686194     0.7084486499     4.0104468537
NI      4.9141679238     2.8364626559     4.0091218297
NI      6.1442799465     4.9650772877     4.0116577879
NI      7.3719438949     7.0947292715     4.0100606979
NI      6.1426864049     0.7094993674     4.0112694620
NI      7.3711247913     2.8380736255     4.0146884950
NI      8.5994943466     4.9651014468     4.0127924797
NI      9.8286404777     7.0942356493     4.0119474296
NI      8.6012016150     0.7094337885     4.0120185433
NI      9.8307601969     2.8365192788     4.0089930440
NI     11.0576196548     4.9650396081     4.0125329280
NI     12.2865441759     7.0938262842     4.0140637091
NI      2.4576411190     1.4194529951     6.0146143368
NI      3.6857840848     3.5467872374     6.0130669266
NI      4.9148770749     5.6697397505     6.0153342123
NI      6.1446062263     7.8027496645     6.0128762806
NI      4.9168822982     1.4206941684     6.0151194336
NI      6.1426479033     3.5499136512     6.0136416227
NI      7.3700581619     5.6707159488     6.0109295016
NI      8.5999527651     7.8033945441     6.0153324119
NI      7.3681846897     1.4225680714     6.0172045630
NI      8.5998429900     3.5458900402     6.0053040480
NI      9.8278139244     5.6740614295     6.0107947189
NI     11.0571686013     7.8045177317     6.0127778271
NI      9.8285354789     1.4199303793     6.0128620336
NI     11.0581566620     3.5467048029     6.0144321072
NI     12.2870668178     5.6745337807     6.0116386631
NI     13.5157118799     7.8039442678     6.0130210214
NI     -0.0001342150     0.0007293089     8.0439672920
NI      1.2268325946     2.1286651496     8.0457515493
NI      2.4477364766     4.2584116582     8.0341376406
NI      3.6838535375     6.3894013768     8.0386130544
NI      2.4558784964    -0.0009233709     8.0435586250
NI      3.6717691990     2.1155858408     8.0387462014
NI      4.9108746153     4.2574701489     8.0495293558
NI      6.1395568562     6.4041068991     8.0219295355
NI      4.9136329781    -0.0049363776     8.0431260612
NI      6.1335692461     2.1341258736     8.0869142424
NI      7.4187064601     4.2452677680     8.0984534749
NI      8.6079739006     6.3949348901     8.0302315303
NI      7.3745546609    -0.0043661136     8.0387517723
NI      8.6176120101     2.1158755849     8.0332961676
NI      9.8406673689     4.2544346205     8.0379036781
NI     11.0569920607     6.3829565850     8.0435322475
C       5.9053564375     3.3815167004    10.2141592806
C       5.9460128573     1.9521198082    10.7748795006
C       7.0265155992     4.2646517033     9.9131893652
O       4.5940858483     3.9403158796    10.3781609301
O       5.5640335387     1.7405680447    12.1908107335
O       8.2066490313     3.8287477314    11.2345672695
H       4.0741303282     3.6777353559    11.1827555920
H       8.3554824086     4.7430514225    11.6299197233
H       4.8066454222     2.1540307736    12.3430300569
H       7.0887230233     1.5867663659    10.6816539364
H       4.6331847757     1.9198428355    10.4719621912
H       9.0483707710     3.4304378181    10.9417778234
H       6.9287077150     5.3101804881    10.2603524999
77
Step 5 | ATOMIC_POSITIONS (angstrom) | Cartesian Angstrom
NI      0.0000000000     0.0000000000     1.9999949100
NI      1.2286500000     2.1280842250     1.9999949100
NI      2.4573000000     4.2561684490     1.9999949100
NI      3.6859500000     6.3842526740     1.9999949100
NI      2.4573000000     0.0000000000     1.9999949100
NI      3.6859500000     2.1280842250     1.9999949100
NI      4.9146000000     4.2561684490     1.9999949100
NI      6.1432500000     6.3842526740     1.9999949100
NI      4.9146000000     0.0000000000     1.9999949100
NI      6.1432500000     2.1280842250     1.9999949100
NI      7.3719000000     4.2561684490     1.9999949100
NI      8.6005500000     6.3842526740     1.9999949100
NI      7.3719000000     0.0000000000     1.9999949100
NI      8.6005500000     2.1280842250     1.9999949100
NI      9.8292000000     4.2561684490     1.9999949100
NI     11.0578500000     6.3842526740     1.9999949100
NI      1.2303222302     0.7096718911     4.0162654625
NI      2.4568542106     2.8364379373     4.0131964699
NI      3.6874435689     4.9647658995     4.0132483659
NI      4.9160238552     7.0920790142     4.0176959909
NI      3.6848931170     0.7081824228     4.0127357687
NI      4.9138435257     2.8358849276     4.0106455629
NI      6.1445553220     4.9648948687     4.0137328531
NI      7.3719729838     7.0953633060     4.0114645211
NI      6.1425439942     0.7096968865     4.0135049989
NI      7.3704401584     2.8381066498     4.0188885505
NI      8.5989885563     4.9650292986     4.0150975353
NI      9.8282812059     7.0945995443     4.0146323600
NI      8.6013417072     0.7096379526     4.0150785320
NI      9.8320973521     2.8359044314     4.0088789637
NI     11.0575742995     4.9647134392     4.0153080037
NI     12.2866505651     7.0940415373     4.0176838881
NI      2.4575848737     1.4194412816     6.0192338783
NI      3.6864000733     3.5459880102     6.0178432296
NI      4.9145775675     5.6665571755     6.0206917312
NI      6.1451713725     7.8032417575     6.0161059323
NI      4.9189963956     1.4229416882     6.0227072331
NI      6.1428772116     3.5516828277     6.0233774746
NI      7.3696374030     5.6664158434     6.0168659912
NI      8.5993203651     7.8044906606     6.0193921037
NI      7.3644237762     1.4256331081     6.0266024741
NI      8.5987167205     3.5456407702     6.0080749083
NI      9.8269257247     5.6734675399     6.0137474502
NI     11.0566738748     7.8056071081     6.0174204561
NI      9.8286067736     1.4201419639     6.0164317809
NI     11.0582973292     3.5460205046     6.0186654680
NI     12.2873408245     5.6746264550     6.0151846642
NI     13.5164856528     7.8046944470     6.0171397534
NI      0.0002507343     0.0012470297     8.0586149175
NI      1.2260004382     2.1282540082     8.0612633499
NI      2.4424470123     4.2595804228     8.0417289134
NI      3.6813423227     6.3938902076     8.0485475751
NI      2.4544996457    -0.0011052761     8.0581994676
NI      3.6627953821     2.1070988865     8.0535986676
NI      4.9085554926     4.2602783731     8.0632645980
NI      6.1407851225     6.4118309448     8.0250341454
NI      4.9135914751    -0.0075674304     8.0574070829
NI      6.1287718220     2.1395216550     8.1309074007
NI      7.4422255869     4.2400838483     8.1369712460
NI      8.6126410525     6.4000867581     8.0363452295
NI      7.3755890774    -0.0066786569     8.0499749615
NI      8.6268121835     2.1091283568     8.0424009325
NI      9.8478831332     4.2538193902     8.0478025269
NI     11.0565097604     6.3826412961     8.0583684034
C       5.7932097336     3.3651362024    10.2225769781
C       5.8963675810     1.8820038149    10.8610842667
C       6.8943138781     4.2735083835     9.9056348001
O       4.6214659283     4.0787323623    10.3719031359
O       5.6748668188     1.8168068205    12.1602075442
O       8.2343691549     3.8076533154    11.2961917325
H       4.1613348982     3.6864856496    11.1441832294
H       8.4033685228     4.7429424653    11.6416242149
H       4.7849363474     2.1288830346    12.3715269148
H       6.8678272773     1.5801560487    10.6463566656
H       4.8478760468     1.7805091023    10.3628042490
H       9.0604784243     3.4557189648    10.9113130323
H       6.9175899172     5.3314716960    10.2612088045
77
Step 6 | ATOMIC_POSITIONS (angstrom) | Cartesian Angstrom
NI      0.0000000000     0.0000000000     1.9999949100
NI      1.2286500000     2.1280842250     1.9999949100
NI      2.4573000000     4.2561684490     1.9999949100
NI      3.6859500000     6.3842526740     1.9999949100
NI      2.4573000000     0.0000000000     1.9999949100
NI      3.6859500000     2.1280842250     1.9999949100
NI      4.9146000000     4.2561684490     1.9999949100
NI      6.1432500000     6.3842526740     1.9999949100
NI      4.9146000000     0.0000000000     1.9999949100
NI      6.1432500000     2.1280842250     1.9999949100
NI      7.3719000000     4.2561684490     1.9999949100
NI      8.6005500000     6.3842526740     1.9999949100
NI      7.3719000000     0.0000000000     1.9999949100
NI      8.6005500000     2.1280842250     1.9999949100
NI      9.8292000000     4.2561684490     1.9999949100
NI     11.0578500000     6.3842526740     1.9999949100
NI      1.2304364383     0.7096427748     4.0173214305
NI      2.4569753271     2.8362632982     4.0143742116
NI      3.6876391089     4.9646322150     4.0141491265
NI      4.9161317549     7.0918023252     4.0191112425
NI      3.6850158615     0.7083432958     4.0144023660
NI      4.9138767712     2.8357871346     4.0123916638
NI      6.1446165633     4.9646718273     4.0151186248
NI      7.3719381530     7.0953639289     4.0125939591
NI      6.1425083684     0.7099134777     4.0151627654
NI      7.3701046097     2.8380409577     4.0211138144
NI      8.5988081788     4.9649472575     4.0159883410
NI      9.8282032458     7.0946979949     4.0160539148
NI      8.6012334634     0.7097766557     4.0167455047
NI      9.8324712372     2.8357245629     4.0091153805
NI     11.0575803158     4.9646280754     4.0166847657
NI     12.2867560743     7.0941530447     4.0192934505
NI      2.4575517458     1.4194967588     6.0223825411
NI      3.6864687567     3.5455350898     6.0212993573
NI      4.9141665880     5.6659112759     6.0239420308
NI      6.1453134585     7.8032273386     6.0186210416
NI      4.9197304207     1.4239324792     6.0281121219
NI      6.1429452626     3.5516210196     6.0294486488
NI      7.3699711728     5.6650052629     6.0210557611
NI      8.5988481546     7.8049060297     6.0215744915
NI      7.3630047512     1.4267314754     6.0323717367
NI      8.5986271003     3.5456421288     6.0120983061
NI      9.8266870627     5.6732106085     6.0162122567
NI     11.0565637335     7.8058049587     6.0207108440
NI      9.8287065654     1.4201518335     6.0190519590
NI     11.0583054696     3.5454301530     6.0208433288
NI     12.2873337801     5.6747598292     6.0179227018
NI     13.5169120328     7.8051056609     6.0197572001
NI      0.0005931390     0.0010815157     8.0649274424
NI      1.2262175258     2.1278493994     8.0682947023
NI      2.4414259660     4.2595352673     8.0454496950
NI      3.6799209323     6.3959711227     8.0523104297
NI      2.4542173212    -0.0007712936     8.0650122821
NI      3.6593148794     2.1043578449     8.0563568330
NI      4.9106426826     4.2597770089     8.0683669008
NI      6.1422585867     6.4129587354     8.0285482077
NI      4.9139215157    -0.0073193881     8.0629806122
NI      6.1272017951     2.1441924204     8.1432154405
NI      7.4463914359     4.2372722471     8.1562276180
NI      8.6148700258     6.4017692504     8.0401450201
NI      7.3750398779    -0.0062921515     8.0553652086
NI      8.6286404480     2.1071827683     8.0474599821
NI      9.8509050703     4.2536151053     8.0525214442
NI     11.0563935490     6.3828364193     8.0653158652
C       5.8111697580     3.3792161312    10.1987446348
C       5.8660729310     1.9153537255    10.8287668466
C       6.8373045462     4.2792325554     9.8872769102
O       4.6140987989     4.1218456287    10.3975182933
O       5.7035717763     1.8420107127    12.2372720724
O       8.2555224627     3.8157861036    11.3431575161
H       4.1759391527     3.6945766605    11.1305924209
H       8.4211719730     4.7182362710    11.6360965879
H       4.7801995298     2.1156178229    12.3868832403
H       6.8068164786     1.5544776178    10.6127295505
H       4.9063376351     1.6945381847    10.3193356660
H       9.0661529644     3.4684170320    10.8953341970
H       6.9062105158     5.3294991441    10.2615660332
77
Step 7 | ATOMIC_POSITIONS (angstrom) | Cartesian Angstrom
NI      0.0000000000     0.0000000000     1.9999949100
NI      1.2286500000     2.1280842250     1.9999949100
NI      2.4573000000     4.2561684490     1.9999949100
NI      3.6859500000     6.3842526740     1.9999949100
NI      2.4573000000     0.0000000000     1.9999949100
NI      3.6859500000     2.1280842250     1.9999949100
NI      4.9146000000     4.2561684490     1.9999949100
NI      6.1432500000     6.3842526740     1.9999949100
NI      4.9146000000     0.0000000000     1.9999949100
NI      6.1432500000     2.1280842250     1.9999949100
NI      7.3719000000     4.2561684490     1.9999949100
NI      8.6005500000     6.3842526740     1.9999949100
NI      7.3719000000     0.0000000000     1.9999949100
NI      8.6005500000     2.1280842250     1.9999949100
NI      9.8292000000     4.2561684490     1.9999949100
NI     11.0578500000     6.3842526740     1.9999949100
NI      1.2303715842     0.7095023965     4.0183450440
NI      2.4572685416     2.8360832349     4.0158945494
NI      3.6877024928     4.9645197504     4.0154249834
NI      4.9160493291     7.0915964163     4.0203488579
NI      3.6854879327     0.7088557071     4.0170593681
NI      4.9141149632     2.8358903324     4.0156281930
NI      6.1445996969     4.9642583515     4.0174770025
NI      7.3718136004     7.0950187880     4.0144588731
NI      6.1424855863     0.7102530734     4.0178416089
NI      7.3697789752     2.8379256076     4.0240690420
NI      8.5986026439     4.9647454728     4.0172362294
NI      9.8282429783     7.0948001795     4.0179716369
NI      8.6007831590     0.7100535850     4.0191643934
NI      9.8324104123     2.8356921028     4.0099898643
NI     11.0576570635     4.9646619215     4.0184019165
NI     12.2868918471     7.0943145733     4.0210657235
NI      2.4574697818     1.4194890216     6.0268668511
NI      3.6864967989     3.5451342005     6.0263602713
NI      4.9135787204     5.6659881671     6.0283743494
NI      6.1453332025     7.8028209545     6.0228523666
NI      4.9202994257     1.4247887468     6.0357667807
NI      6.1432316936     3.5508676830     6.0373344718
NI      7.3708395824     5.6640107808     6.0272210013
NI      8.5982658391     7.8052386707     6.0245174311
NI      7.3618328357     1.4275652782     6.0402806494
NI      8.5989059637     3.5456642800     6.0195445006
NI      9.8266808873     5.6730444509     6.0203304710
NI     11.0565741592     7.8056935999     6.0256165635
NI      9.8287791864     1.4199856809     6.0231673061
NI     11.0583318400     3.5445678175     6.0238239616
NI     12.2871991803     5.6749751331     6.0222497125
NI     13.5173518266     7.8056750420     6.0236197224
NI      0.0011546228     0.0004642426     8.0710280118
NI      1.2268902051     2.1270842152     8.0754304733
NI      2.4423840912     4.2589156036     8.0500627899
NI      3.6783598340     6.3980329141     8.0555196279
NI      2.4544052388    -0.0002258653     8.0721671421
NI      3.6562863177     2.1032028062     8.0550577626
NI      4.9157531661     4.2578383339     8.0760536327
NI      6.1447599794     6.4115845713     8.0345998545
NI      4.9145580517    -0.0057961810     8.0671958073
NI      6.1267296699     2.1496950375     8.1471445120
NI      7.4465663312     4.2347888910     8.1714508899
NI      8.6172290875     6.4026564546     8.0453136785
NI      7.3733728994    -0.0043397087     8.0612700140
NI      8.6282608600     2.1065824352     8.0537176107
NI      9.8530141383     4.2534756868     8.0578301536
NI     11.0563830846     6.3835828624     8.0727153452
C       5.8208547074     3.4058722098    10.1716780807
C       5.8362997620     1.9928438227    10.8268822088
C       6.8194995429     4.3039393549     9.8462186827
O       4.6215612960     4.1521489500    10.4187004959
O       5.7236248626     1.8690734457    12.2786504381
O       8.2834623843     3.7928692056    11.3885602586
H       4.1560206630     3.6919700064    11.1447106873
H       8.4465058888     4.7152955167    11.6361137766
H       4.7701374272     2.1051652590    12.4152882429
H       6.7873409021     1.5036939218    10.5635394783
H       4.9263328452     1.5889274249    10.2880333083