77
Step 1 | ATOMIC_POSITIONS (angstrom) | Cartesian Angstrom
NI      0.0000000000     0.0000000000     1.9999949100
NI      1.2286500000     2.1280842250     1.9999949100
NI      2.4573000000     4.2561684490     1.9999949100
NI      3.6859500000     6.3842526740     1.9999949100
NI      2.4573000000     0.0000000000     1.9999949100
NI      3.6859500000     2.1280842250     1.9999949100
NI      4.9146000000     4.2561684490     1.9999949100
NI      6.1432500000     6.3842526740     1.9999949100
NI      4.9146000000     0.0000000000     1.9999949100
NI      6.1432500000     2.1280842250     1.9999949100
NI      7.3719000000     4.2561684490     1.9999949100
NI      8.6005500000     6.3842526740     1.9999949100
NI      7.3719000000     0.0000000000     1.9999949100
NI      8.6005500000     2.1280842250     1.9999949100
NI      9.8292000000     4.2561684490     1.9999949100
NI     11.0578500000     6.3842526740     1.9999949100
NI      1.2288204598     0.7094359486     4.0079309289
NI      2.4571791538     2.8372794126     4.0074077896
NI      3.6860838007     4.9654407871     4.0076768567
NI      4.9146624362     7.0935428566     4.0079322166
NI      3.6858162992     0.7091662362     4.0073489877
NI      4.9145789866     2.8372945629     4.0072609064
NI      6.1435161941     4.9654157433     4.0077716607
NI      7.3718908393     7.0937522463     4.0074587370
NI      6.1430752983     0.7093726858     4.0076846539
NI      7.3717856720     2.8376308871     4.0082686005
NI      8.6003379891     4.9654144470     4.0078798817
NI      9.8291084405     7.0937116649     4.0076997253
NI      8.6007300281     0.7093066717     4.0075943575
NI      9.8293120488     2.8373351320     4.0074758978
NI     11.0577665944     4.9654719911     4.0078375225
NI     12.2864964818     7.0936272012     4.0081108066
NI      2.4574426927     1.4189952416     6.0127120316
NI      3.6856774620     3.5470090145     6.0121390438
NI      4.9146773348     5.6741795233     6.0125975487
NI      6.1435296618     7.8026956339     6.0124168045
NI      4.9147828318     1.4188016884     6.0123115458
NI      6.1429108514     3.5471942041     6.0110202565
NI      7.3715209993     5.6747566107     6.0112093691
NI      8.6004456958     7.8027994769     6.0128105362
NI      7.3717246545     1.4191329451     6.0122985616
NI      8.6007084276     3.5466327799     6.0104015488
NI      9.8289897333     5.6747597032     6.0118241536
NI     11.0577897906     7.8031493141     6.0119998472
NI      9.8289888039     1.4190314603     6.0122892967
NI     11.0579437144     3.5468949607     6.0124933224
NI     12.2866052198     5.6747674919     6.0119517652
NI     13.5151812017     7.8031086826     6.0121170351
NI     -0.0001387820     0.0000235407     8.0238256055
NI      1.2283695183     2.1283441293     8.0243125531
NI      2.4556880866     4.2564878897     8.0225244513
NI      3.6857910899     6.3848637221     8.0231520933
NI      2.4572722313    -0.0001400071     8.0238429209
NI      3.6838301379     2.1263761427     8.0212656214
NI      4.9149033905     4.2552902254     8.0259671278
NI      6.1419306776     6.3884048641     8.0201739872
NI      4.9143970344    -0.0006214474     8.0233994668
NI      6.1416181111     2.1292544508     8.0277794917
NI      7.3799581676     4.2532731500     8.0357009241
NI      8.6018796391     6.3864124754     8.0218469195
NI      7.3722372254    -0.0004994256     8.0231732477
NI      8.6031632822     2.1260634435     8.0222811665
NI      9.8311199494     4.2557611476     8.0232538075
NI     11.0576938320     6.3839725097     8.0238384505
C       6.0404963029     3.4656280413    10.2184043664
C       6.0377152969     1.9731560180    10.7021395125
C       7.2755571518     4.2734758790     9.9475135811
O       4.6374044130     3.6686328329    10.4643956884
O       5.5535420735     1.6232987821    12.1006824766
O       8.1523058205     3.8636099792    11.1289921903
H       3.9919204750     3.6444393103    11.1729353901
H       8.3064698377     4.7002543844    11.5874351837
H       4.7325260878     2.2265794077    12.3101210857
H       6.8260884718     1.7649142979    10.7320647266
H       4.7339289255     2.0527938082    10.6823462956
H       9.0058188530     3.4351392041    11.0007097316
H       6.9124223485     5.2363639414    10.2544264904
77
Step 2 | ATOMIC_POSITIONS (angstrom) | Cartesian Angstrom
NI      0.0000000000     0.0000000000     1.9999949100
NI      1.2286500000     2.1280842250     1.9999949100
NI      2.4573000000     4.2561684490     1.9999949100
NI      3.6859500000     6.3842526740     1.9999949100
NI      2.4573000000     0.0000000000     1.9999949100
NI      3.6859500000     2.1280842250     1.9999949100
NI      4.9146000000     4.2561684490     1.9999949100
NI      6.1432500000     6.3842526740     1.9999949100
NI      4.9146000000     0.0000000000     1.9999949100
NI      6.1432500000     2.1280842250     1.9999949100
NI      7.3719000000     4.2561684490     1.9999949100
NI      8.6005500000     6.3842526740     1.9999949100
NI      7.3719000000     0.0000000000     1.9999949100
NI      8.6005500000     2.1280842250     1.9999949100
NI      9.8292000000     4.2561684490     1.9999949100
NI     11.0578500000     6.3842526740     1.9999949100
NI      1.2292423611     0.7095911139     4.0106338743
NI      2.4569311331     2.8369688703     4.0090720677
NI      3.6864101356     4.9652694210     4.0098124749
NI      4.9148582526     7.0933542803     4.0106979175
NI      3.6855006602     0.7087591810     4.0088044765
NI      4.9145385730     2.8369653720     4.0084321959
NI      6.1440126718     4.9651693214     4.0100569982
NI      7.3719212209     7.0941015683     4.0091111880
NI      6.1428057387     0.7094119461     4.0097283980
NI      7.3715615940     2.8379932456     4.0115442356
NI      8.5999087365     4.9652101058     4.0105057630
NI      9.8289199502     7.0939173434     4.0098770238
NI      8.6010293855     0.7092443675     4.0096528858
NI      9.8296295355     2.8370488644     4.0090567830
NI     11.0576415608     4.9653360663     4.0103146284
NI     12.2865045824     7.0937076883     4.0111575974
NI      2.4576907454     1.4194310144     6.0120699354
NI      3.6852824068     3.5473575332     6.0105898964
NI      4.9148369363     5.6725815051     6.0118820252
NI      6.1440788549     7.8022660980     6.0112090311
NI      4.9152185802     1.4190789944     6.0108534485
NI      6.1423054385     3.5480600292     6.0077046161
NI      7.3706894278     5.6740705253     6.0079269322
NI      8.6002864471     7.8026517265     6.0125622246
NI      7.3710483925     1.4201255158     6.0112729689
NI      8.6008700214     3.5462128869     6.0052106745
NI      9.8285173765     5.6744857609     6.0094620954
NI     11.0576067515     7.8035582048     6.0101219572
NI      9.8285911850     1.4196759498     6.0108610358
NI     11.0580726096     3.5470286657     6.0115501662
NI     12.2868151559     5.6745205995     6.0098316536
NI     13.5152420615     7.8033891060     6.0104849549
NI     -0.0004139095     0.0001633687     8.0325166294
NI      1.2277695205     2.1288239233     8.0338304062
NI      2.4522313211     4.2572058737     8.0280771118
NI      3.6853901627     6.3862615137     8.0302915820
NI      2.4570084404    -0.0005217489     8.0323286169
NI      3.6790155037     2.1224907848     8.0254165291
NI      4.9151035057     4.2540490323     8.0379209104
NI      6.1394665702     6.3968820573     8.0207365019
NI      4.9139691346    -0.0021381636     8.0316659462
NI      6.1378241968     2.1316007870     8.0492228511
NI      7.3974176735     4.2479872016     8.0672415866
NI      8.6046059344     6.3906924566     8.0258097438
NI      7.3732326122    -0.0018327447     8.0300337095
NI      8.6091347793     2.1216543471     8.0269105572
NI      9.8351484965     4.2549925178     8.0302084410
NI     11.0574014355     6.3833714378     8.0323513442
C       6.0085744012     3.3437491646    10.2179724203
C       5.9571326786     2.0969219854    10.6841318146
C       7.1322479886     4.2921807733     9.9246807989
O       4.5858851361     3.8118005973    10.4011340042
O       5.6306446797     1.5973302876    12.1980953219
O       8.2066934761     3.8482736834    11.1944643257
H       4.0010951294     3.6683626799    11.2082020486
H       8.3161943753     4.7223070711    11.6093899435
H       4.6877315578     2.2531943655    12.3392089319
H       7.2125114883     1.5931205659    10.7125091876
H       4.4972041919     2.0110782516    10.5587549853
H       9.0208106525     3.4232005608    10.9701667301
H       6.9362561796     5.2685586555    10.2504887576
