77
Step 1 | ATOMIC_POSITIONS (angstrom) | Cartesian Angstrom
NI      0.0000000000     0.0000000000     1.9999949100
NI      1.2286500000     2.1280842250     1.9999949100
NI      2.4573000000     4.2561684490     1.9999949100
NI      3.6859500000     6.3842526740     1.9999949100
NI      2.4573000000     0.0000000000     1.9999949100
NI      3.6859500000     2.1280842250     1.9999949100
NI      4.9146000000     4.2561684490     1.9999949100
NI      6.1432500000     6.3842526740     1.9999949100
NI      4.9146000000     0.0000000000     1.9999949100
NI      6.1432500000     2.1280842250     1.9999949100
NI      7.3719000000     4.2561684490     1.9999949100
NI      8.6005500000     6.3842526740     1.9999949100
NI      7.3719000000     0.0000000000     1.9999949100
NI      8.6005500000     2.1280842250     1.9999949100
NI      9.8292000000     4.2561684490     1.9999949100
NI     11.0578500000     6.3842526740     1.9999949100
NI      1.2286993552     0.7096286486     4.0086268475
NI      2.4571128091     2.8376139996     4.0089148647
NI      3.6858423438     4.9654279691     4.0083788577
NI      4.9146436241     7.0936968667     4.0090954288
NI      3.6859617436     0.7093630905     4.0086096492
NI      4.9143418022     2.8375256755     4.0078062432
NI      6.1436276036     4.9654648497     4.0093170151
NI      7.3720155308     7.0942305628     4.0072493116
NI      6.1431431431     0.7094778701     4.0085401953
NI      7.3719462615     2.8378915629     4.0092256710
NI      8.6003760444     4.9653827364     4.0090347954
NI      9.8290098268     7.0936233631     4.0090550866
NI      8.6005642824     0.7095781508     4.0084846209
NI      9.8295010367     2.8375225232     4.0074112961
NI     11.0578181905     4.9654153776     4.0082940055
NI     12.2865214556     7.0936349296     4.0090018642
NI      2.4574405595     1.4187863496     6.0120289744
NI      3.6867404107     3.5472238172     6.0123093221
NI      4.9147123782     5.6733970924     6.0124711244
NI      6.1433764306     7.8027585201     6.0113316555
NI      4.9152389839     1.4195067786     6.0119801381
NI      6.1437262556     3.5460897394     6.0065925227
NI      7.3716565881     5.6738287270     6.0106173397
NI      8.6003649207     7.8025843583     6.0119671072
NI      7.3721236883     1.4190436165     6.0112328881
NI      8.6005370511     3.5468169257     6.0090327533
NI      9.8287786064     5.6744811196     6.0117074842
NI     11.0577604065     7.8031171692     6.0115658676
NI      9.8285786859     1.4192266707     6.0124372193
NI     11.0573372986     3.5467942035     6.0125323058
NI     12.2867764151     5.6748124842     6.0111533491
NI     13.5152725297     7.8030709211     6.0111541699
NI     -0.0001312605    -0.0009827193     8.0260968173
NI      1.2296446156     2.1274509124     8.0251127496
NI      2.4559312696     4.2566589587     8.0237597602
NI      3.6854183587     6.3861748411     8.0253629234
NI      2.4569891013    -0.0004527033     8.0258524944
NI      3.6820593349     2.1254181346     8.0227127042
NI      4.9019600979     4.2529154951     8.0079751933
NI      6.1438998896     6.3924064001     8.0195204847
NI      4.9137206408    -0.0019143114     8.0237988933
NI      6.1455417322     2.1191136094     8.0149986536
NI      7.3786739005     4.2496791659     8.0374892087
NI      8.6006081756     6.3867487718     8.0244437205
NI      7.3728051264    -0.0022235530     8.0228442348
NI      8.6023458536     2.1254469684     8.0239249303
NI      9.8311001848     4.2569155862     8.0274836235
NI     11.0584424309     6.3849380214     8.0255607276
C       6.2060959315     3.3142704339    10.9832085919
C       6.0146368571     1.8927616465    10.8919160978
C       7.3044666908     3.9549385974    10.0190225790
O       5.4486738505     4.0758139889     9.8364811698
O       4.7011415641     1.4209042331    11.0879096197
O       8.6764641129     3.8812934963    10.5344039959
H       5.5280081222     5.0239598655    10.1158567276
H       4.1519347417     2.1918590586    11.3046670028
H       6.6814058344     1.3544179615    11.5710062241
H       6.3721056434     1.4733316860     9.8928919238
H       7.0126572830     4.9071844367    10.5366337913
H       6.0393495853     3.8945348777    11.9473590879
H       8.0038166990     4.2068631876    11.2349815654
77
Step 2 | ATOMIC_POSITIONS (angstrom) | Cartesian Angstrom
NI      0.0000000000     0.0000000000     1.9999949100
NI      1.2286500000     2.1280842250     1.9999949100
NI      2.4573000000     4.2561684490     1.9999949100
NI      3.6859500000     6.3842526740     1.9999949100
NI      2.4573000000     0.0000000000     1.9999949100
NI      3.6859500000     2.1280842250     1.9999949100
NI      4.9146000000     4.2561684490     1.9999949100
NI      6.1432500000     6.3842526740     1.9999949100
NI      4.9146000000     0.0000000000     1.9999949100
NI      6.1432500000     2.1280842250     1.9999949100
NI      7.3719000000     4.2561684490     1.9999949100
NI      8.6005500000     6.3842526740     1.9999949100
NI      7.3719000000     0.0000000000     1.9999949100
NI      8.6005500000     2.1280842250     1.9999949100
NI      9.8292000000     4.2561684490     1.9999949100
NI     11.0578500000     6.3842526740     1.9999949100
NI      1.2288892902     0.7102698866     4.0127116461
NI      2.4565609037     2.8379611779     4.0130191218
NI      3.6857824438     4.9651898701     4.0116901496
NI      4.9148114894     7.0937944083     4.0134595025
NI      3.6859083393     0.7094249002     4.0124395300
NI      4.9134869639     2.8375797019     4.0094556222
NI      6.1443412268     4.9656761247     4.0139776126
NI      7.3722240129     7.0955376778     4.0082783311
NI      6.1429227640     0.7097254769     4.0120370941
NI      7.3721591295     2.8386838605     4.0138310698
NI      8.6000516302     4.9651955089     4.0133904941
NI      9.8286558623     7.0935997475     4.0137510688
NI      8.6006771476     0.7099793811     4.0120777375
NI      9.8305026031     2.8376612041     4.0084931213
NI     11.0577100663     4.9651876776     4.0114957833
NI     12.2865537428     7.0936889503     4.0135258115
NI      2.4577599848     1.4190645963     6.0111625799
NI      3.6873183665     3.5477132422     6.0096540463
NI      4.9147917737     5.6706103946     6.0111817896
NI      6.1435144644     7.8023734878     6.0090009268
NI      4.9161700331     1.4209633588     6.0101741057
NI      6.1451802194     3.5453423563     5.9938083642
NI      7.3710995710     5.6702795959     6.0080697615
NI      8.5998418064     7.8019629535     6.0108101914
NI      7.3727722594     1.4196830635     6.0079519653
NI      8.6003643043     3.5471943643     6.0030370125
NI      9.8279037955     5.6735940117     6.0105041302
NI     11.0574484875     7.8032780820     6.0093975436
NI      9.8274625382     1.4202808201     6.0122593010
NI     11.0562853421     3.5465966380     6.0128822044
NI     12.2874689425     5.6745689103     6.0085521296
NI     13.5157418780     7.8031414642     6.0086714849
NI     -0.0003931861    -0.0026480472     8.0393939869
NI      1.2313057040     2.1259510220     8.0364953730
NI      2.4503877703     4.2578963565     8.0308757622
NI      3.6830613246     6.3920357054     8.0353231990
NI      2.4563005516    -0.0011718061     8.0387473048
NI      3.6730063951     2.1174689199     8.0278403039
NI      4.8845111373     4.2437479401     7.9862123776
NI      6.1461168175     6.4083857474     8.0181868550
NI      4.9117329512    -0.0063071808     8.0323804426
NI      6.1501326134     2.1016518573     8.0052830756
NI      7.3835978389     4.2354570034     8.0836347615
NI      8.6012513547     6.3924325475     8.0331992862
NI      7.3748912695    -0.0071237236     8.0299245508
NI      8.6069525402     2.1187479973     8.0313636191
NI      9.8360065130     4.2584834806     8.0425558412
NI     11.0595599179     6.3862197606     8.0379722582
C       6.2548140324     3.3115374081    10.9002686314
C       5.9999175316     1.8303709355    10.9018508290
C       7.4369279002     3.9986854752    10.0364872366
O       5.1280440782     4.0804417790     9.9052118365
O       4.6701462536     1.4122290742    11.1050178533
O       8.6894764303     3.8496773774    10.5760662416
H       5.4935847068     5.0361070973    10.1025730888
H       4.1332259910     2.1917465990    11.2999907661
H       6.6975926253     1.3681076813    11.5856266955
H       6.3707929021     1.4945585460     9.8864875988
H       7.0685029748     4.9871837500    10.4665702755
H       6.0354675793     3.8531522209    11.9097842722
H       8.1721020840     4.2174903675    11.3426044166
77
Step 3 | ATOMIC_POSITIONS (angstrom) | Cartesian Angstrom
NI      0.0000000000     0.0000000000     1.9999949100
NI      1.2286500000     2.1280842250     1.9999949100
NI      2.4573000000     4.2561684490     1.9999949100
NI      3.6859500000     6.3842526740     1.9999949100
NI      2.4573000000     0.0000000000     1.9999949100
NI      3.6859500000     2.1280842250     1.9999949100
NI      4.9146000000     4.2561684490     1.9999949100
NI      6.1432500000     6.3842526740     1.9999949100
NI      4.9146000000     0.0000000000     1.9999949100
NI      6.1432500000     2.1280842250     1.9999949100
NI      7.3719000000     4.2561684490     1.9999949100
NI      8.6005500000     6.3842526740     1.9999949100
NI      7.3719000000     0.0000000000     1.9999949100
NI      8.6005500000     2.1280842250     1.9999949100
NI      9.8292000000     4.2561684490     1.9999949100
NI     11.0578500000     6.3842526740     1.9999949100
NI      1.2289945560     0.7108151180     4.0151923097
NI      2.4559596296     2.8381213636     4.0150401137
NI      3.6858189751     4.9650603687     4.0132907975
NI      4.9149214652     7.0939269142     4.0156404182
NI      3.6858114401     0.7095515226     4.0145774985
NI      4.9125401688     2.8373432066     4.0091411139
NI      6.1446855840     4.9662218282     4.0159616342
NI      7.3724144220     7.0963638992     4.0087687348
NI      6.1427497405     0.7099080309     4.0136889890
NI      7.3726300114     2.8388487758     4.0152755361
NI      8.5999498579     4.9652927474     4.0154729667
NI      9.8284703529     7.0935189235     4.0163987682
NI      8.6008983987     0.7101978797     4.0140273388
NI      9.8314393021     2.8376857499     4.0088482896
NI     11.0576106788     4.9650515684     4.0132957618
NI     12.2865407585     7.0937003065     4.0159510577
NI      2.4577134142     1.4191114734     6.0124479133
NI      3.6864443314     3.5473050527     6.0071537171
NI      4.9149338480     5.6696922208     6.0105227234
NI      6.1436246990     7.8024690370     6.0088412292
NI      4.9160872584     1.4214794371     6.0097692220
NI      6.1472639500     3.5456613918     5.9886563419
NI      7.3707618417     5.6668217008     6.0098205630
NI      8.5991517978     7.8016566617     6.0119112552
NI      7.3737730451     1.4196201659     6.0062895243
NI      8.5999631584     3.5478939340     6.0030414380
NI      9.8272994574     5.6729841138     6.0122772384
NI     11.0571275366     7.8033128984     6.0098286646
NI      9.8270879488     1.4207697364     6.0139140099
NI     11.0555441348     3.5463315924     6.0153001762
NI     12.2878746702     5.6744692862     6.0090499111
NI     13.5163091182     7.8031003481     6.0092359848
NI     -0.0004683404    -0.0030710196     8.0490343650
NI      1.2317509173     2.1247592823     8.0450694030
NI      2.4441890482     4.2587693937     8.0354169675
NI      3.6810699542     6.3966192434     8.0414969279
NI      2.4556523296    -0.0012202963     8.0482410430
NI      3.6666510973     2.1102961812     8.0309598450
NI      4.8834726245     4.2356029251     7.9844504592
NI      6.1477075514     6.4155880074     8.0185763804
NI      4.9101151994    -0.0101107436     8.0384189179
NI      6.1522689411     2.0920719895     7.9973473650
NI      7.3860296582     4.2254367448     8.1150737570
NI      8.6018080861     6.3954548272     8.0389358868
NI      7.3767641795    -0.0110298175     8.0352220625
NI      8.6106231396     2.1137312730     8.0353411624
NI      9.8395985057     4.2593612381     8.0511551337
NI     11.0600236310     6.3868890330     8.0471397662
C       6.2473065041     3.3142043985    10.8449392328
C       5.9968414863     1.8377210075    10.8867218556
C       7.4283265547     4.0312315611    10.0230505057
O       4.9881221739     4.1039973171     9.9933984050
O       4.6612405246     1.3997021662    11.1186473959
O       8.7250381866     3.8262094742    10.6306778098
H       5.4492252543     5.0101043459    10.0827214871
H       4.1171212524     2.1993303506    11.2959987177
H       6.7124040369     1.3671026619    11.6056002868
H       6.3655625675     1.4955431668     9.8819432992
H       7.1092621035     5.0411808328    10.4077042603
H       6.0432839176     3.8161238144    11.8619778057
H       8.3082291626     4.2230137889    11.4376029564
