77
Step 1 | ATOMIC_POSITIONS (angstrom) | Cartesian Angstrom
NI      0.0000000000     0.0000000000     1.9999949100
NI      1.2286500000     2.1280842250     1.9999949100
NI      2.4573000000     4.2561684490     1.9999949100
NI      3.6859500000     6.3842526740     1.9999949100
NI      2.4573000000     0.0000000000     1.9999949100
NI      3.6859500000     2.1280842250     1.9999949100
NI      4.9146000000     4.2561684490     1.9999949100
NI      6.1432500000     6.3842526740     1.9999949100
NI      4.9146000000     0.0000000000     1.9999949100
NI      6.1432500000     2.1280842250     1.9999949100
NI      7.3719000000     4.2561684490     1.9999949100
NI      8.6005500000     6.3842526740     1.9999949100
NI      7.3719000000     0.0000000000     1.9999949100
NI      8.6005500000     2.1280842250     1.9999949100
NI      9.8292000000     4.2561684490     1.9999949100
NI     11.0578500000     6.3842526740     1.9999949100
NI      1.2288312295     0.7093252903     4.0084591912
NI      2.4573420573     2.8375950513     4.0086494978
NI      3.6859300212     4.9653412803     4.0085507678
NI      4.9146564833     7.0937800022     4.0087967154
NI      3.6858569360     0.7094136306     4.0087567224
NI      4.9144156161     2.8373213871     4.0078040776
NI      6.1434880533     4.9652407836     4.0094689331
NI      7.3721605677     7.0943099703     4.0073065975
NI      6.1433081066     0.7093605756     4.0087562616
NI      7.3720635544     2.8377457417     4.0092008807
NI      8.6003918644     4.9655194945     4.0090416467
NI      9.8290561230     7.0934700723     4.0087778172
NI      8.6005979668     0.7093378263     4.0084119433
NI      9.8295707905     2.8372437877     4.0073874325
NI     11.0579068057     4.9654277169     4.0085910905
NI     12.2864903259     7.0936894308     4.0089969495
NI      2.4571458188     1.4187251534     6.0124554833
NI      3.6869213607     3.5473078547     6.0133419178
NI      4.9146758809     5.6750967838     6.0108433406
NI      6.1433788276     7.8023491325     6.0126060044
NI      4.9147731956     1.4189000367     6.0111003012
NI      6.1430696693     3.5467018162     6.0083848464
NI      7.3721962302     5.6732986345     6.0111357326
NI      8.6003402484     7.8025781374     6.0126692518
NI      7.3719937292     1.4192581182     6.0121862301
NI      8.6001985327     3.5474697869     6.0087905499
NI      9.8287259526     5.6741212050     6.0120025400
NI     11.0578501774     7.8031547784     6.0116343017
NI      9.8283981911     1.4194972586     6.0126445126
NI     11.0569699826     3.5470732249     6.0123867690
NI     12.2863905761     5.6748147646     6.0114024447
NI     13.5152444317     7.8029506744     6.0118254739
NI     -0.0005603438    -0.0006433084     8.0249444164
NI      1.2303264370     2.1269334336     8.0255767467
NI      2.4589159866     4.2558322940     8.0239757585
NI      3.6852848589     6.3849538439     8.0247898855
NI      2.4575574801     0.0000175463     8.0252957678
NI      3.6826266863     2.1286198742     8.0221970763
NI      4.9122859305     4.2593344013     8.0130385785
NI      6.1425938044     6.3878080238     8.0230647992
NI      4.9136026315    -0.0027584581     8.0221532083
NI      6.1418739818     2.1263060096     8.0174151260
NI      7.3701598711     4.2482944250     8.0612471195
NI      8.6012588607     6.3880375611     8.0233506557
NI      7.3731241378    -0.0023141547     8.0224462006
NI      8.6028223224     2.1262684675     8.0272903785
NI      9.8299374279     4.2556408766     8.0414720393
NI     11.0585786654     6.3853759869     8.0250595996
C       6.1899474061     3.3475901993    10.9496580957
C       5.9578807703     1.9069299178    10.7934672992
C       7.2475008971     3.9527420355    10.0047821820
O       5.1238305485     4.2730475888    10.6311673283
O       5.0113058311     1.3237824477    11.6351257440
O       9.3265939411     3.8404808847    10.7810502946
H       4.5606616337     3.7593637992     9.9416619594
H       4.7638913168     2.0044567632    12.2889020980
H       6.8811778261     1.3417715351    10.8403706324
H       5.6337299739     1.6338607791     9.7033010250
H       6.9994604480     4.9032735163    10.5275785781
H       6.6530765861     3.7260185801    11.9159562862
H       8.0370979176     4.1768727040    11.1261760017
77
Step 2 | ATOMIC_POSITIONS (angstrom) | Cartesian Angstrom
NI      0.0000000000     0.0000000000     1.9999949100
NI      1.2286500000     2.1280842250     1.9999949100
NI      2.4573000000     4.2561684490     1.9999949100
NI      3.6859500000     6.3842526740     1.9999949100
NI      2.4573000000     0.0000000000     1.9999949100
NI      3.6859500000     2.1280842250     1.9999949100
NI      4.9146000000     4.2561684490     1.9999949100
NI      6.1432500000     6.3842526740     1.9999949100
NI      4.9146000000     0.0000000000     1.9999949100
NI      6.1432500000     2.1280842250     1.9999949100
NI      7.3719000000     4.2561684490     1.9999949100
NI      8.6005500000     6.3842526740     1.9999949100
NI      7.3719000000     0.0000000000     1.9999949100
NI      8.6005500000     2.1280842250     1.9999949100
NI      9.8292000000     4.2561684490     1.9999949100
NI     11.0578500000     6.3842526740     1.9999949100
NI      1.2290142800     0.7093090463     4.0102337149
NI      2.4573825355     2.8377331670     4.0106063105
NI      3.6859216324     4.9651459539     4.0103107272
NI      4.9147429260     7.0939710185     4.0107712273
NI      3.6857724642     0.7094498860     4.0107226477
NI      4.9141873614     2.8371608236     4.0087119535
NI      6.1437343936     4.9650265490     4.0120375047
NI      7.3724326000     7.0949876693     4.0079063259
NI      6.1433688236     0.7093676744     4.0106932410
NI      7.3722713176     2.8379702029     4.0115063141
NI      8.6002639750     4.9655484914     4.0112510549
NI      9.8289202113     7.0933392682     4.0107851541
NI      8.6006711901     0.7093368150     4.0100834632
NI      9.8299862622     2.8370215951     4.0079959073
NI     11.0579550189     4.9653291326     4.0104068318
NI     12.2864792208     7.0937576835     4.0111693557
NI      2.4569638348     1.4186810576     6.0121043274
NI      3.6877063654     3.5476851804     6.0134712106
NI      4.9147946215     5.6754872727     6.0087691879
NI      6.1435385769     7.8018098647     6.0123797172
NI      4.9147852408     1.4190050721     6.0092404298
NI      6.1433253333     3.5468577713     6.0047697181
NI      7.3724232913     5.6713420562     6.0103886461
NI      8.6000622454     7.8022088873     6.0125248503
NI      7.3721946994     1.4198144555     6.0115578930
NI      8.5997242431     3.5483088436     6.0061660386
NI      9.8282597426     5.6731437978     6.0117664495
NI     11.0578379471     7.8033047690     6.0104788837
NI      9.8276655482     1.4202654130     6.0126024845
NI     11.0558905691     3.5474146003     6.0126022709
NI     12.2862496211     5.6747372338     6.0101535120
NI     13.5153561169     7.8029182802     6.0109691351
NI     -0.0010757906    -0.0012096544     8.0301586202
NI      1.2319310711     2.1257343897     8.0312384900
NI      2.4603616423     4.2555882663     8.0282206618
NI      3.6846509679     6.3856767391     8.0298549235
NI      2.4577369605     0.0001027711     8.0308566259
NI      3.6796501393     2.1292094945     8.0249816798
NI      4.9100437132     4.2621548575     8.0076550605
NI      6.1420337825     6.3909997377     8.0263558243
NI      4.9127170427    -0.0052349721     8.0247574115
NI      6.1401097297     2.1241521679     8.0158602629
NI      7.3689618619     4.2407748788     8.0997555464
NI      8.6017974434     6.3914428043     8.0269076183
NI      7.3743274389    -0.0045271742     8.0251127453
NI      8.6051045514     2.1243079355     8.0343937333
NI      9.8304275405     4.2552218705     8.0627857181
NI     11.0593122650     6.3863278160     8.0302963053
C       6.2127664467     3.3334944477    10.9356441812
C       5.9630427230     1.8877199338    10.8153274877
C       7.2694249448     3.9801158192     9.9933222333
O       5.1037567173     4.2628944563    10.6599877389
O       4.9988664053     1.3200888079    11.6422538144
O       9.2353960460     3.8533642572    10.7768289816
H       4.5480962041     3.7580478933     9.9369546085
H       4.7573017170     2.0039116216    12.2921684615
H       6.8917830143     1.3483520256    10.8437861442
H       5.6267471889     1.6434814337     9.7006749445
H       7.0269136181     4.9413071802    10.4942302279
H       6.6221714863     3.7001591086    11.9268090093
H       8.1328177343     4.1641084262    11.0966170076
77
Step 3 | ATOMIC_POSITIONS (angstrom) | Cartesian Angstrom
NI      0.0000000000     0.0000000000     1.9999949100
NI      1.2286500000     2.1280842250     1.9999949100
NI      2.4573000000     4.2561684490     1.9999949100
NI      3.6859500000     6.3842526740     1.9999949100
NI      2.4573000000     0.0000000000     1.9999949100
NI      3.6859500000     2.1280842250     1.9999949100
NI      4.9146000000     4.2561684490     1.9999949100
NI      6.1432500000     6.3842526740     1.9999949100
NI      4.9146000000     0.0000000000     1.9999949100
NI      6.1432500000     2.1280842250     1.9999949100
NI      7.3719000000     4.2561684490     1.9999949100
NI      8.6005500000     6.3842526740     1.9999949100
NI      7.3719000000     0.0000000000     1.9999949100
NI      8.6005500000     2.1280842250     1.9999949100
NI      9.8292000000     4.2561684490     1.9999949100
NI     11.0578500000     6.3842526740     1.9999949100
NI      1.2292415209     0.7093276266     4.0126112725
NI      2.4573922408     2.8379344724     4.0133014398
NI      3.6859004433     4.9648703797     4.0124203899
NI      4.9148953471     7.0942814757     4.0131674314
NI      3.6856405449     0.7094938254     4.0131292271
NI      4.9137883302     2.8369097369     4.0095083712
NI      6.1440986252     4.9648465837     4.0151611555
NI      7.3727775910     7.0958538596     4.0086714337
NI      6.1434902390     0.7094012022     4.0129986239
NI      7.3726262328     2.8381822011     4.0142908968
NI      8.6001261821     4.9656403137     4.0139705103
NI      9.8287547789     7.0931080946     4.0134088088
NI      8.6008087911     0.7093587873     4.0122153365
NI      9.8306074245     2.8367094425     4.0086361230
NI     11.0580001927     4.9651840959     4.0126844084
NI     12.2864663357     7.0938255108     4.0138429539
NI      2.4566750536     1.4185545116     6.0122408472
NI      3.6884774215     3.5479978415     6.0136514025
NI      4.9150209137     5.6762985111     6.0064386919
NI      6.1438544763     7.8012075673     6.0127157388
NI      4.9145733771     1.4190507885     6.0071437089
NI      6.1442931576     3.5473297450     6.0016036971
NI      7.3727002162     5.6682164800     6.0112695016
NI      8.5995543410     7.8017061799     6.0129221288
NI      7.3726085614     1.4205830580     6.0113462928
NI      8.5989835540     3.5496554863     6.0053463730
NI      9.8275870093     5.6715547982     6.0130435072
NI     11.0577887999     7.8034696501     6.0095882394
NI      9.8267679031     1.4213273439     6.0134231673
NI     11.0541145697     3.5479697761     6.0146375991
NI     12.2860086470     5.6746125908     6.0093735269
NI     13.5155662081     7.8029033863     6.0106264125
NI     -0.0016918412    -0.0018947602     8.0375295496
NI      1.2339780234     2.1240753493     8.0390226133
NI      2.4619076198     4.2554653422     8.0341684643
NI      3.6838376132     6.3866568724     8.0370345904
NI      2.4578732472     0.0003621386     8.0387265989
NI      3.6758493330     2.1299254098     8.0289976414
NI      4.9076834044     4.2659474191     8.0010515187
NI      6.1413708637     6.3947624398     8.0310936930
NI      4.9115673922    -0.0084028294     8.0284736368
NI      6.1375008058     2.1210898424     8.0139938316
NI      7.3679651176     4.2309392111     8.1451575487
NI      8.6023019507     6.3954557565     8.0319269736
NI      7.3759341408    -0.0073992658     8.0289242859
NI      8.6082060998     2.1212772207     8.0435924438
NI      9.8309088773     4.2549194133     8.0912049847
NI     11.0603160684     6.3872983524     8.0376402610
C       6.2369824728     3.3228249078    10.9187993725
C       5.9677937918     1.8716721559    10.8329733057
C       7.2846071674     4.0132197808     9.9757156998
O       5.0836737851     4.2399224347    10.6955289598
O       4.9864811330     1.3133629320    11.6498138025
O       9.0945767196     3.8721007681    10.7693784900
H       4.5320835198     3.7576017283     9.9351569042
H       4.7456943834     2.0065132448    12.2999575437
H       6.9105516166     1.3504750905    10.8506350246
H       5.6181803618     1.6552818506     9.7021789450
H       7.0669225321     4.9919972585    10.4475380376
H       6.5839214795     3.6649009228    11.9401528104
H       8.2811333165     4.1473161215    11.0707687760
77
Step 4 | ATOMIC_POSITIONS (angstrom) | Cartesian Angstrom
NI      0.0000000000     0.0000000000     1.9999949100
NI      1.2286500000     2.1280842250     1.9999949100
NI      2.4573000000     4.2561684490     1.9999949100
NI      3.6859500000     6.3842526740     1.9999949100
NI      2.4573000000     0.0000000000     1.9999949100
NI      3.6859500000     2.1280842250     1.9999949100
NI      4.9146000000     4.2561684490     1.9999949100
NI      6.1432500000     6.3842526740     1.9999949100
NI      4.9146000000     0.0000000000     1.9999949100
NI      6.1432500000     2.1280842250     1.9999949100
NI      7.3719000000     4.2561684490     1.9999949100
NI      8.6005500000     6.3842526740     1.9999949100
NI      7.3719000000     0.0000000000     1.9999949100
NI      8.6005500000     2.1280842250     1.9999949100
NI      9.8292000000     4.2561684490     1.9999949100
NI     11.0578500000     6.3842526740     1.9999949100
NI      1.2292952346     0.7093805976     4.0133691812
NI      2.4573203840     2.8380082075     4.0142282210
NI      3.6858878040     4.9647785165     4.0128112302
NI      4.9149852573     7.0944509867     4.0136280444
NI      3.6855858178     0.7094838782     4.0136212862
NI      4.9135924921     2.8367929224     4.0093196121
NI      6.1442583031     4.9649135498     4.0157898563
NI      7.3728794852     7.0960530459     4.0089165874
NI      6.1435528784     0.7094300114     4.0133881559
NI      7.3728458822     2.8381504079     4.0148401870
NI      8.6001302383     4.9657170838     4.0146378686
NI      9.8287131518     7.0929906641     4.0141539612
NI      8.6009042696     0.7094011836     4.0127863559
NI      9.8308678934     2.8366150957     4.0087317270
NI     11.0579717077     4.9651121402     4.0133015909
NI     12.2864670100     7.0938179965     4.0144307464
NI      2.4565117004     1.4184457574     6.0130439896
NI      3.6884032396     3.5478825827     6.0137207844
NI      4.9151672025     5.6768955830     6.0062196415
NI      6.1440672517     7.8011434226     6.0136085084
NI      4.9142411371     1.4189576109     6.0069242673
NI      6.1451679809     3.5477146201     6.0023130478
NI      7.3727329440     5.6668203719     6.0135672614
NI      8.5992319748     7.8015319990     6.0137554047
NI      7.3729065376     1.4208441412     6.0119950351
NI      8.5987045920     3.5502670276     6.0081585242
NI      9.8273319276     5.6707433222     6.0152837198
NI     11.0577424721     7.8034706428     6.0101118702
NI      9.8265953056     1.4216865895     6.0146889608
NI     11.0531839594     3.5482478611     6.0172513886
NI     12.2858809934     5.6745600029     6.0101755538
NI     13.5157001416     7.8029269011     6.0114807383
NI     -0.0017816934    -0.0020345479     8.0403376979
NI      1.2344323383     2.1235399125     8.0418496110
NI      2.4619807060     4.2556417007     8.0364892563
NI      3.6836407636     6.3869759544     8.0397756701
NI      2.4577982101     0.0005998740     8.0417190761
NI      3.6749862661     2.1301581158     8.0307846984
NI      4.9074238950     4.2669519481     8.0002559855
NI      6.1412704209     6.3953597771     8.0329979704
NI      4.9112690472    -0.0091772533     8.0300174558
NI      6.1363041267     2.1197860337     8.0141266642
NI      7.3680182776     4.2283955881     8.1495118460
NI      8.6022202345     6.3960496920     8.0338442869
NI      7.3764145623    -0.0082084094     8.0304374500
NI      8.6092161264     2.1198439801     8.0460591447
NI      9.8310366544     4.2551386848     8.0998758452
NI     11.0606287586     6.3872453894     8.0404025060
C       6.2436381429     3.3419884440    10.9233379537
C       5.9652621972     1.8666385273    10.8174781140
C       7.2755560924     4.0173100383     9.9720261495
O       5.0750052669     4.2122418591    10.6933453999
O       4.9845278566     1.3183150037    11.6585691248
O       9.1185310497     3.8472063764    10.7266455469
H       4.5355658025     3.7670510293     9.9478539509
H       4.7412273513     2.0030447690    12.2992264796
H       6.9203379627     1.3453769808    10.8556200152
H       5.6179756486     1.6590065187     9.7113925776
H       7.0829561859     5.0073167235    10.4309882271
H       6.5740000288     3.6506595332    11.9386035310
H       8.2591441813     4.1752785021    11.1159433830
77
Step 5 | ATOMIC_POSITIONS (angstrom) | Cartesian Angstrom
NI      0.0000000000     0.0000000000     1.9999949100
NI      1.2286500000     2.1280842250     1.9999949100
NI      2.4573000000     4.2561684490     1.9999949100
NI      3.6859500000     6.3842526740     1.9999949100
NI      2.4573000000     0.0000000000     1.9999949100
NI      3.6859500000     2.1280842250     1.9999949100
NI      4.9146000000     4.2561684490     1.9999949100
NI      6.1432500000     6.3842526740     1.9999949100
NI      4.9146000000     0.0000000000     1.9999949100
NI      6.1432500000     2.1280842250     1.9999949100
NI      7.3719000000     4.2561684490     1.9999949100
NI      8.6005500000     6.3842526740     1.9999949100
NI      7.3719000000     0.0000000000     1.9999949100
NI      8.6005500000     2.1280842250     1.9999949100
NI      9.8292000000     4.2561684490     1.9999949100
NI     11.0578500000     6.3842526740     1.9999949100
NI      1.2294887894     0.7095604816     4.0163143801
NI      2.4570028933     2.8382926325     4.0177734666
NI      3.6858267675     4.9644708076     4.0145078002
NI      4.9152959324     7.0950731749     4.0156439817
NI      3.6853560242     0.7094379662     4.0157053698
NI      4.9130109767     2.8364603205     4.0090759232
NI      6.1448776838     4.9650595365     4.0184954798
NI      7.3732402624     7.0967115823     4.0101127694
NI      6.1437853276     0.7095078300     4.0151487557
NI      7.3736749297     2.8381853258     4.0173006216
NI      8.6001376184     4.9659136963     4.0175354510
NI      9.8285492731     7.0925150047     4.0171779893
NI      8.6012552012     0.7095421543     4.0151188256
NI      9.8317297724     2.8363631907     4.0095225018
NI     11.0578373176     4.9648241706     4.0159305232
NI     12.2864770337     7.0937953140     4.0169211686
NI      2.4558614483     1.4181233490     6.0157856308
NI      3.6883040134     3.5476315104     6.0142431404
NI      4.9156073321     5.6788774956     6.0053009155
NI      6.1448102736     7.8008120523     6.0166765970
NI      4.9132149147     1.4187102240     6.0061275774
NI      6.1477459687     3.5487342198     6.0036125466
NI      7.3729523568     5.6622053137     6.0207093327
NI      8.5980852830     7.8007670389     6.0165345305
NI      7.3739198928     1.4217805649     6.0141784516
NI      8.5979029651     3.5522972433     6.0166905920
NI      9.8264270810     5.6679298827     6.0227282632
NI     11.0575652004     7.8034584793     6.0117941747
NI      9.8258974760     1.4230248205     6.0189194606
NI     11.0499071762     3.5492131187     6.0259541098
NI     12.2854287038     5.6743671000     6.0127107536
NI     13.5161895567     7.8030178545     6.0141709637
NI     -0.0020934588    -0.0027776663     8.0506685337
NI      1.2363426517     2.1214809766     8.0524470060
NI      2.4626944106     4.2562203937     8.0449449013
NI      3.6829677418     6.3880455692     8.0498725526
NI      2.4576322035     0.0013708869     8.0527838511
NI      3.6713554049     2.1308978553     8.0367207120
NI      4.9063340193     4.2710799384     7.9948094236
NI      6.1407403503     6.3980625083     8.0399389535
NI      4.9099680145    -0.0124437655     8.0352644161
NI      6.1324786335     2.1153867921     8.0125572227
NI      7.3670382495     4.2186769164     8.1700809563
NI      8.6020797493     6.3988218012     8.0409051353
NI      7.3781138224    -0.0112884534     8.0360518085
NI      8.6128761837     2.1145659280     8.0560183277
NI      9.8313171042     4.2556446657     8.1346615827
NI     11.0618090920     6.3873746841     8.0506501884
C       6.2545725694     3.3616128910    10.9142662615
C       5.9729311522     1.8569042552    10.7962552093
C       7.2641121413     4.0416488334     9.9661178406
O       5.0524272349     4.1468833403    10.7167136975
O       4.9828296485     1.3222750030    11.6715108310
O       9.0648993888     3.8083730392    10.6303398241
H       4.5322122092     3.7809303216     9.9715709445
H       4.7229844776     2.0038729742    12.3063450427
H       6.9444738328     1.3352314575    10.8713010452
H       5.6121435621     1.6718251177     9.7347054054
H       7.1406829360     5.0686447956    10.3682724967
H       6.5377733553     3.6045231998    11.9484969739
H       8.3167212934     4.2240906124    11.2037189518
77
Step 6 | ATOMIC_POSITIONS (angstrom) | Cartesian Angstrom
NI      0.0000000000     0.0000000000     1.9999949100
NI      1.2286500000     2.1280842250     1.9999949100
NI      2.4573000000     4.2561684490     1.9999949100
NI      3.6859500000     6.3842526740     1.9999949100
NI      2.4573000000     0.0000000000     1.9999949100
NI      3.6859500000     2.1280842250     1.9999949100
NI      4.9146000000     4.2561684490     1.9999949100
NI      6.1432500000     6.3842526740     1.9999949100
NI      4.9146000000     0.0000000000     1.9999949100
NI      6.1432500000     2.1280842250     1.9999949100
NI      7.3719000000     4.2561684490     1.9999949100
NI      8.6005500000     6.3842526740     1.9999949100
NI      7.3719000000     0.0000000000     1.9999949100
NI      8.6005500000     2.1280842250     1.9999949100
NI      9.8292000000     4.2561684490     1.9999949100
NI     11.0578500000     6.3842526740     1.9999949100
NI      1.2296509650     0.7099244482     4.0206714107
NI      2.4560825594     2.8387361709     4.0231048642
NI      3.6856812890     4.9641805807     4.0165019619
NI      4.9157981110     7.0961660318     4.0180805442
NI      3.6849174165     0.7092434664     4.0182417682
NI      4.9124307041     2.8361738306     4.0085180509
NI      6.1459446492     4.9654369811     4.0218424741
NI      7.3736454180     7.0970623679     4.0125974791
NI      6.1441924026     0.7095871875     4.0171847882
NI      7.3752743209     2.8383175023     4.0206693211
NI      8.6003222045     4.9660628947     4.0220934408
NI      9.8283596645     7.0915753909     4.0216927241
NI      8.6019124442     0.7098240545     4.0184721330
NI      9.8327756342     2.8363675483     4.0116471900
NI     11.0573949558     4.9642900682     4.0201520285
NI     12.2865321104     7.0936648970     4.0202052380
NI      2.4546250649     1.4176776826     6.0216153817
NI      3.6874043700     3.5470024182     6.0155916593
NI      4.9161637820     5.6821179430     6.0056312534
NI      6.1460307435     7.8006180438     6.0230296599
NI      4.9113973027     1.4181922104     6.0065634437
NI      6.1511871530     3.5497396343     6.0075012668
NI      7.3732560601     5.6564215080     6.0334036482
NI      8.5961603584     7.7994239112     6.0219970846
NI      7.3755915914     1.4228785368     6.0188618823
NI      8.5974795098     3.5547745532     6.0338420924
NI      9.8252667384     5.6637487244     6.0369478844
NI     11.0572172152     7.8031888544     6.0162639929
NI      9.8252710535     1.4248315066     6.0269363462
NI     11.0448351737     3.5506645241     6.0420300777
NI     12.2847167271     5.6740902715     6.0187343332
NI     13.5170238628     7.8032463106     6.0200338681
NI     -0.0019940125    -0.0040955357     8.0659915348
NI      1.2385409502     2.1186473984     8.0682793636
NI      2.4632940229     4.2574932714     8.0576788592
NI      3.6824954201     6.3891796880     8.0648134645
NI      2.4572838434     0.0025947955     8.0691485487
NI      3.6670631451     2.1317941033     8.0451154319
NI      4.9057874251     4.2762531703     7.9874136917
NI      6.1399768874     6.4007241761     8.0503478523
NI      4.9080454332    -0.0167586788     8.0426491173
NI      6.1275043230     2.1092225676     8.0091979797
NI      7.3631666985     4.2068854250     8.1737069537
NI      8.6014204156     6.4013969073     8.0513833069
NI      7.3799666610    -0.0152011240     8.0447108980
NI      8.6173679487     2.1059441210     8.0692625095
NI      9.8313053478     4.2567276191     8.1854504694
NI     11.0633552867     6.3870656281     8.0658716964
C       6.2547471036     3.3791120017    10.9022697240
C       5.9956375260     1.8517724912    10.7820073365
C       7.2607456206     4.0739369800     9.9831672545
O       5.0317780715     4.0696739998    10.7777764221
O       4.9941701780     1.3327678479    11.6820618760
O       8.9473683244     3.7617035934    10.4980823957
H       4.5162563678     3.7879094442     9.9866039456
H       4.6975127929     2.0073251813    12.3126782907
H       6.9701514219     1.3191852299    10.8936736840
H       5.6009672456     1.6848119491     9.7624791941
H       7.2230845606     5.1529134406    10.2766704673
H       6.4936970330     3.5406937469    11.9634987589
H       8.4230164835     4.2891764109    11.3269873796
77
Step 7 | ATOMIC_POSITIONS (angstrom) | Cartesian Angstrom
NI      0.0000000000     0.0000000000     1.9999949100
NI      1.2286500000     2.1280842250     1.9999949100
NI      2.4573000000     4.2561684490     1.9999949100
NI      3.6859500000     6.3842526740     1.9999949100
NI      2.4573000000     0.0000000000     1.9999949100
NI      3.6859500000     2.1280842250     1.9999949100
NI      4.9146000000     4.2561684490     1.9999949100
NI      6.1432500000     6.3842526740     1.9999949100
NI      4.9146000000     0.0000000000     1.9999949100
NI      6.1432500000     2.1280842250     1.9999949100
NI      7.3719000000     4.2561684490     1.9999949100
NI      8.6005500000     6.3842526740     1.9999949100
NI      7.3719000000     0.0000000000     1.9999949100
NI      8.6005500000     2.1280842250     1.9999949100
NI      9.8292000000     4.2561684490     1.9999949100
NI     11.0578500000     6.3842526740     1.9999949100
NI      1.2295860542     0.7101286695     4.0223054740
NI      2.4552527553     2.8389025056     4.0251250755
NI      3.6855664502     4.9642890905     4.0169117130
NI      4.9159979828     7.0967186745     4.0185763506
NI      3.6846413614     0.7090478634     4.0187658532
NI      4.9125687105     2.8362972840     4.0084196956
NI      6.1464545896     4.9656826759     4.0225887904
NI      7.3736548867     7.0965758599     4.0143292986
NI      6.1444014365     0.7095669393     4.0175610326
NI      7.3762200993     2.8385094784     4.0218556750
NI      8.6005631649     4.9659104906     4.0243446188
NI      9.8283548067     7.0909810658     4.0235023457
NI      8.6022696554     0.7099919882     4.0196803347
NI      9.8328435084     2.8367853336     4.0137065758
NI     11.0569923355     4.9640089752     4.0222429266
NI     12.2865908515     7.0935262461     4.0211882947
NI      2.4539633707     1.4175981018     6.0252847537
NI      3.6863904987     3.5466389551     6.0166192844
NI      4.9161992143     5.6834039530     6.0072550804
NI      6.1464718231     7.8008440929     6.0268784971
NI      4.9105168023     1.4178199782     6.0080183133
NI      6.1515501854     3.5493689797     6.0097760190
NI      7.3733177728     5.6558928705     6.0388011017
NI      8.5953789061     7.7988044117     6.0250775404
NI      7.3762233390     1.4228363693     6.0215601811
NI      8.5982402091     3.5548017637     6.0429162674
NI      9.8251141243     5.6625376390     6.0445080752
NI     11.0570405822     7.8028513419     6.0195439488
NI      9.8254870366     1.4251559476     6.0311039735
NI     11.0431735781     3.5511301022     6.0501670418
NI     12.2844753171     5.6740289787     6.0227783800
NI     13.5173644912     7.8034048524     6.0237133150
NI     -0.0013672227    -0.0048230572     8.0713408873
NI      1.2385128802     2.1180338243     8.0740484719
NI      2.4631767270     4.2582053815     8.0625750910
NI      3.6828768313     6.3890713456     8.0699108456
NI      2.4571110051     0.0029744012     8.0746490943
NI      3.6668589040     2.1321272891     8.0479345538
NI      4.9060857710     4.2766087774     7.9867522073
NI      6.1396216198     6.4004002780     8.0541119562
NI      4.9074001866    -0.0176746878     8.0450551125
NI      6.1264729795     2.1075479232     8.0085669633
NI      7.3579347865     4.2049456640     8.1575410407
NI      8.6008308126     6.4008670825     8.0550322988
NI      7.3799108554    -0.0159788544     8.0480909939
NI      8.6178649121     2.1022816537     8.0721205444
NI      9.8311319345     4.2571161091     8.2014120046
NI     11.0636236226     6.3865121329     8.0711889063
C       6.2504475454     3.3742510661    10.9091526986
C       6.0120300699     1.8580925708    10.7935535479
C       7.2797203886     4.0836324379    10.0006803951
O       5.0116385959     4.0532408907    10.7991016932
O       5.0091779068     1.3382382229    11.6810049533
O       8.8774359663     3.7681212355    10.4859219766
H       4.5139705288     3.7904109509     9.9922039407
H       4.6907980754     2.0109749414    12.3095787735
H       6.9710981215     1.3133381774    10.8994305924
H       5.5948933231     1.6831240987     9.7623025028
H       7.2462934450     5.1721872849    10.2474617803