77
Step 1 | ATOMIC_POSITIONS (angstrom) | Cartesian Angstrom
NI      0.0000000000     0.0000000000     1.9999949100
NI      1.2286500000     2.1280842250     1.9999949100
NI      2.4573000000     4.2561684490     1.9999949100
NI      3.6859500000     6.3842526740     1.9999949100
NI      2.4573000000     0.0000000000     1.9999949100
NI      3.6859500000     2.1280842250     1.9999949100
NI      4.9146000000     4.2561684490     1.9999949100
NI      6.1432500000     6.3842526740     1.9999949100
NI      4.9146000000     0.0000000000     1.9999949100
NI      6.1432500000     2.1280842250     1.9999949100
NI      7.3719000000     4.2561684490     1.9999949100
NI      8.6005500000     6.3842526740     1.9999949100
NI      7.3719000000     0.0000000000     1.9999949100
NI      8.6005500000     2.1280842250     1.9999949100
NI      9.8292000000     4.2561684490     1.9999949100
NI     11.0578500000     6.3842526740     1.9999949100
NI      1.2286993552     0.7096286486     4.0086268475
NI      2.4571128091     2.8376139996     4.0089148647
NI      3.6858423438     4.9654279691     4.0083788577
NI      4.9146436241     7.0936968667     4.0090954288
NI      3.6859617436     0.7093630905     4.0086096492
NI      4.9143418022     2.8375256755     4.0078062432
NI      6.1436276036     4.9654648497     4.0093170151
NI      7.3720155308     7.0942305628     4.0072493116
NI      6.1431431431     0.7094778701     4.0085401953
NI      7.3719462615     2.8378915629     4.0092256710
NI      8.6003760444     4.9653827364     4.0090347954
NI      9.8290098268     7.0936233631     4.0090550866
NI      8.6005642824     0.7095781508     4.0084846209
NI      9.8295010367     2.8375225232     4.0074112961
NI     11.0578181905     4.9654153776     4.0082940055
NI     12.2865214556     7.0936349296     4.0090018642
NI      2.4574405595     1.4187863496     6.0120289744
NI      3.6867404107     3.5472238172     6.0123093221
NI      4.9147123782     5.6733970924     6.0124711244
NI      6.1433764306     7.8027585201     6.0113316555
NI      4.9152389839     1.4195067786     6.0119801381
NI      6.1437262556     3.5460897394     6.0065925227
NI      7.3716565881     5.6738287270     6.0106173397
NI      8.6003649207     7.8025843583     6.0119671072
NI      7.3721236883     1.4190436165     6.0112328881
NI      8.6005370511     3.5468169257     6.0090327533
NI      9.8287786064     5.6744811196     6.0117074842
NI     11.0577604065     7.8031171692     6.0115658676
NI      9.8285786859     1.4192266707     6.0124372193
NI     11.0573372986     3.5467942035     6.0125323058
NI     12.2867764151     5.6748124842     6.0111533491
NI     13.5152725297     7.8030709211     6.0111541699
NI     -0.0001312605    -0.0009827193     8.0260968173
NI      1.2296446156     2.1274509124     8.0251127496
NI      2.4559312696     4.2566589587     8.0237597602
NI      3.6854183587     6.3861748411     8.0253629234
NI      2.4569891013    -0.0004527033     8.0258524944
NI      3.6820593349     2.1254181346     8.0227127042
NI      4.9019600979     4.2529154951     8.0079751933
NI      6.1438998896     6.3924064001     8.0195204847
NI      4.9137206408    -0.0019143114     8.0237988933
NI      6.1455417322     2.1191136094     8.0149986536
NI      7.3786739005     4.2496791659     8.0374892087
NI      8.6006081756     6.3867487718     8.0244437205
NI      7.3728051264    -0.0022235530     8.0228442348
NI      8.6023458536     2.1254469684     8.0239249303
NI      9.8311001848     4.2569155862     8.0274836235
NI     11.0584424309     6.3849380214     8.0255607276
C       6.2060959315     3.3142704339    10.9832085919
C       6.0146368571     1.8927616465    10.8919160978
C       7.3044666908     3.9549385974    10.0190225790
O       5.4486738505     4.0758139889     9.8364811698
O       4.7011415641     1.4209042331    11.0879096197
O       8.6764641129     3.8812934963    10.5344039959
H       5.5280081222     5.0239598655    10.1158567276
H       4.1519347417     2.1918590586    11.3046670028
H       6.6814058344     1.3544179615    11.5710062241
H       6.3721056434     1.4733316860     9.8928919238
H       7.0126572830     4.9071844367    10.5366337913
H       6.0393495853     3.8945348777    11.9473590879
H       8.0038166990     4.2068631876    11.2349815654
