77
Step 1 | ATOMIC_POSITIONS (angstrom) | Cartesian Angstrom
NI      0.0000000000     0.0000000000     1.9999949100
NI      1.2286500000     2.1280842250     1.9999949100
NI      2.4573000000     4.2561684490     1.9999949100
NI      3.6859500000     6.3842526740     1.9999949100
NI      2.4573000000     0.0000000000     1.9999949100
NI      3.6859500000     2.1280842250     1.9999949100
NI      4.9146000000     4.2561684490     1.9999949100
NI      6.1432500000     6.3842526740     1.9999949100
NI      4.9146000000     0.0000000000     1.9999949100
NI      6.1432500000     2.1280842250     1.9999949100
NI      7.3719000000     4.2561684490     1.9999949100
NI      8.6005500000     6.3842526740     1.9999949100
NI      7.3719000000     0.0000000000     1.9999949100
NI      8.6005500000     2.1280842250     1.9999949100
NI      9.8292000000     4.2561684490     1.9999949100
NI     11.0578500000     6.3842526740     1.9999949100
NI      1.2286993552     0.7096286486     4.0086268475
NI      2.4571128091     2.8376139996     4.0089148647
NI      3.6858423438     4.9654279691     4.0083788577
NI      4.9146436241     7.0936968667     4.0090954288
NI      3.6859617436     0.7093630905     4.0086096492
NI      4.9143418022     2.8375256755     4.0078062432
NI      6.1436276036     4.9654648497     4.0093170151
NI      7.3720155308     7.0942305628     4.0072493116
NI      6.1431431431     0.7094778701     4.0085401953
NI      7.3719462615     2.8378915629     4.0092256710
NI      8.6003760444     4.9653827364     4.0090347954
NI      9.8290098268     7.0936233631     4.0090550866
NI      8.6005642824     0.7095781508     4.0084846209
NI      9.8295010367     2.8375225232     4.0074112961
NI     11.0578181905     4.9654153776     4.0082940055
NI     12.2865214556     7.0936349296     4.0090018642
NI      2.4574405595     1.4187863496     6.0120289744
NI      3.6867404107     3.5472238172     6.0123093221
NI      4.9147123782     5.6733970924     6.0124711244
NI      6.1433764306     7.8027585201     6.0113316555
NI      4.9152389839     1.4195067786     6.0119801381
NI      6.1437262556     3.5460897394     6.0065925227
NI      7.3716565881     5.6738287270     6.0106173397
NI      8.6003649207     7.8025843583     6.0119671072
NI      7.3721236883     1.4190436165     6.0112328881
NI      8.6005370511     3.5468169257     6.0090327533
NI      9.8287786064     5.6744811196     6.0117074842
NI     11.0577604065     7.8031171692     6.0115658676
NI      9.8285786859     1.4192266707     6.0124372193
NI     11.0573372986     3.5467942035     6.0125323058
NI     12.2867764151     5.6748124842     6.0111533491
NI     13.5152725297     7.8030709211     6.0111541699
NI     -0.0001312605    -0.0009827193     8.0260968173
NI      1.2296446156     2.1274509124     8.0251127496
NI      2.4559312696     4.2566589587     8.0237597602
NI      3.6854183587     6.3861748411     8.0253629234
NI      2.4569891013    -0.0004527033     8.0258524944
NI      3.6820593349     2.1254181346     8.0227127042
NI      4.9019600979     4.2529154951     8.0079751933
NI      6.1438998896     6.3924064001     8.0195204847
NI      4.9137206408    -0.0019143114     8.0237988933
NI      6.1455417322     2.1191136094     8.0149986536
NI      7.3786739005     4.2496791659     8.0374892087
NI      8.6006081756     6.3867487718     8.0244437205
NI      7.3728051264    -0.0022235530     8.0228442348
NI      8.6023458536     2.1254469684     8.0239249303
NI      9.8311001848     4.2569155862     8.0274836235
NI     11.0584424309     6.3849380214     8.0255607276
C       6.2060959315     3.3142704339    10.9832085919
C       6.0146368571     1.8927616465    10.8919160978
C       7.3044666908     3.9549385974    10.0190225790
O       5.4486738505     4.0758139889     9.8364811698
O       4.7011415641     1.4209042331    11.0879096197
O       8.6764641129     3.8812934963    10.5344039959
H       5.5280081222     5.0239598655    10.1158567276
H       4.1519347417     2.1918590586    11.3046670028
H       6.6814058344     1.3544179615    11.5710062241
H       6.3721056434     1.4733316860     9.8928919238
H       7.0126572830     4.9071844367    10.5366337913
H       6.0393495853     3.8945348777    11.9473590879
H       8.0038166990     4.2068631876    11.2349815654
77
Step 2 | ATOMIC_POSITIONS (angstrom) | Cartesian Angstrom
NI      0.0000000000     0.0000000000     1.9999949100
NI      1.2286500000     2.1280842250     1.9999949100
NI      2.4573000000     4.2561684490     1.9999949100
NI      3.6859500000     6.3842526740     1.9999949100
NI      2.4573000000     0.0000000000     1.9999949100
NI      3.6859500000     2.1280842250     1.9999949100
NI      4.9146000000     4.2561684490     1.9999949100
NI      6.1432500000     6.3842526740     1.9999949100
NI      4.9146000000     0.0000000000     1.9999949100
NI      6.1432500000     2.1280842250     1.9999949100
NI      7.3719000000     4.2561684490     1.9999949100
NI      8.6005500000     6.3842526740     1.9999949100
NI      7.3719000000     0.0000000000     1.9999949100
NI      8.6005500000     2.1280842250     1.9999949100
NI      9.8292000000     4.2561684490     1.9999949100
NI     11.0578500000     6.3842526740     1.9999949100
NI      1.2288892902     0.7102698866     4.0127116461
NI      2.4565609037     2.8379611779     4.0130191218
NI      3.6857824438     4.9651898701     4.0116901496
NI      4.9148114894     7.0937944083     4.0134595025
NI      3.6859083393     0.7094249002     4.0124395300
NI      4.9134869639     2.8375797019     4.0094556222
NI      6.1443412268     4.9656761247     4.0139776126
NI      7.3722240129     7.0955376778     4.0082783311
NI      6.1429227640     0.7097254769     4.0120370941
NI      7.3721591295     2.8386838605     4.0138310698
NI      8.6000516302     4.9651955089     4.0133904941
NI      9.8286558623     7.0935997475     4.0137510688
NI      8.6006771476     0.7099793811     4.0120777375
NI      9.8305026031     2.8376612041     4.0084931213
NI     11.0577100663     4.9651876776     4.0114957833
NI     12.2865537428     7.0936889503     4.0135258115
NI      2.4577599848     1.4190645963     6.0111625799
NI      3.6873183665     3.5477132422     6.0096540463
NI      4.9147917737     5.6706103946     6.0111817896
NI      6.1435144644     7.8023734878     6.0090009268
NI      4.9161700331     1.4209633588     6.0101741057
NI      6.1451802194     3.5453423563     5.9938083642
NI      7.3710995710     5.6702795959     6.0080697615
NI      8.5998418064     7.8019629535     6.0108101914
NI      7.3727722594     1.4196830635     6.0079519653
NI      8.6003643043     3.5471943643     6.0030370125
NI      9.8279037955     5.6735940117     6.0105041302
NI     11.0574484875     7.8032780820     6.0093975436
NI      9.8274625382     1.4202808201     6.0122593010
NI     11.0562853421     3.5465966380     6.0128822044
NI     12.2874689425     5.6745689103     6.0085521296
NI     13.5157418780     7.8031414642     6.0086714849
NI     -0.0003931861    -0.0026480472     8.0393939869
NI      1.2313057040     2.1259510220     8.0364953730
NI      2.4503877703     4.2578963565     8.0308757622
NI      3.6830613246     6.3920357054     8.0353231990
NI      2.4563005516    -0.0011718061     8.0387473048
NI      3.6730063951     2.1174689199     8.0278403039
NI      4.8845111373     4.2437479401     7.9862123776
NI      6.1461168175     6.4083857474     8.0181868550
NI      4.9117329512    -0.0063071808     8.0323804426
NI      6.1501326134     2.1016518573     8.0052830756
NI      7.3835978389     4.2354570034     8.0836347615
NI      8.6012513547     6.3924325475     8.0331992862
NI      7.3748912695    -0.0071237236     8.0299245508
NI      8.6069525402     2.1187479973     8.0313636191
NI      9.8360065130     4.2584834806     8.0425558412
NI     11.0595599179     6.3862197606     8.0379722582
C       6.2548140324     3.3115374081    10.9002686314
C       5.9999175316     1.8303709355    10.9018508290
C       7.4369279002     3.9986854752    10.0364872366
O       5.1280440782     4.0804417790     9.9052118365
O       4.6701462536     1.4122290742    11.1050178533
O       8.6894764303     3.8496773774    10.5760662416
H       5.4935847068     5.0361070973    10.1025730888
H       4.1332259910     2.1917465990    11.2999907661
H       6.6975926253     1.3681076813    11.5856266955
H       6.3707929021     1.4945585460     9.8864875988
H       7.0685029748     4.9871837500    10.4665702755
H       6.0354675793     3.8531522209    11.9097842722
H       8.1721020840     4.2174903675    11.3426044166
77
Step 3 | ATOMIC_POSITIONS (angstrom) | Cartesian Angstrom
NI      0.0000000000     0.0000000000     1.9999949100
NI      1.2286500000     2.1280842250     1.9999949100
NI      2.4573000000     4.2561684490     1.9999949100
NI      3.6859500000     6.3842526740     1.9999949100
NI      2.4573000000     0.0000000000     1.9999949100
NI      3.6859500000     2.1280842250     1.9999949100
NI      4.9146000000     4.2561684490     1.9999949100
NI      6.1432500000     6.3842526740     1.9999949100
NI      4.9146000000     0.0000000000     1.9999949100
NI      6.1432500000     2.1280842250     1.9999949100
NI      7.3719000000     4.2561684490     1.9999949100
NI      8.6005500000     6.3842526740     1.9999949100
NI      7.3719000000     0.0000000000     1.9999949100
NI      8.6005500000     2.1280842250     1.9999949100
NI      9.8292000000     4.2561684490     1.9999949100
NI     11.0578500000     6.3842526740     1.9999949100
NI      1.2289945560     0.7108151180     4.0151923097
NI      2.4559596296     2.8381213636     4.0150401137
NI      3.6858189751     4.9650603687     4.0132907975
NI      4.9149214652     7.0939269142     4.0156404182
NI      3.6858114401     0.7095515226     4.0145774985
NI      4.9125401688     2.8373432066     4.0091411139
NI      6.1446855840     4.9662218282     4.0159616342
NI      7.3724144220     7.0963638992     4.0087687348
NI      6.1427497405     0.7099080309     4.0136889890
NI      7.3726300114     2.8388487758     4.0152755361
NI      8.5999498579     4.9652927474     4.0154729667
NI      9.8284703529     7.0935189235     4.0163987682
NI      8.6008983987     0.7101978797     4.0140273388
NI      9.8314393021     2.8376857499     4.0088482896
NI     11.0576106788     4.9650515684     4.0132957618
NI     12.2865407585     7.0937003065     4.0159510577
NI      2.4577134142     1.4191114734     6.0124479133
NI      3.6864443314     3.5473050527     6.0071537171
NI      4.9149338480     5.6696922208     6.0105227234
NI      6.1436246990     7.8024690370     6.0088412292
NI      4.9160872584     1.4214794371     6.0097692220
NI      6.1472639500     3.5456613918     5.9886563419
NI      7.3707618417     5.6668217008     6.0098205630
NI      8.5991517978     7.8016566617     6.0119112552
NI      7.3737730451     1.4196201659     6.0062895243
NI      8.5999631584     3.5478939340     6.0030414380
NI      9.8272994574     5.6729841138     6.0122772384
NI     11.0571275366     7.8033128984     6.0098286646
NI      9.8270879488     1.4207697364     6.0139140099
NI     11.0555441348     3.5463315924     6.0153001762
NI     12.2878746702     5.6744692862     6.0090499111
NI     13.5163091182     7.8031003481     6.0092359848
NI     -0.0004683404    -0.0030710196     8.0490343650
NI      1.2317509173     2.1247592823     8.0450694030
NI      2.4441890482     4.2587693937     8.0354169675
NI      3.6810699542     6.3966192434     8.0414969279
NI      2.4556523296    -0.0012202963     8.0482410430
NI      3.6666510973     2.1102961812     8.0309598450
NI      4.8834726245     4.2356029251     7.9844504592
NI      6.1477075514     6.4155880074     8.0185763804
NI      4.9101151994    -0.0101107436     8.0384189179
NI      6.1522689411     2.0920719895     7.9973473650
NI      7.3860296582     4.2254367448     8.1150737570
NI      8.6018080861     6.3954548272     8.0389358868
NI      7.3767641795    -0.0110298175     8.0352220625
NI      8.6106231396     2.1137312730     8.0353411624
NI      9.8395985057     4.2593612381     8.0511551337
NI     11.0600236310     6.3868890330     8.0471397662
C       6.2473065041     3.3142043985    10.8449392328
C       5.9968414863     1.8377210075    10.8867218556
C       7.4283265547     4.0312315611    10.0230505057
O       4.9881221739     4.1039973171     9.9933984050
O       4.6612405246     1.3997021662    11.1186473959
O       8.7250381866     3.8262094742    10.6306778098
H       5.4492252543     5.0101043459    10.0827214871
H       4.1171212524     2.1993303506    11.2959987177
H       6.7124040369     1.3671026619    11.6056002868
H       6.3655625675     1.4955431668     9.8819432992
H       7.1092621035     5.0411808328    10.4077042603
H       6.0432839176     3.8161238144    11.8619778057
H       8.3082291626     4.2230137889    11.4376029564
77
Step 4 | ATOMIC_POSITIONS (angstrom) | Cartesian Angstrom
NI      0.0000000000     0.0000000000     1.9999949100
NI      1.2286500000     2.1280842250     1.9999949100
NI      2.4573000000     4.2561684490     1.9999949100
NI      3.6859500000     6.3842526740     1.9999949100
NI      2.4573000000     0.0000000000     1.9999949100
NI      3.6859500000     2.1280842250     1.9999949100
NI      4.9146000000     4.2561684490     1.9999949100
NI      6.1432500000     6.3842526740     1.9999949100
NI      4.9146000000     0.0000000000     1.9999949100
NI      6.1432500000     2.1280842250     1.9999949100
NI      7.3719000000     4.2561684490     1.9999949100
NI      8.6005500000     6.3842526740     1.9999949100
NI      7.3719000000     0.0000000000     1.9999949100
NI      8.6005500000     2.1280842250     1.9999949100
NI      9.8292000000     4.2561684490     1.9999949100
NI     11.0578500000     6.3842526740     1.9999949100
NI      1.2290614805     0.7114408950     4.0171993725
NI      2.4551272526     2.8381450595     4.0161752496
NI      3.6858139493     4.9650962740     4.0139814536
NI      4.9149595496     7.0941885140     4.0169205305
NI      3.6855842433     0.7096945055     4.0160838475
NI      4.9114574331     2.8368915565     4.0073724226
NI      6.1449188556     4.9671308084     4.0163891796
NI      7.3726377965     7.0968775701     4.0094208770
NI      6.1425598324     0.7100001947     4.0144868667
NI      7.3735495296     2.8386594084     4.0147956809
NI      8.6000228846     4.9655977425     4.0167871342
NI      9.8283766612     7.0933524861     4.0183634476
NI      8.6014172686     0.7102420511     4.0152675175
NI      9.8324827026     2.8376695102     4.0091367562
NI     11.0574753281     4.9649760916     4.0147993744
NI     12.2864801730     7.0936749935     4.0176235847
NI      2.4570944293     1.4188065127     6.0159883953
NI      3.6846177171     3.5459297429     6.0051190466
NI      4.9154102864     5.6694706305     6.0115608477
NI      6.1438892455     7.8030652693     6.0106409642
NI      4.9151232347     1.4213495311     6.0102603572
NI      6.1495920091     3.5468662168     5.9893365067
NI      7.3706063880     5.6628571093     6.0155979226
NI      8.5980177948     7.8013400384     6.0154995446
NI      7.3755715670     1.4188110478     6.0053912885
NI      8.5993804263     3.5488726688     6.0079829805
NI      9.8268129776     5.6724143189     6.0171157026
NI     11.0567002064     7.8032746178     6.0128986443
NI      9.8273169291     1.4209033487     6.0177270323
NI     11.0546801184     3.5459557092     6.0201905714
NI     12.2879806401     5.6744914075     6.0124382935
NI     13.5171766630     7.8030005169     6.0125816845
NI     -0.0002104211    -0.0029901004     8.0586998721
NI      1.2313230493     2.1232801422     8.0541736878
NI      2.4379554853     4.2594753657     8.0395484923
NI      3.6797495024     6.3999642282     8.0470077729
NI      2.4545214624    -0.0010381385     8.0580211097
NI      3.6616355258     2.1028433318     8.0338019392
NI      4.8873944896     4.2267595606     8.0025780201
NI      6.1486748480     6.4175580184     8.0198307980
NI      4.9084681031    -0.0144309009     8.0444304308
NI      6.1528158287     2.0850861969     7.9888690025
NI      7.3884852859     4.2164007615     8.1349452676
NI      8.6022715416     6.3967068885     8.0444567526
NI      7.3787955493    -0.0152516443     8.0406223783
NI      8.6145033282     2.1090287666     8.0388658382
NI      9.8417805386     4.2596232168     8.0598187830
NI     11.0600850710     6.3874125268     8.0564417950
C       6.2084231942     3.3457677285    10.8087747109
C       6.0110546164     1.8447089147    10.8761463138
C       7.4112574692     4.0519756145    10.0420735468
O       4.9138863073     4.1172493741    10.0840919749
O       4.6595961624     1.4124067583    11.1349705838
O       8.7125943374     3.8125670829    10.6812885397
H       5.3852698175     4.9812109425    10.0649217614
H       4.1099558757     2.1919682330    11.2863778432
H       6.7099443681     1.3790433049    11.6088397463
H       6.3567671328     1.4810218804     9.8731849521
H       7.1560385085     5.0927247452    10.3457803418
H       6.0603842775     3.7760788381    11.8015581993
H       8.4566489079     4.2211949987    11.5288622543
77
Step 5 | ATOMIC_POSITIONS (angstrom) | Cartesian Angstrom
NI      0.0000000000     0.0000000000     1.9999949100
NI      1.2286500000     2.1280842250     1.9999949100
NI      2.4573000000     4.2561684490     1.9999949100
NI      3.6859500000     6.3842526740     1.9999949100
NI      2.4573000000     0.0000000000     1.9999949100
NI      3.6859500000     2.1280842250     1.9999949100
NI      4.9146000000     4.2561684490     1.9999949100
NI      6.1432500000     6.3842526740     1.9999949100
NI      4.9146000000     0.0000000000     1.9999949100
NI      6.1432500000     2.1280842250     1.9999949100
NI      7.3719000000     4.2561684490     1.9999949100
NI      8.6005500000     6.3842526740     1.9999949100
NI      7.3719000000     0.0000000000     1.9999949100
NI      8.6005500000     2.1280842250     1.9999949100
NI      9.8292000000     4.2561684490     1.9999949100
NI     11.0578500000     6.3842526740     1.9999949100
NI      1.2290998944     0.7120184486     4.0187339040
NI      2.4541332422     2.8380058080     4.0166895838
NI      3.6857037147     4.9653892911     4.0140030877
NI      4.9149123411     7.0945320251     4.0176228154
NI      3.6851270370     0.7097005634     4.0170650733
NI      4.9107726871     2.8365040859     4.0050062401
NI      6.1451244834     4.9680766149     4.0157541916
NI      7.3728603946     7.0968771418     4.0107797266
NI      6.1423727689     0.7098935447     4.0146309890
NI      7.3746551869     2.8384493184     4.0134128132
NI      8.6002558792     4.9659766680     4.0179226011
NI      9.8283632405     7.0931308371     4.0199068495
NI      8.6023116299     0.7100188491     4.0158895514
NI      9.8332733151     2.8377348778     4.0100398299
NI     11.0572882505     4.9650086926     4.0164000522
NI     12.2863867975     7.0936322644     4.0188690052
NI      2.4558054507     1.4181133820     6.0213255513
NI      3.6831150632     3.5443875178     6.0058654107
NI      4.9159761705     5.6689421591     6.0157270920
NI      6.1443266331     7.8038976407     6.0144787026
NI      4.9134759485     1.4205677869     6.0112670278
NI      6.1506852055     3.5487108090     5.9962995913
NI      7.3707229120     5.6594038034     6.0241927954
NI      8.5965176385     7.8009187336     6.0211526570
NI      7.3779448433     1.4173099511     6.0051795361
NI      8.5990083844     3.5496489497     6.0167656970
NI      9.8265684376     5.6719684029     6.0243905819
NI     11.0562460274     7.8031709986     6.0182700944
NI      9.8281519839     1.4206439659     6.0231578288
NI     11.0536884886     3.5454187577     6.0267415027
NI     12.2877989658     5.6745951897     6.0181936345
NI     13.5182743254     7.8028751806     6.0181298697
NI      0.0005329248    -0.0029168289     8.0675806135
NI      1.2300568594     2.1217572861     8.0631991679
NI      2.4338426802     4.2597378158     8.0431319081
NI      3.6797394368     6.4006043029     8.0515482948
NI      2.4528742400    -0.0011964711     8.0671882807
NI      3.6590913292     2.0967642568     8.0365693236
NI      4.8927457655     4.2184611377     8.0319833339
NI      6.1485540415     6.4137724250     8.0223066004
NI      4.9070366230    -0.0186032660     8.0500627809
NI      6.1520134858     2.0811648531     7.9818256310
NI      7.3908006957     4.2083871767     8.1466320098
NI      8.6025074312     6.3957479761     8.0495645683
NI      7.3805087839    -0.0190423470     8.0456823823
NI      8.6176763055     2.1054307938     8.0422467060
NI      9.8418401885     4.2589650423     8.0682313038
NI     11.0596881164     6.3875595694     8.0652389305
C       6.1578301788     3.3809347974    10.7610232066
C       6.0102090205     1.8693293596    10.8561764421
C       7.3801386332     4.0639357356    10.0828221525
O       4.9008131523     4.0864551209    10.1748193812
O       4.6897643113     1.4124893053    11.1454451258
O       8.6767204188     3.7949314939    10.7138951113
H       5.3233570906     4.9793458430    10.0518016980
H       4.0953073808     2.2015103490    11.2771628435
H       6.7036520907     1.3974890634    11.6068748819
H       6.3454213146     1.4552812309     9.8645746357
H       7.1976471978     5.1412033873    10.2888277801
H       6.0780570156     3.7543898361    11.7724364955
H       8.5929890566     4.2203283793    11.6168563111
77
Step 6 | ATOMIC_POSITIONS (angstrom) | Cartesian Angstrom
NI      0.0000000000     0.0000000000     1.9999949100
NI      1.2286500000     2.1280842250     1.9999949100
NI      2.4573000000     4.2561684490     1.9999949100
NI      3.6859500000     6.3842526740     1.9999949100
NI      2.4573000000     0.0000000000     1.9999949100
NI      3.6859500000     2.1280842250     1.9999949100
NI      4.9146000000     4.2561684490     1.9999949100
NI      6.1432500000     6.3842526740     1.9999949100
NI      4.9146000000     0.0000000000     1.9999949100
NI      6.1432500000     2.1280842250     1.9999949100
NI      7.3719000000     4.2561684490     1.9999949100
NI      8.6005500000     6.3842526740     1.9999949100
NI      7.3719000000     0.0000000000     1.9999949100
NI      8.6005500000     2.1280842250     1.9999949100
NI      9.8292000000     4.2561684490     1.9999949100
NI     11.0578500000     6.3842526740     1.9999949100
NI      1.2291089714     0.7121973916     4.0192560828
NI      2.4534983067     2.8377921138     4.0167804040
NI      3.6855427709     4.9658171488     4.0137968412
NI      4.9148204552     7.0947196401     4.0179277691
NI      3.6845390900     0.7094421696     4.0172981585
NI      4.9110844772     2.8365645224     4.0038039045
NI      6.1452502317     4.9684183493     4.0150483359
NI      7.3729674565     7.0962574964     4.0127484007
NI      6.1423099715     0.7095542554     4.0142895501
NI      7.3752837359     2.8385474908     4.0125853080
NI      8.6005573018     4.9661579790     4.0189547355
NI      9.8284222940     7.0929615063     4.0207403029
NI      8.6032772333     0.7095811278     4.0157537518
NI      9.8332517075     2.8379176273     4.0116681708
NI     11.0571180203     4.9651500284     4.0178256714
NI     12.2863169376     7.0936017295     4.0195311317
NI      2.4543674081     1.4173232877     6.0260899300
NI      3.6830707883     3.5437039799     6.0101866801
NI      4.9161938031     5.6678517482     6.0219640636
NI      6.1447034551     7.8043432712     6.0188945474
NI      4.9119186361     1.4193707109     6.0120724642
NI      6.1495975789     3.5501302885     6.0068592525
NI      7.3711382904     5.6583418484     6.0314476564
NI      8.5953301311     7.8005451483     6.0263937925
NI      7.3797349994     1.4158149504     6.0057089688
NI      8.5990354648     3.5496614142     6.0253987811
NI      9.8267408732     5.6718411024     6.0308735035
NI     11.0559986733     7.8030426730     6.0235667168
NI      9.8292058968     1.4200035758     6.0277587752
NI     11.0530260820     3.5449137423     6.0319133405
NI     12.2874010927     5.6747203699     6.0236674129
NI     13.5191011404     7.8027486705     6.0233246674
NI      0.0015516053    -0.0033660713     8.0717327860
NI      1.2286548091     2.1209588213     8.0682807113
NI      2.4346197612     4.2591908619     8.0449149374
NI      3.6815262988     6.3972320108     8.0535394619
NI      2.4514240718    -0.0021142894     8.0715915434
NI      3.6604194995     2.0954475927     8.0382017438
NI      4.8970991610     4.2148980760     8.0567580440
NI      6.1468296400     6.4047341699     8.0263803776
NI      4.9063906273    -0.0206805165     8.0528397040
NI      6.1503869884     2.0817794154     7.9813224802
NI      7.3917051485     4.2052562619     8.1492076123
NI      8.6023044571     6.3926379551     8.0522088049
NI      7.3809651124    -0.0204697785     8.0482570738
NI      8.6183334442     2.1047069789     8.0444099078
NI      9.8394431369     4.2574373739     8.0729902657
NI     11.0590281007     6.3869603616     8.0697540710
C       6.1158957421     3.4091321201    10.7541604274
C       6.0125213900     1.8911513592    10.8372813126
C       7.3498190512     4.0708817682    10.1117794039
O       4.9702071534     4.0516242454    10.2185931038
O       4.6981691754     1.4362354848    11.1539660945
O       8.6338655809     3.7895741005    10.7450365218
H       5.2768123001     4.9823050385    10.0484957760
H       4.1039783748     2.1876319452    11.2651908420
H       6.6940985877     1.4230565566    11.5925161708
H       6.3369462677     1.4311615524     9.8590999724
H       7.2112167864     5.1607646481    10.2639169783
H       6.0933571359     3.7554434020    11.7844900913
H       8.6551992899     4.2072050027    11.6301802371
77
Step 7 | ATOMIC_POSITIONS (angstrom) | Cartesian Angstrom
NI      0.0000000000     0.0000000000     1.9999949100
NI      1.2286500000     2.1280842250     1.9999949100
NI      2.4573000000     4.2561684490     1.9999949100
NI      3.6859500000     6.3842526740     1.9999949100
NI      2.4573000000     0.0000000000     1.9999949100
NI      3.6859500000     2.1280842250     1.9999949100
NI      4.9146000000     4.2561684490     1.9999949100
NI      6.1432500000     6.3842526740     1.9999949100
NI      4.9146000000     0.0000000000     1.9999949100
NI      6.1432500000     2.1280842250     1.9999949100
NI      7.3719000000     4.2561684490     1.9999949100
NI      8.6005500000     6.3842526740     1.9999949100
NI      7.3719000000     0.0000000000     1.9999949100
NI      8.6005500000     2.1280842250     1.9999949100
NI      9.8292000000     4.2561684490     1.9999949100
NI     11.0578500000     6.3842526740     1.9999949100
NI      1.2291216167     0.7120357019     4.0194621905
NI      2.4535780775     2.8378000333     4.0173812106
NI      3.6855081492     4.9659128714     4.0144153556
NI      4.9148349384     7.0945795733     4.0186487143
NI      3.6842829993     0.7092007791     4.0175529561
NI      4.9116705272     2.8369366421     4.0048222294
NI      6.1453084248     4.9680859896     4.0159628846
NI      7.3729347734     7.0959006493     4.0138606779
NI      6.1423701262     0.7093519169     4.0145175710
NI      7.3750797854     2.8389489537     4.0137918617
NI      8.6006209638     4.9660152355     4.0200045270
NI      9.8284148569     7.0929440872     4.0213643360
NI      8.6035646004     0.7094154620     4.0158638692
NI      9.8328524297     2.8380466103     4.0127703688
NI     11.0570779286     4.9652050183     4.0186746485
NI     12.2863338169     7.0936116887     4.0201653105
NI      2.4540580466     1.4171659764     6.0267556476
NI      3.6840240621     3.5441899298     6.0131468830
NI      4.9159641647     5.6668345729     6.0244709043
NI      6.1447113364     7.8039178939     6.0201558195
NI      4.9118113212     1.4190089575     6.0118948505
NI      6.1484071704     3.5499848289     6.0095730907
NI      7.3713379053     5.6589695483     6.0319208844
NI      8.5952047609     7.8004141054     6.0271965481
NI      7.3797177631     1.4156496959     6.0059847362
NI      8.5991351493     3.5492624043     6.0264897728
NI      9.8269245471     5.6718421581     6.0317309707
NI     11.0560454191     7.8030009107     6.0243943273
NI      9.8293743794     1.4197247514     6.0283121376
NI     11.0529861720     3.5447873210     6.0323521979
NI     12.2872783164     5.6747161698     6.0243339330
NI     13.5191934810     7.8026537854     6.0239251693
NI      0.0018733114    -0.0042532749     8.0717795203
NI      1.2286042709     2.1210475912     8.0687823609
NI      2.4369802044     4.2586436627     8.0455006606
NI      3.6826849977     6.3946746949     8.0541730021
NI      2.4511573597    -0.0031065847     8.0715764801
NI      3.6616999620     2.0968682124     8.0387304157
NI      4.8962354322     4.2154363941     8.0566716292
NI      6.1457246696     6.4014934636     8.0286677716
NI      4.9063836585    -0.0205316120     8.0530053492
NI      6.1502179428     2.0822052394     7.9844748774
NI      7.3912427969     4.2055743823     8.1520048314
NI      8.6020442069     6.3913616863     8.0527161377
NI      7.3806554707    -0.0201309985     8.0483825724
NI      8.6175052887     2.1052478952     8.0453754285
NI      9.8382850042     4.2566884953     8.0740431269
NI     11.0589458878     6.3863578103     8.0701011658
C       6.1404231878     3.4100210550    10.7765547681
C       6.0083557657     1.8877211982    10.8363083686
C       7.3615178647     4.0747830117    10.1145701286
O       4.9707700537     4.0526327222    10.2021976903
O       4.7007397054     1.4323194047    11.1534801065
O       8.6226819932     3.7816690063    10.7405519565
H       5.2722186677     4.9850008541    10.0524230658
H       4.1022654673     2.1917363303    11.2625066005
H       6.6936883807     1.4350515937    11.5843937795
H       6.3355883726     1.4305189647     9.8584682014
H       7.2019306415     5.1586613608    10.2681936641