77
Step 1 | ATOMIC_POSITIONS (angstrom) | Cartesian Angstrom
NI      0.0000000000     0.0000000000     1.9999949100
NI      1.2286500000     2.1280842250     1.9999949100
NI      2.4573000000     4.2561684490     1.9999949100
NI      3.6859500000     6.3842526740     1.9999949100
NI      2.4573000000     0.0000000000     1.9999949100
NI      3.6859500000     2.1280842250     1.9999949100
NI      4.9146000000     4.2561684490     1.9999949100
NI      6.1432500000     6.3842526740     1.9999949100
NI      4.9146000000     0.0000000000     1.9999949100
NI      6.1432500000     2.1280842250     1.9999949100
NI      7.3719000000     4.2561684490     1.9999949100
NI      8.6005500000     6.3842526740     1.9999949100
NI      7.3719000000     0.0000000000     1.9999949100
NI      8.6005500000     2.1280842250     1.9999949100
NI      9.8292000000     4.2561684490     1.9999949100
NI     11.0578500000     6.3842526740     1.9999949100
NI      1.2288312295     0.7093252903     4.0084591912
NI      2.4573420573     2.8375950513     4.0086494978
NI      3.6859300212     4.9653412803     4.0085507678
NI      4.9146564833     7.0937800022     4.0087967154
NI      3.6858569360     0.7094136306     4.0087567224
NI      4.9144156161     2.8373213871     4.0078040776
NI      6.1434880533     4.9652407836     4.0094689331
NI      7.3721605677     7.0943099703     4.0073065975
NI      6.1433081066     0.7093605756     4.0087562616
NI      7.3720635544     2.8377457417     4.0092008807
NI      8.6003918644     4.9655194945     4.0090416467
NI      9.8290561230     7.0934700723     4.0087778172
NI      8.6005979668     0.7093378263     4.0084119433
NI      9.8295707905     2.8372437877     4.0073874325
NI     11.0579068057     4.9654277169     4.0085910905
NI     12.2864903259     7.0936894308     4.0089969495
NI      2.4571458188     1.4187251534     6.0124554833
NI      3.6869213607     3.5473078547     6.0133419178
NI      4.9146758809     5.6750967838     6.0108433406
NI      6.1433788276     7.8023491325     6.0126060044
NI      4.9147731956     1.4189000367     6.0111003012
NI      6.1430696693     3.5467018162     6.0083848464
NI      7.3721962302     5.6732986345     6.0111357326
NI      8.6003402484     7.8025781374     6.0126692518
NI      7.3719937292     1.4192581182     6.0121862301
NI      8.6001985327     3.5474697869     6.0087905499
NI      9.8287259526     5.6741212050     6.0120025400
NI     11.0578501774     7.8031547784     6.0116343017
NI      9.8283981911     1.4194972586     6.0126445126
NI     11.0569699826     3.5470732249     6.0123867690
NI     12.2863905761     5.6748147646     6.0114024447
NI     13.5152444317     7.8029506744     6.0118254739
NI     -0.0005603438    -0.0006433084     8.0249444164
NI      1.2303264370     2.1269334336     8.0255767467
NI      2.4589159866     4.2558322940     8.0239757585
NI      3.6852848589     6.3849538439     8.0247898855
NI      2.4575574801     0.0000175463     8.0252957678
NI      3.6826266863     2.1286198742     8.0221970763
NI      4.9122859305     4.2593344013     8.0130385785
NI      6.1425938044     6.3878080238     8.0230647992
NI      4.9136026315    -0.0027584581     8.0221532083
NI      6.1418739818     2.1263060096     8.0174151260
NI      7.3701598711     4.2482944250     8.0612471195
NI      8.6012588607     6.3880375611     8.0233506557
NI      7.3731241378    -0.0023141547     8.0224462006
NI      8.6028223224     2.1262684675     8.0272903785
NI      9.8299374279     4.2556408766     8.0414720393
NI     11.0585786654     6.3853759869     8.0250595996
C       6.1899474061     3.3475901993    10.9496580957
C       5.9578807703     1.9069299178    10.7934672992
C       7.2475008971     3.9527420355    10.0047821820
O       5.1238305485     4.2730475888    10.6311673283
O       5.0113058311     1.3237824477    11.6351257440
O       9.3265939411     3.8404808847    10.7810502946
H       4.5606616337     3.7593637992     9.9416619594
H       4.7638913168     2.0044567632    12.2889020980
H       6.8811778261     1.3417715351    10.8403706324
H       5.6337299739     1.6338607791     9.7033010250
H       6.9994604480     4.9032735163    10.5275785781
H       6.6530765861     3.7260185801    11.9159562862
H       8.0370979176     4.1768727040    11.1261760017
77
Step 2 | ATOMIC_POSITIONS (angstrom) | Cartesian Angstrom
NI      0.0000000000     0.0000000000     1.9999949100
NI      1.2286500000     2.1280842250     1.9999949100
NI      2.4573000000     4.2561684490     1.9999949100
NI      3.6859500000     6.3842526740     1.9999949100
NI      2.4573000000     0.0000000000     1.9999949100
NI      3.6859500000     2.1280842250     1.9999949100
NI      4.9146000000     4.2561684490     1.9999949100
NI      6.1432500000     6.3842526740     1.9999949100
NI      4.9146000000     0.0000000000     1.9999949100
NI      6.1432500000     2.1280842250     1.9999949100
NI      7.3719000000     4.2561684490     1.9999949100
NI      8.6005500000     6.3842526740     1.9999949100
NI      7.3719000000     0.0000000000     1.9999949100
NI      8.6005500000     2.1280842250     1.9999949100
NI      9.8292000000     4.2561684490     1.9999949100
NI     11.0578500000     6.3842526740     1.9999949100
NI      1.2290142800     0.7093090463     4.0102337149
NI      2.4573825355     2.8377331670     4.0106063105
NI      3.6859216324     4.9651459539     4.0103107272
NI      4.9147429260     7.0939710185     4.0107712273
NI      3.6857724642     0.7094498860     4.0107226477
NI      4.9141873614     2.8371608236     4.0087119535
NI      6.1437343936     4.9650265490     4.0120375047
NI      7.3724326000     7.0949876693     4.0079063259
NI      6.1433688236     0.7093676744     4.0106932410
NI      7.3722713176     2.8379702029     4.0115063141
NI      8.6002639750     4.9655484914     4.0112510549
NI      9.8289202113     7.0933392682     4.0107851541
NI      8.6006711901     0.7093368150     4.0100834632
NI      9.8299862622     2.8370215951     4.0079959073
NI     11.0579550189     4.9653291326     4.0104068318
NI     12.2864792208     7.0937576835     4.0111693557
NI      2.4569638348     1.4186810576     6.0121043274
NI      3.6877063654     3.5476851804     6.0134712106
NI      4.9147946215     5.6754872727     6.0087691879
NI      6.1435385769     7.8018098647     6.0123797172
NI      4.9147852408     1.4190050721     6.0092404298
NI      6.1433253333     3.5468577713     6.0047697181
NI      7.3724232913     5.6713420562     6.0103886461
NI      8.6000622454     7.8022088873     6.0125248503
NI      7.3721946994     1.4198144555     6.0115578930
NI      8.5997242431     3.5483088436     6.0061660386
NI      9.8282597426     5.6731437978     6.0117664495
NI     11.0578379471     7.8033047690     6.0104788837
NI      9.8276655482     1.4202654130     6.0126024845
NI     11.0558905691     3.5474146003     6.0126022709
NI     12.2862496211     5.6747372338     6.0101535120
NI     13.5153561169     7.8029182802     6.0109691351
NI     -0.0010757906    -0.0012096544     8.0301586202
NI      1.2319310711     2.1257343897     8.0312384900
NI      2.4603616423     4.2555882663     8.0282206618
NI      3.6846509679     6.3856767391     8.0298549235
NI      2.4577369605     0.0001027711     8.0308566259
NI      3.6796501393     2.1292094945     8.0249816798
NI      4.9100437132     4.2621548575     8.0076550605
NI      6.1420337825     6.3909997377     8.0263558243
NI      4.9127170427    -0.0052349721     8.0247574115
NI      6.1401097297     2.1241521679     8.0158602629
NI      7.3689618619     4.2407748788     8.0997555464
NI      8.6017974434     6.3914428043     8.0269076183
NI      7.3743274389    -0.0045271742     8.0251127453
NI      8.6051045514     2.1243079355     8.0343937333
NI      9.8304275405     4.2552218705     8.0627857181
NI     11.0593122650     6.3863278160     8.0302963053
C       6.2127664467     3.3334944477    10.9356441812
C       5.9630427230     1.8877199338    10.8153274877
C       7.2694249448     3.9801158192     9.9933222333
O       5.1037567173     4.2628944563    10.6599877389
O       4.9988664053     1.3200888079    11.6422538144
O       9.2353960460     3.8533642572    10.7768289816
H       4.5480962041     3.7580478933     9.9369546085
H       4.7573017170     2.0039116216    12.2921684615
H       6.8917830143     1.3483520256    10.8437861442
H       5.6267471889     1.6434814337     9.7006749445
H       7.0269136181     4.9413071802    10.4942302279
H       6.6221714863     3.7001591086    11.9268090093
H       8.1328177343     4.1641084262    11.0966170076
