144
Step 1 | ATOMIC_POSITIONS (angstrom) | Cartesian Angstrom
NI      0.0000000000     0.0000000000     1.5000000000
NI     15.9724448650     2.1280835410     1.5000000000
NI     17.2010944700     4.2561670810     1.5000000000
NI      3.6859488150     6.3842506220     1.5000000000
NI     19.6583936800     8.5123341620     1.5000000000
NI     20.8870432850    10.6404177020     1.5000000000
NI      2.4572992100     0.0000000000     1.5000000000
NI      3.6859488160     2.1280835410     1.5000000000
NI      4.9145984200     4.2561670810     1.5000000000
NI      6.1432480250     6.3842506220     1.5000000000
NI      7.3718976300     8.5123341620     1.5000000000
NI      8.6005472350    10.6404177020     1.5000000000
NI      4.9145984200     0.0000000000     1.5000000000
NI      6.1432480250     2.1280835410     1.5000000000
NI      7.3718976300     4.2561670810     1.5000000000
NI      8.6005472350     6.3842506220     1.5000000000
NI      9.8291968400     8.5123341620     1.5000000000
NI     11.0578464450    10.6404177020     1.5000000000
NI      7.3718976300     0.0000000000     1.5000000000
NI      8.6005472350     2.1280835410     1.5000000000
NI      9.8291968400     4.2561670810     1.5000000000
NI     11.0578464450     6.3842506220     1.5000000000
NI     12.2864960500     8.5123341620     1.5000000000
NI     13.5151456550    10.6404177020     1.5000000000
NI      9.8291968400     0.0000000000     1.5000000000
NI     11.0578464450     2.1280835410     1.5000000000
NI     12.2864960500     4.2561670810     1.5000000000
NI     13.5151456550     6.3842506220     1.5000000000
NI     14.7437952600     8.5123341620     1.5000000000
NI     15.9724448650    10.6404177020     1.5000000000
NI     12.2864960500     0.0000000000     1.5000000000
NI     13.5151456550     2.1280835410     1.5000000000
NI     14.7437952600     4.2561670810     1.5000000000
NI     15.9724448650     6.3842506220     1.5000000000
NI     17.2010944700     8.5123341620     1.5000000000
NI     18.4297440740    10.6404177020     1.5000000000
NI      1.2286400881     0.7093556858     3.5059921401
NI      2.4572814677     2.8374360308     3.5059919209
NI      3.6859316487     4.9655303178     3.5059925509
NI      4.9145880561     7.0936256409     3.5059925509
NI      6.1432466789     9.2217150518     3.5059919209
NI      7.3718976310    11.3497898733     3.5059921401
NI      3.6859324188     0.7093501604     3.5059919209
NI      4.9145838402     2.8374363023     3.5059914845
NI      6.1432407388     4.9655324677     3.5059919417
NI      7.3718976300     7.0936286373     3.5059914845
NI      8.6005485811     9.2217150518     3.5059919209
NI      9.8291892449    11.3497832680     3.5059925032
NI      6.1432412226     0.7093452853     3.5059925509
NI      7.3718976300     2.8374363066     3.5059919417
NI      8.6005545212     4.9655324677     3.5059919417
NI      9.8292072049     7.0936256409     3.5059925509
NI     11.0578509198     9.2217042542     3.5059946832
NI     12.2864905692    11.3497705516     3.5059946832
NI      8.6005540384     0.7093452853     3.5059925509
NI      9.8292114198     2.8374363023     3.5059914845
NI     11.0578636133     4.9655303178     3.5059925509
NI     12.2865085030     7.0936189912     3.5059962283
NI     13.5151487472     9.2216935567     3.5059990256
NI     14.7437952610    11.3497645047     3.5059962283
NI     11.0578628412     0.7093501604     3.5059919209
NI     12.2865137923     2.8374360308     3.5059919209
NI     13.5151556106     4.9655276802     3.5059946832
NI     14.7437952600     7.0936153725     3.5059990256
NI     15.9724417728     9.2216935567     3.5059990256
NI     17.2010999508    11.3497705516     3.5059946832
NI     13.5151551729     0.7093556858     3.5059921401
NI     14.7437952600     2.8374359499     3.5059925032
NI     15.9724349094     4.9655276802     3.5059946832
NI     17.2010820180     7.0936189912     3.5059962283
NI     18.4297396002     9.2217042542     3.5059946832
NI     19.6584012751    11.3497832680     3.5059925032
NI      2.4572831006     1.4187130592     5.5131380978
NI      3.6859317066     3.5468017348     5.5131413048
NI      4.9145860629     5.6748965754     5.5131430375
NI      6.1432430788     7.8029898814     5.5131413048
NI      7.3718976300     9.9310751245     5.5131380978
NI      8.6005409203    12.0591437088     5.5131366850
NI      4.9145862578     1.4187096268     5.5131413048
NI      6.1432414623     3.5468021120     5.5131446261
NI      7.3718976300     5.6748970190     5.5131446261
NI      8.6005521812     7.8029898814     5.5131413048
NI      9.8291982197     9.9310680281     5.5131388628
NI     11.0578371711    12.0591331156     5.5131388628
NI      7.3718976290     1.4187080912     5.5131430375
NI      8.6005537977     3.5468021120     5.5131446261
NI      9.8292091961     5.6748965754     5.5131430375
NI     11.0578596150     7.8029841363     5.5131414010
NI     12.2865002995     9.9310540695     5.5131411274
NI     13.5151425795    12.0591230794     5.5131414010
NI      9.8292090022     1.4187096268     5.5131413048
NI     11.0578635534     3.5468017348     5.5131413048
NI     12.2865122954     5.6748952702     5.5131414010
NI     13.5151538375     7.8029777062     5.5131424213
NI     14.7437952600     9.9310470747     5.5131424213
NI     15.9724479395    12.0591230794     5.5131414010
NI     12.2865121594     1.4187130592     5.5131380978
NI     13.5151563086     3.5468013433     5.5131388628
NI     14.7437952600     5.6748943479     5.5131411274
NI     15.9724366825     7.8029777062     5.5131424213
NI     17.2010902205     9.9310540695     5.5131411274
NI     18.4297533489    12.0591331156     5.5131388628
NI     14.7437952590     1.4187150684     5.5131366850
NI     15.9724342114     3.5468013433     5.5131388628
NI     17.2010782236     5.6748952702     5.5131414010
NI     18.4297309030     7.8029841363     5.5131414010
NI     19.6583923003     9.9310680281     5.5131388628
NI     20.8870495987    12.0591437088     5.5131366850
NI      0.0000000000     0.0000000000     7.5199897380
NI     15.9724365712     2.1280772048     7.5199932429
NI     17.2010812022     4.2561672080     7.5199985704
NI      3.6859359082     6.3842580737     7.5200005931
NI     19.6583869361     8.5123455888     7.5199985704
NI     20.8870446254    10.6404280527     7.5199932429
NI      2.4572895758    -0.0000040145     7.5199932429
NI      3.6859359692     2.1280761239     7.5200003374
NI      4.9145892305     4.2561672082     7.5200054502
NI      6.1432433201     6.3842585167     7.5200054502
NI      7.3718976300     8.5123489962     7.5200003374
NI      8.6005458946    10.6404280527     7.5199932429
NI      4.9145918961    -0.0000115538     7.5199985704
NI      6.1432435404     2.1280755191     7.5200054502
NI      7.3718976300     4.2561670810     7.5200080866
NI      8.6005519399     6.3842585167     7.5200054502
NI      9.8292035839     8.5123455888     7.5199985704
NI     11.0578466189    10.6404176016     7.5199943041
NI      7.3718976300    -0.0000149035     7.5200005931
NI      8.6005517196     2.1280755191     7.5200054502
NI      9.8292060295     4.2561672082     7.5200054502
NI     11.0578593518     6.3842580737     7.5200005931
NI     12.2865057488     8.5123380202     7.5199940460
NI     13.5151471631    10.6404073735     7.5199940460
NI      9.8292033639    -0.0000115538     7.5199985704
NI     11.0578592918     2.1280761239     7.5200003374
NI     12.2865093178     4.2561672080     7.5199985704
NI     13.5151538457     6.3842570923     7.5199940460
NI     14.7437952600     8.5123341620     7.5199913034
NI     15.9724433569    10.6404073735     7.5199940460
NI     12.2865056842    -0.0000040145     7.5199932429
NI     13.5151539488     2.1280772048     7.5199932429
NI     14.7437952600     4.2561672818     7.5199943041
NI     15.9724366743     6.3842570923     7.5199940460
NI     17.2010847712     8.5123380202     7.5199940460
NI     18.4297439001    10.6404176016     7.5199943041
144
Step 2 | ATOMIC_POSITIONS (angstrom) | Cartesian Angstrom
NI      0.0000000000     0.0000000000     1.5000000000
NI     15.9724448650     2.1280835410     1.5000000000
NI     17.2010944700     4.2561670810     1.5000000000
NI      3.6859488150     6.3842506220     1.5000000000
NI     19.6583936800     8.5123341620     1.5000000000
NI     20.8870432850    10.6404177020     1.5000000000
NI      2.4572992100     0.0000000000     1.5000000000
NI      3.6859488160     2.1280835410     1.5000000000
NI      4.9145984200     4.2561670810     1.5000000000
NI      6.1432480250     6.3842506220     1.5000000000
NI      7.3718976300     8.5123341620     1.5000000000
NI      8.6005472350    10.6404177020     1.5000000000
NI      4.9145984200    -0.0000000000     1.5000000000
NI      6.1432480250     2.1280835410     1.5000000000
NI      7.3718976300     4.2561670810     1.5000000000
NI      8.6005472350     6.3842506220     1.5000000000
NI      9.8291968400     8.5123341620     1.5000000000
NI     11.0578464450    10.6404177020     1.5000000000
NI      7.3718976300     0.0000000000     1.5000000000
NI      8.6005472350     2.1280835410     1.5000000000
NI      9.8291968400     4.2561670810     1.5000000000
NI     11.0578464450     6.3842506220     1.5000000000
NI     12.2864960500     8.5123341620     1.5000000000
NI     13.5151456550    10.6404177020     1.5000000000
NI      9.8291968400     0.0000000000     1.5000000000
NI     11.0578464450     2.1280835410     1.5000000000
NI     12.2864960500     4.2561670810     1.5000000000
NI     13.5151456550     6.3842506220     1.5000000000
NI     14.7437952600     8.5123341620     1.5000000000
NI     15.9724448650    10.6404177020     1.5000000000
NI     12.2864960500    -0.0000000000     1.5000000000
NI     13.5151456550     2.1280835410     1.5000000000
NI     14.7437952600     4.2561670810     1.5000000000
NI     15.9724448650     6.3842506220     1.5000000000
NI     17.2010944700     8.5123341620     1.5000000000
NI     18.4297440740    10.6404177020     1.5000000000
NI      1.2286283929     0.7093489336     3.5056551235
NI      2.4572732862     2.8374137696     3.5056572570
NI      3.6859388294     4.9655127556     3.5056609685
NI      4.9146068558     7.0936282033     3.5056609685
NI      6.1432618669     9.2217332678     3.5056572570
NI      7.3718976310    11.3498033778     3.5056551235
NI      3.6859090493     0.7093542055     3.5056572570
NI      4.9145757135     2.8374316104     3.5056605737
NI      6.1432440380     4.9655305629     3.5056631980
NI      7.3718976300     7.0936380212     3.5056605737
NI      8.6005333931     9.2217332678     3.5056572570
NI      9.8291623027    11.3497988231     3.5056562379
NI      6.1432296037     0.7093602851     3.5056609685
NI      7.3718976300     2.8374401162     3.5056631980
NI      8.6005512220     4.9655305629     3.5056631980
NI      9.8291884052     7.0936282033     3.5056609685
NI     11.0578202001     9.2217178786     3.5056607765
NI     12.2864634103    11.3497903435     3.5056607765
NI      8.6005656573     0.7093602851     3.5056609685
NI      9.8292195465     2.8374316104     3.5056605737
NI     11.0578564326     4.9655127556     3.5056609685
NI     12.2864895688     7.0936080595     3.5056637224
NI     13.5151335267     9.2217023443     3.5056661716
NI     14.7437952610    11.3497863680     3.5056637224
NI     11.0578862107     0.7093542055     3.5056572570
NI     12.2865219738     2.8374137696     3.5056572570
NI     13.5151520498     4.9654942639     3.5056607765
NI     14.7437952600     7.0935977974     3.5056661716
NI     15.9724569933     9.2217023443     3.5056661716
NI     17.2011271097    11.3497903435     3.5056607765
NI     13.5151668681     0.7093489336     3.5056551235
NI     14.7437952600     2.8374048398     3.5056562379
NI     15.9724384702     4.9654942639     3.5056607765
NI     17.2011009522     7.0936080595     3.5056637224
NI     18.4297703199     9.2217178786     3.5056607765
NI     19.6584282173    11.3497988231     3.5056562379
NI      2.4572696480     1.4187052923     5.5135761440
NI      3.6859312586     3.5467874741     5.5135855805
NI      4.9145980202     5.6748896718     5.5135908580
NI      6.1432552050     7.8029973998     5.5135855805
NI      7.3718976300     9.9310906583     5.5135761440
NI      8.6005278367    12.0591512626     5.5135720343
NI      4.9145736836     1.4187163692     5.5135855805
NI      6.1432413484     3.5468020463     5.5135931080
NI      7.3718976300     5.6748971504     5.5135931080
NI      8.6005400550     7.8029973998     5.5135855805
NI      9.8291733785     9.9310829591     5.5135796766
NI     11.0578118199    12.0591471632     5.5135796766
NI      7.3718976290     1.4187218983     5.5135908580
NI      8.6005539116     3.5468020463     5.5135931080
NI      9.8291972388     5.6748896718     5.5135908580
NI     11.0578354017     7.8029843458     5.5135883516
NI     12.2864758419     9.9310681901     5.5135879290
NI     13.5151302915    12.0591439440     5.5135883516
NI      9.8292215764     1.4187163692     5.5135855805
NI     11.0578640014     3.5467874741     5.5135855805
NI     12.2865003702     5.6748741962     5.5135883516
NI     13.5151418790     7.8029708019     5.5135921546
NI     14.7437952600     9.9310608831     5.5135921546
NI     15.9724602275    12.0591439440     5.5135883516
NI     12.2865256120     1.4187052923     5.5135761440
NI     13.5151568186     3.5467723647     5.5135796766
NI     14.7437952600     5.6748661068     5.5135879290
NI     15.9724486410     7.8029708019     5.5135921546
NI     17.2011146781     9.9310681901     5.5135879290
NI     18.4297787001    12.0591471632     5.5135796766
NI     14.7437952590     1.4186999608     5.5135720343
NI     15.9724337014     3.5467723647     5.5135796766
NI     17.2010901488     5.6748741962     5.5135883516
NI     18.4297551163     7.8029843458     5.5135883516
NI     19.6584171415     9.9310829591     5.5135796766
NI     20.8870626823    12.0591512626     5.5135720343
NI      0.0000000000     0.0000000000     7.5209254997
NI     15.9724330316     2.1280627696     7.5209343656
NI     17.2010858011     4.2561492886     7.5209494431
NI      3.6859510341     6.3842493408     7.5209561863
NI     19.6584047542     8.5123505657     7.5209494431
NI     20.8870553569    10.6404383358     7.5209343656
NI      2.4572753047     0.0000001377     7.5209343656
NI      3.6859301381     2.1280727573     7.5209459484
NI      4.9145944871     4.2561613720     7.5209551356
NI      6.1432510027     6.3842568825     7.5209551356
NI      7.3718976300     8.5123557294     7.5209459484
NI      8.6005351631    10.6404383358     7.5209343656
NI      4.9145786769     0.0000013887     7.5209494431
NI      6.1432411144     2.1280829895     7.5209551356
NI      7.3718976300     4.2561670810     7.5209573203
NI      8.6005442573     6.3842568825     7.5209551356
NI      9.8291857658     8.5123505657     7.5209494431
NI     11.0578257237    10.6404296654     7.5209457261
NI      7.3718976300     0.0000025624     7.5209561863
NI      8.6005541456     2.1280829895     7.5209551356
NI      9.8292007729     4.2561613720     7.5209551356
NI     11.0578442259     6.3842493408     7.5209561863
NI     12.2864882631     8.5123396078     7.5209555531
NI     13.5151370454    10.6404217228     7.5209555531
NI      9.8292165831     0.0000013887     7.5209494431
NI     11.0578651229     2.1280727573     7.5209459484
NI     12.2865047189     4.2561492886     7.5209494431
NI     13.5151464777     6.3842411554     7.5209555531
NI     14.7437952600     8.5123341620     7.5209580655
NI     15.9724534746    10.6404217228     7.5209555531
NI     12.2865199553     0.0000001377     7.5209343656
NI     13.5151574884     2.1280627696     7.5209343656
NI     14.7437952600     4.2561431541     7.5209457261
NI     15.9724440423     6.3842411554     7.5209555531
NI     17.2011022569     8.5123396078     7.5209555531
NI     18.4297647953    10.6404296654     7.5209457261
