100
Step 1 | ATOMIC_POSITIONS (angstrom) | Cartesian Angstrom
NI      0.0000000000     0.0000000000     1.1900000730
NI      1.2286496050     2.1280835410     1.1900000730
NI      2.4572992100     4.2561670810     1.1900000730
NI      3.6859488150     6.3842506220     1.1900000730
NI      4.9145984200     8.5123341620     1.1900000730
NI      2.4572992100     0.0000000000     1.1900000730
NI      3.6859488150     2.1280835410     1.1900000730
NI      4.9145984200     4.2561670810     1.1900000730
NI      6.1432480250     6.3842506220     1.1900000730
NI      7.3718976300     8.5123341620     1.1900000730
NI      4.9145984200     0.0000000000     1.1900000730
NI      6.1432480250     2.1280835410     1.1900000730
NI      7.3718976300     4.2561670810     1.1900000730
NI      8.6005472350     6.3842506220     1.1900000730
NI      9.8291968400     8.5123341620     1.1900000730
NI      7.3718976300     0.0000000000     1.1900000730
NI      8.6005472350     2.1280835410     1.1900000730
NI      9.8291968400     4.2561670810     1.1900000730
NI     11.0578464450     6.3842506220     1.1900000730
NI     12.2864960500     8.5123341620     1.1900000730
NI      9.8291968400     0.0000000000     1.1900000730
NI     11.0578464450     2.1280835410     1.1900000730
NI     12.2864960500     4.2561670810     1.1900000730
NI     13.5151456550     6.3842506220     1.1900000730
NI     14.7437952600     8.5123341620     1.1900000730
NI      1.2286462228     0.7093592280     3.1960520567
NI      2.4572911805     2.8374384440     3.1960568646
NI      3.6859437062     4.9655312818     3.1960588299
NI      4.9145998821     7.0936219646     3.1960568646
NI      6.1432480860     9.2216993539     3.1960520567
NI      3.6859393644     0.7093573654     3.1960568646
NI      4.9145900556     2.8374398916     3.1960582533
NI      6.1432480860     4.9655380258     3.1960582533
NI      7.3718962499     7.0936219646     3.1960568646
NI      8.6005421185     9.2216983672     3.1960563235
NI      6.1432480860     0.7093552464     3.1960588299
NI      7.3719061164     2.8374398916     3.1960582533
NI      8.6005524658     4.9655312818     3.1960588299
NI      9.8291913496     7.0936163064     3.1960609792
NI     11.0578398394     9.2216979161     3.1960609792
NI      8.6005567666     0.7093573654     3.1960568646
NI      9.8292049505     2.8374384440     3.1960568646
NI     11.0578476002     4.9655212545     3.1960609792
NI     12.2864960500     7.0936118020     3.1960638155
NI     13.5151523416     9.2216979161     3.1960609792
NI     11.0578499492     0.7093592280     3.1960520567
NI     12.2864961110     2.8374387775     3.1960563235
NI     13.5151445808     4.9655212545     3.1960609792
NI     14.7438008324     7.0936163064     3.1960609792
NI     15.9724501035     9.2216983672     3.1960563235
NI      2.4572963707     1.4187207209     5.2030545447
NI      3.6859408066     3.5468047422     5.2030585634
NI      4.9145953789     5.6748968854     5.2030585634
NI      6.1432479640     7.8029761551     5.2030545447
NI      7.3718993500     9.9310554588     5.2030521401
NI      4.9145934127     1.4187160044     5.2030585634
NI      6.1432480250     3.5468059010     5.2030606013
NI      7.3719005901     5.6748968854     5.2030585634
NI      8.6005475259     7.8029758015     5.2030570399
NI      9.8291945034     9.9310547905     5.2030570399
NI      7.3719025563     1.4187160044     5.2030585634
NI      8.6005551614     3.5468047422     5.2030585634
NI      9.8291989921     5.6748906837     5.2030606258
NI     11.0578440495     7.8029742948     5.2030617263
NI     12.2864959890     9.9310539315     5.2030606258
NI      9.8291995573     1.4187207209     5.2030545447
NI     11.0578490315     3.5468047430     5.2030570399
NI     12.2864959890     5.6748867104     5.2030617263
NI     13.5151479285     7.8029742948     5.2030617263
NI     14.7437975156     9.9310547905     5.2030570399
NI     12.2864959890     1.4187243815     5.2030521401
NI     13.5151429865     3.5468047430     5.2030570399
NI     14.7437929859     5.6748906837     5.2030606258
NI     15.9724444931     7.8029758015     5.2030570399
NI     17.2010926280     9.9310554588     5.2030521401
NI      0.0000000000     0.0000000000     7.2096667141
NI      1.2286483400     2.1280859832     7.2096666831
NI      2.4572943919     4.2561688491     7.2096667893
NI      3.6859448747     6.3842539105     7.2096667893
NI      4.9145956725     8.5123340365     7.2096666831
NI      2.4573006925    -0.0000023167     7.2096666831
NI      3.6859445385     2.1280810719     7.2096676214
NI      4.9145936824     4.2561698163     7.2096688857
NI      6.1432480250     6.3842555601     7.2096676214
NI      7.3719003775     8.5123340365     7.2096666831
NI      4.9145975422    -0.0000050567     7.2096667893
NI      6.1432480250     2.1280780705     7.2096688857
NI      7.3719023676     4.2561698163     7.2096688857
NI      8.6005511753     6.3842539105     7.2096667893
NI      9.8291976044     8.5123337207     7.2096666495
NI      7.3718985078    -0.0000050567     7.2096667893
NI      8.6005515115     2.1280810719     7.2096676214
NI      9.8292016581     4.2561688491     7.2096667893
NI     11.0578464591     6.3842506302     7.2096671352
NI     12.2864960500     8.5123341457     7.2096671352
NI      9.8291953575    -0.0000023167     7.2096666831
NI     11.0578477100     2.1280859832     7.2096666831
NI     12.2864960500     4.2561679636     7.2096666495
NI     13.5151456409     6.3842506302     7.2096671352
NI     14.7437944956     8.5123337207     7.2096666495
100
Step 2 | ATOMIC_POSITIONS (angstrom) | Cartesian Angstrom
NI      0.0000000000     0.0000000000     1.1900000730
NI      1.2286496050     2.1280835410     1.1900000730
NI      2.4572992100     4.2561670810     1.1900000730
NI      3.6859488150     6.3842506220     1.1900000730
NI      4.9145984200     8.5123341620     1.1900000730
NI      2.4572992100     0.0000000000     1.1900000730
NI      3.6859488150     2.1280835410     1.1900000730
NI      4.9145984200     4.2561670810     1.1900000730
NI      6.1432480250     6.3842506220     1.1900000730
NI      7.3718976300     8.5123341620     1.1900000730
NI      4.9145984200     0.0000000000     1.1900000730
NI      6.1432480250     2.1280835410     1.1900000730
NI      7.3718976300     4.2561670810     1.1900000730
NI      8.6005472350     6.3842506220     1.1900000730
NI      9.8291968400     8.5123341620     1.1900000730
NI      7.3718976300     0.0000000000     1.1900000730
NI      8.6005472350     2.1280835410     1.1900000730
NI      9.8291968400     4.2561670810     1.1900000730
NI     11.0578464450     6.3842506220     1.1900000730
NI     12.2864960500     8.5123341620     1.1900000730
NI      9.8291968400     0.0000000000     1.1900000730
NI     11.0578464450     2.1280835410     1.1900000730
NI     12.2864960500     4.2561670810     1.1900000730
NI     13.5151456550     6.3842506220     1.1900000730
NI     14.7437952600     8.5123341620     1.1900000730
NI      1.2286510334     0.7093620055     3.1957745051
NI      2.4573011889     2.8374442230     3.1957826136
NI      3.6859499787     4.9655276604     3.1957863991
NI      4.9145998815     7.0936104075     3.1957826136
NI      6.1432480860     9.2216937991     3.1957745051
NI      3.6859493734     0.7093631434     3.1957826136
NI      4.9145972098     2.8374440220     3.1957836457
NI      6.1432480860     4.9655297649     3.1957836457
NI      7.3718962505     7.0936104075     3.1957826136
NI      8.6005482439     9.2216948307     3.1957822318
NI      6.1432480860     0.7093624893     3.1957863991
NI      7.3718989622     2.8374440220     3.1957836457
NI      8.6005461933     4.9655276604     3.1957863991
NI      9.8291937880     7.0936120088     3.1957923051
NI     11.0578447804     9.2216979532     3.1957923051
NI      8.6005467576     0.7093631434     3.1957826136
NI      9.8291949421     2.8374442230     3.1957826136
NI     11.0578450976     4.9655255150     3.1957923051
NI     12.2864960500     7.0936118020     3.1957992132
NI     13.5151474006     9.2216979532     3.1957923051
NI     11.0578451386     0.7093620055     3.1957745051
NI     12.2864961110     2.8374458505     3.1957822318
NI     13.5151470834     4.9655255150     3.1957923051
NI     14.7437983940     7.0936120088     3.1957923051
NI     15.9724439781     9.2216948307     3.1957822318
NI      2.4573062384     1.4187264180     5.2033669005
NI      3.6859478842     3.5468090653     5.2033703794
NI      4.9145951737     5.6748885945     5.2033703794
NI      6.1432479640     7.8029647609     5.2033669005
NI      7.3719051506     9.9310521098     5.2033645235
NI      4.9146006955     1.4187199722     5.2033703794
NI      6.1432480250     3.5468059010     5.2033704208
NI      7.3719007953     5.6748885945     5.2033703794
NI      8.6005560689     7.8029674320     5.2033720435
NI      9.8292060231     9.9310515768     5.2033720435
NI      7.3718952735     1.4187199722     5.2033703794
NI      8.6005480838     3.5468090653     5.2033703794
NI      9.8292016314     5.6748922075     5.2033772751
NI     11.0578504920     7.8029705752     5.2033811872
NI     12.2864959890     9.9310508840     5.2033772751
NI      9.8291896896     1.4187264180     5.2033669005
NI     11.0578460548     3.5468163262     5.2033720435
NI     12.2864959890     5.6748941495     5.2033811872
NI     13.5151414860     7.8029705752     5.2033811872
NI     14.7437859959     9.9310515768     5.2033720435
NI     12.2864959890     1.4187310795     5.2033645235
NI     13.5151459632     3.5468163262     5.2033720435
NI     14.7437903466     5.6748922075     5.2033772751
NI     15.9724359501     7.8029674320     5.2033720435
NI     17.2010868274     9.9310521098     5.2033645235
NI      0.0000000000     0.0000000000     7.2102604682
NI      1.2286527393     2.1280955588     7.2102588327
NI      2.4572957125     4.2561765176     7.2102547342
NI      3.6859388940     6.3842489326     7.2102547342
NI      4.9145895794     8.5123254387     7.2102588327
NI      2.4573111849    -0.0000032945     7.2102588327
NI      3.6859530328     2.1280859762     7.2102560035
NI      4.9145953056     4.2561688791     7.2102543988
NI      6.1432480250     6.3842457517     7.2102560035
NI      7.3719064706     8.5123254387     7.2102588327
NI      4.9146048436    -0.0000077472     7.2102547342
NI      6.1432480250     2.1280799448     7.2102543988
NI      7.3719007444     4.2561688791     7.2102543988
NI      8.6005571560     6.3842489326     7.2102547342
NI      9.8292090588     8.5123271075     7.2102558413
NI      7.3718912064    -0.0000077472     7.2102547342
NI      8.6005430172     2.1280859762     7.2102560035
NI      9.8292003375     4.2561765176     7.2102547342
NI     11.0578508837     6.3842531847     7.2102531787
NI     12.2864960500     8.5123290366     7.2102531787
NI      9.8291848651    -0.0000032945     7.2102588327
NI     11.0578433107     2.1280955588     7.2102588327
NI     12.2864960500     4.2561811901     7.2102558413
NI     13.5151412163     6.3842531847     7.2102531787
NI     14.7437830412     8.5123271075     7.2102558413
100
Step 3 | ATOMIC_POSITIONS (angstrom) | Cartesian Angstrom
NI      0.0000000000     0.0000000000     1.1900000730
NI      1.2286496050     2.1280835410     1.1900000730
NI      2.4572992100     4.2561670810     1.1900000730
NI      3.6859488150     6.3842506220     1.1900000730
NI      4.9145984200     8.5123341620     1.1900000730
NI      2.4572992100     0.0000000000     1.1900000730
NI      3.6859488150     2.1280835410     1.1900000730
NI      4.9145984200     4.2561670810     1.1900000730
NI      6.1432480250     6.3842506220     1.1900000730
NI      7.3718976300     8.5123341620     1.1900000730
NI      4.9145984200     0.0000000000     1.1900000730
NI      6.1432480250     2.1280835410     1.1900000730
NI      7.3718976300     4.2561670810     1.1900000730
NI      8.6005472350     6.3842506220     1.1900000730
NI      9.8291968400     8.5123341620     1.1900000730
NI      7.3718976300     0.0000000000     1.1900000730
NI      8.6005472350     2.1280835410     1.1900000730
NI      9.8291968400     4.2561670810     1.1900000730
NI     11.0578464450     6.3842506220     1.1900000730
NI     12.2864960500     8.5123341620     1.1900000730
NI      9.8291968400     0.0000000000     1.1900000730
NI     11.0578464450     2.1280835410     1.1900000730
NI     12.2864960500     4.2561670810     1.1900000730
NI     13.5151456550     6.3842506220     1.1900000730
NI     14.7437952600     8.5123341620     1.1900000730
NI      1.2286481895     0.7093603635     3.1955229002
NI      2.4572952003     2.8374405398     3.1955320617
NI      3.6859462374     4.9655298204     3.1955360875
NI      4.9146000770     7.0936174354     3.1955320617
NI      6.1432480860     9.2216970829     3.1955229002
NI      3.6859431893     0.7093597988     3.1955320617
NI      4.9145927490     2.8374414466     3.1955357868
NI      6.1432480860     4.9655349158     3.1955357868
NI      7.3718960550     7.0936174354     3.1955320617
NI      8.6005444909     9.2216969975     3.1955299637
NI      6.1432480860     0.7093581692     3.1955360875
NI      7.3719034230     2.8374414466     3.1955357868
NI      8.6005499346     4.9655298204     3.1955360875
NI      9.8291916604     7.0936144829     3.1955385553
NI     11.0578415739     9.2216985587     3.1955385553
NI      8.6005529417     0.7093597988     3.1955320617
NI      9.8292009307     2.8374405398     3.1955320617
NI     11.0578461765     4.9655224354     3.1955385553
NI     12.2864960500     7.0936118020     3.1955435777
NI     13.5151506071     9.2216985587     3.1955385553
NI     11.0578479825     0.7093603635     3.1955229002
NI     12.2864961110     2.8374415170     3.1955299637
NI     13.5151460045     4.9655224354     3.1955385553
NI     14.7438005216     7.0936144829     3.1955385553
NI     15.9724477311     9.2216969975     3.1955299637
NI      2.4573022419     1.4187241107     5.2038198486
NI      3.6859454873     3.5468066619     5.2038254131
NI      4.9145960567     5.6748918719     5.2038254131
NI      6.1432479640     7.8029693756     5.2038198486
NI      7.3719024351     9.9310536776     5.2038157389
NI      4.9145974156     1.4187190982     5.2038254131
NI      6.1432480250     3.5468059010     5.2038280941
NI      7.3718999123     5.6748918719     5.2038254131
NI      8.6005505618     7.8029710746     5.2038230518
NI      9.8292001149     9.9310545248     5.2038230518
NI      7.3718985534     1.4187190982     5.2038254131
NI      8.6005504807     3.5468066619     5.2038254131
NI      9.8291985095     5.6748904051     5.2038279605
NI     11.0578462584     7.8029730195     5.2038294134
NI     12.2864959890     9.9310544888     5.2038279605
NI      9.8291936861     1.4187241107     5.2038198486
NI     11.0578464558     3.5468097356     5.2038230518
NI     12.2864959890     5.6748892610     5.2038294134
NI     13.5151457196     7.8029730195     5.2038294134
NI     14.7437919041     9.9310545248     5.2038230518
NI     12.2864959890     1.4187279439     5.2038157389
NI     13.5151455622     3.5468097356     5.2038230518
NI     14.7437934685     5.6748904051     5.2038279605
NI     15.9724414572     7.8029710746     5.2038230518
NI     17.2010895429     9.9310536776     5.2038157389
NI     -0.0000000000    -0.0000000000     7.2111418375
NI      1.2286528277     2.1280929025     7.2111426440
NI      2.4572976321     4.2561727160     7.2111417595
NI      3.6859431460     6.3842491710     7.2111417595
NI      4.9145919241     8.5123266904     7.2111426440
NI      2.4573089286    -0.0000018898     7.2111426440
NI      3.6859518213     2.1280852767     7.2111415330
NI      4.9145959014     4.2561685351     7.2111413005
NI      6.1432480250     6.3842471506     7.2111415330
NI      7.3719041259     8.5123266904     7.2111426440
NI      4.9146025111    -0.0000041840     7.2111417595
NI      6.1432480250     2.1280806328     7.2111413005
NI      7.3719001486     4.2561685351     7.2111413005
NI      8.6005529040     6.3842491710     7.2111417595
NI      9.8292040032     8.5123300263     7.2111439950
NI      7.3718935389    -0.0000041840     7.2111417595
NI      8.6005442287     2.1280852767     7.2111415330
NI      9.8291984179     4.2561727160     7.2111417595
NI     11.0578476528     6.3842513193     7.2111438021
NI     12.2864960500     8.5123327673     7.2111438021
NI      9.8291871214    -0.0000018898     7.2111426440
NI     11.0578432223     2.1280929025     7.2111426440
NI     12.2864960500     4.2561753523     7.2111439950
NI     13.5151444472     6.3842513193     7.2111438021
NI     14.7437880968     8.5123300263     7.2111439950
100
Step 4 | ATOMIC_POSITIONS (angstrom) | Cartesian Angstrom
NI      0.0000000000     0.0000000000     1.1900000730
NI      1.2286496050     2.1280835410     1.1900000730
NI      2.4572992100     4.2561670810     1.1900000730
NI      3.6859488150     6.3842506220     1.1900000730
NI      4.9145984200     8.5123341620     1.1900000730
NI      2.4572992100     0.0000000000     1.1900000730
NI      3.6859488150     2.1280835410     1.1900000730
NI      4.9145984200     4.2561670810     1.1900000730
NI      6.1432480250     6.3842506220     1.1900000730
NI      7.3718976300     8.5123341620     1.1900000730
NI      4.9145984200     0.0000000000     1.1900000730
NI      6.1432480250     2.1280835410     1.1900000730
NI      7.3718976300     4.2561670810     1.1900000730
NI      8.6005472350     6.3842506220     1.1900000730
NI      9.8291968400     8.5123341620     1.1900000730
NI      7.3718976300     0.0000000000     1.1900000730
NI      8.6005472350     2.1280835410     1.1900000730
NI      9.8291968400     4.2561670810     1.1900000730
NI     11.0578464450     6.3842506220     1.1900000730
NI     12.2864960500     8.5123341620     1.1900000730
NI      9.8291968400     0.0000000000     1.1900000730
NI     11.0578464450     2.1280835410     1.1900000730
NI     12.2864960500     4.2561670810     1.1900000730
NI     13.5151456550     6.3842506220     1.1900000730
NI     14.7437952600     8.5123341620     1.1900000730
NI      1.2286426384     0.7093571586     3.1952847938
NI      2.4572843628     2.8374343713     3.1952925785
NI      3.6859392030     4.9655338817     3.1952952368
NI      4.9146000003     7.0936299052     3.1952925785
NI      6.1432480860     9.2217034928     3.1952847938
NI      3.6859324285     0.7093534975     3.1952925785
NI      4.9145851562     2.8374370629     3.1952952338
NI      6.1432480860     4.9655436831     3.1952952338
NI      7.3718961317     7.0936299052     3.1952925785
NI      8.6005384764     9.2217004700     3.1952914514
NI      6.1432480860     0.7093500466     3.1952952368
NI      7.3719110158     2.8374370629     3.1952952338
NI      8.6005569690     4.9655338817     3.1952952368
NI      9.8291899982     7.0936190518     3.1952984976
NI     11.0578367860     9.2216977138     3.1952984976
NI      8.6005637025     0.7093534975     3.1952925785
NI      9.8292117682     2.8374343713     3.1952925785
NI     11.0578493021     4.9655187114     3.1952984976
NI     12.2864960500     7.0936118020     3.1953034212
NI     13.5151553950     9.2216977138     3.1952984976
NI     11.0578535336     0.7093571586     3.1952847938
NI     12.2864961110     2.8374345720     3.1952914514
NI     13.5151428789     4.9655187114     3.1952984976
NI     14.7438021838     7.0936190518     3.1952984976
NI     15.9724537456     9.2217004700     3.1952914514
NI      2.4572905548     1.4187173632     5.2045128677
NI      3.6859344013     3.5468036683     5.2045185092
NI      4.9145931062     5.6749029695     5.2045185092
NI      6.1432479640     7.8029828707     5.2045128677
NI      7.3718975077     9.9310565224     5.2045080038
NI      4.9145892800     1.4187109942     5.2045185092
NI      6.1432480250     3.5468059010     5.2045219868
NI      7.3719028628     5.6749029695     5.2045185092
NI      8.6005467137     7.8029800623     5.2045154424
NI      9.8291904073     9.9310533635     5.2045154424
NI      7.3719066890     1.4187109942     5.2045185092
NI      8.6005615667     3.5468036683     5.2045185092
NI      9.8292018233     5.6748923183     5.2045201156
NI     11.0578429625     7.8029749224     5.2045212799
NI     12.2864959890     9.9310506624     5.2045201156
NI      9.8292053732     1.4187173632     5.2045128677
NI     11.0578523154     3.5468019092     5.2045154424
NI     12.2864959890     5.6748854552     5.2045212799
NI     13.5151490155     7.8029749224     5.2045212799
NI     14.7438016117     9.9310533635     5.2045154424
NI     12.2864959890     1.4187222542     5.2045080038
NI     13.5151397026     3.5468019092     5.2045154424
NI     14.7437901547     5.6748923183     5.2045201156
NI     15.9724453053     7.8029800623     5.2045154424
NI     17.2010944703     9.9310565224     5.2045080038
NI     -0.0000000000    -0.0000000000     7.2124643772
NI      1.2286481728     2.1280878208     7.2124693833
NI      2.4572915852     4.2561702603     7.2124738205
NI      3.6859422493     6.3842556356     7.2124738205
NI      4.9145939974     8.5123332624     7.2124693833
NI      2.4573022003    -0.0000033803     7.2124693833
NI      3.6859429870     2.1280801762     7.2124738447
NI      4.9145915719     4.2561710348     7.2124772378
NI      6.1432480250     6.3842573515     7.2124738447
NI      7.3719020526     8.5123332624     7.2124693833
NI      4.9145973609    -0.0000081929     7.2124738205
NI      6.1432480250     2.1280756335     7.2124772378
NI      7.3719044781     4.2561710348     7.2124772378
NI      8.6005538007     6.3842556356     7.2124738205
NI      9.8291992647     8.5123327621     7.2124751726
NI      7.3718986891    -0.0000081929     7.2124738205
NI      8.6005530630     2.1280801762     7.2124738447
NI      9.8292044648     4.2561702603     7.2124738205
NI     11.0578474801     6.3842512196     7.2124771806
NI     12.2864960500     8.5123329668     7.2124771806
NI      9.8291938497    -0.0000033803     7.2124693833
NI     11.0578478772     2.1280878208     7.2124693833
NI     12.2864960500     4.2561698809     7.2124751726
NI     13.5151446199     6.3842512196     7.2124771806
NI     14.7437928353     8.5123327621     7.2124751726
100
Step 5 | ATOMIC_POSITIONS (angstrom) | Cartesian Angstrom
NI      0.0000000000     0.0000000000     1.1900000730
NI      1.2286496050     2.1280835410     1.1900000730
NI      2.4572992100     4.2561670810     1.1900000730
NI      3.6859488150     6.3842506220     1.1900000730
NI      4.9145984200     8.5123341620     1.1900000730
NI      2.4572992100     0.0000000000     1.1900000730
NI      3.6859488150     2.1280835410     1.1900000730
NI      4.9145984200     4.2561670810     1.1900000730
NI      6.1432480250     6.3842506220     1.1900000730
NI      7.3718976300     8.5123341620     1.1900000730
NI      4.9145984200     0.0000000000     1.1900000730
NI      6.1432480250     2.1280835410     1.1900000730
NI      7.3718976300     4.2561670810     1.1900000730
NI      8.6005472350     6.3842506220     1.1900000730
NI      9.8291968400     8.5123341620     1.1900000730
NI      7.3718976300     0.0000000000     1.1900000730
NI      8.6005472350     2.1280835410     1.1900000730
NI      9.8291968400     4.2561670810     1.1900000730
NI     11.0578464450     6.3842506220     1.1900000730
NI     12.2864960500     8.5123341620     1.1900000730
NI      9.8291968400     0.0000000000     1.1900000730
NI     11.0578464450     2.1280835410     1.1900000730
NI     12.2864960500     4.2561670810     1.1900000730
NI     13.5151456550     6.3842506220     1.1900000730
NI     14.7437952600     8.5123341620     1.1900000730
NI      1.2286359914     0.7093533209     3.1951300896
NI      2.4572710395     2.8374265176     3.1951396256
NI      3.6859307209     4.9655387788     3.1951427995
NI      4.9146001401     7.0936453704     3.1951396256
NI      6.1432480860     9.2217111681     3.1951300896
NI      3.6859189654     0.7093458860     3.1951396256
NI      4.9145754102     2.8374314361     3.1951452751
NI      6.1432480860     4.9655549369     3.1951452751
NI      7.3718959919     7.0936453704     3.1951396256
NI      8.6005311467     9.2217047018     3.1951371362
NI      6.1432480860     0.7093402524     3.1951427995
NI      7.3719207618     2.8374314361     3.1951452751
NI      8.6005654511     4.9655387788     3.1951427995
NI      9.8291872637     7.0936248182     3.1951435736
NI     11.0578304250     9.2216971987     3.1951435736
NI      8.6005771656     0.7093458860     3.1951396256
NI      9.8292250915     2.8374265176     3.1951396256
NI     11.0578529288     4.9655134601     3.1951435736
NI     12.2864960500     7.0936118020     3.1951479135
NI     13.5151617560     9.2216971987     3.1951435736
NI     11.0578601806     0.7093533209     3.1951300896
NI     12.2864961110     2.8374261084     3.1951371362
NI     13.5151392522     4.9655134601     3.1951435736
NI     14.7438049183     7.0936248182     3.1951435736
NI     15.9724610753     9.2217047018     3.1951371362
NI      2.4572789488     1.4187106624     5.2055998878
NI      3.6859232577     3.5468001221     5.2056083186
NI      4.9145906055     5.6749143932     5.2056083186
NI      6.1432479640     7.8029962722     5.2055998878
NI      7.3718926331     9.9310593368     5.2055926479
NI      4.9145806372     1.4187031166     5.2056083186
NI      6.1432480250     3.5468059010     5.2056148951
NI      7.3719053635     5.6749143932     5.2056083186
NI      8.6005413067     7.8029892834     5.2056014554
NI      9.8291797182     9.9310534355     5.2056014554
NI      7.3719153318     1.4187031166     5.2056083186
NI      8.6005727103     3.5468001221     5.2056083186
NI      9.8292034729     5.6748932707     5.2056065560
NI     11.0578379768     7.8029778009     5.2056060534
NI     12.2864959890     9.9310487576     5.2056065560
NI      9.8292169792     1.4187106624     5.2055998878
NI     11.0578575976     3.5467926161     5.2056014554
NI     12.2864959890     5.6748796982     5.2056060534
NI     13.5151540012     7.8029778009     5.2056060534
NI     14.7438123008     9.9310534355     5.2056014554
NI     12.2864959890     1.4187166255     5.2055926479
NI     13.5151344204     3.5467926161     5.2056014554
NI     14.7437885051     5.6748932707     5.2056065560
NI     15.9724507123     7.8029892834     5.2056014554
NI     17.2010993449     9.9310593368     5.2055926479
NI     -0.0000000000    -0.0000000000     7.2144572518
NI      1.2286439093     2.1280821013     7.2144662358
NI      2.4572869990     4.2561662365     7.2144749254
NI      3.6859434409     6.3842616193     7.2144749254
NI      4.9145968190     8.5123398145     7.2144662358
NI      2.4572951153    -0.0000042128     7.2144662358
NI      3.6859342890     2.1280751544     7.2144750104
NI      4.9145875245     4.2561733715     7.2144809727
NI      6.1432480250     6.3842673952     7.2144750104
NI      7.3718992310     8.5123398145     7.2144662358
NI      4.9145915831    -0.0000101527     7.2144749254
NI      6.1432480250     2.1280709599     7.2144809727
NI      7.3719085255     4.2561733715     7.2144809727
NI      8.6005526091     6.3842616193     7.2144749254
NI      9.8291920035     8.5123369543     7.2144766728
NI      7.3719044669    -0.0000101527     7.2144749254
NI      8.6005617610     2.1280751544     7.2144750104
NI      9.8292090510     4.2561662365     7.2144749254
NI     11.0578452405     6.3842499266     7.2144810990
NI     12.2864960500     8.5123355529     7.2144810990
NI      9.8292009347    -0.0000042128     7.2144662358
NI     11.0578521407     2.1280821013     7.2144662358
NI     12.2864960500     4.2561614963     7.2144766728
NI     13.5151468595     6.3842499266     7.2144810990
NI     14.7438000965     8.5123369543     7.2144766728
100
Step 6 | ATOMIC_POSITIONS (angstrom) | Cartesian Angstrom
NI      0.0000000000     0.0000000000     1.1900000730
NI      1.2286496050     2.1280835410     1.1900000730
NI      2.4572992100     4.2561670810     1.1900000730
NI      3.6859488150     6.3842506220     1.1900000730
NI      4.9145984200     8.5123341620     1.1900000730
NI      2.4572992100     0.0000000000     1.1900000730
NI      3.6859488150     2.1280835410     1.1900000730
NI      4.9145984200     4.2561670810     1.1900000730
NI      6.1432480250     6.3842506220     1.1900000730
NI      7.3718976300     8.5123341620     1.1900000730
NI      4.9145984200     0.0000000000     1.1900000730
NI      6.1432480250     2.1280835410     1.1900000730
NI      7.3718976300     4.2561670810     1.1900000730
NI      8.6005472350     6.3842506220     1.1900000730
NI      9.8291968400     8.5123341620     1.1900000730
NI      7.3718976300     0.0000000000     1.1900000730
NI      8.6005472350     2.1280835410     1.1900000730
NI      9.8291968400     4.2561670810     1.1900000730
NI     11.0578464450     6.3842506220     1.1900000730
NI     12.2864960500     8.5123341620     1.1900000730
NI      9.8291968400     0.0000000000     1.1900000730
NI     11.0578464450     2.1280835410     1.1900000730
NI     12.2864960500     4.2561670810     1.1900000730
NI     13.5151456550     6.3842506220     1.1900000730
NI     14.7437952600     8.5123341620     1.1900000730
NI      1.2286251042     0.7093470352     3.1952366907
NI      2.4572545059     2.8374124672     3.1952505430
NI      3.6859239685     4.9655426774     3.1952562419
NI      4.9146040413     7.0936667141     3.1952505430
NI      6.1432480860     9.2217237396     3.1952366907
NI      3.6858985306     0.7093385927     3.1952505430
NI      4.9145635895     2.8374246114     3.1952618035
NI      6.1432480860     4.9655685863     3.1952618035
NI      7.3718920907     7.0936667141     3.1952505430
NI      8.6005162186     9.2217133205     3.1952456345
NI      6.1432480860     0.7093324553     3.1952562419
NI      7.3719325825     2.8374246114     3.1952618035
NI      8.6005722035     4.9655426774     3.1952562419