144
Step 1 | ATOMIC_POSITIONS (angstrom) | Cartesian Angstrom
NI      0.0000000000     0.0000000000     1.5000000000
NI     15.9724448650     2.1280835410     1.5000000000
NI     17.2010944700     4.2561670810     1.5000000000
NI      3.6859488150     6.3842506220     1.5000000000
NI     19.6583936800     8.5123341620     1.5000000000
NI     20.8870432850    10.6404177020     1.5000000000
NI      2.4572992100     0.0000000000     1.5000000000
NI      3.6859488160     2.1280835410     1.5000000000
NI      4.9145984200     4.2561670810     1.5000000000
NI      6.1432480250     6.3842506220     1.5000000000
NI      7.3718976300     8.5123341620     1.5000000000
NI      8.6005472350    10.6404177020     1.5000000000
NI      4.9145984200    -0.0000000000     1.5000000000
NI      6.1432480250     2.1280835410     1.5000000000
NI      7.3718976300     4.2561670810     1.5000000000
NI      8.6005472350     6.3842506220     1.5000000000
NI      9.8291968400     8.5123341620     1.5000000000
NI     11.0578464450    10.6404177020     1.5000000000
NI      7.3718976300     0.0000000000     1.5000000000
NI      8.6005472350     2.1280835410     1.5000000000
NI      9.8291968400     4.2561670810     1.5000000000
NI     11.0578464450     6.3842506220     1.5000000000
NI     12.2864960500     8.5123341620     1.5000000000
NI     13.5151456550    10.6404177020     1.5000000000
NI      9.8291968400     0.0000000000     1.5000000000
NI     11.0578464450     2.1280835410     1.5000000000
NI     12.2864960500     4.2561670810     1.5000000000
NI     13.5151456550     6.3842506220     1.5000000000
NI     14.7437952600     8.5123341620     1.5000000000
NI     15.9724448650    10.6404177020     1.5000000000
NI     12.2864960500    -0.0000000000     1.5000000000
NI     13.5151456550     2.1280835410     1.5000000000
NI     14.7437952600     4.2561670810     1.5000000000
NI     15.9724448650     6.3842506220     1.5000000000
NI     17.2010944700     8.5123341620     1.5000000000
NI     18.4297440740    10.6404177020     1.5000000000
NI      1.2286153933     0.7093414283     3.5128897956
NI      2.4572477306     2.8374047109     3.5129244656
NI      3.6859085207     4.9655214199     3.5129563129
NI      4.9145841979     7.0936501194     3.5129563129
NI      6.1432569342     9.2217599290     3.5129244656
NI      7.3718976310    11.3498183885     3.5128897956
NI      3.6858884264     0.7093366031     3.5129244656
NI      4.9145544471     2.8374193322     3.5129628392
NI      6.1432315159     4.9655377926     3.5129813668
NI      7.3718976300     7.0936625775     3.5129628392
NI      8.6005383258     9.2217599290     3.5129244656
NI      9.8291553308    11.3498028483     3.5129039204
NI      6.1432219527     0.7093297048     3.5129563129
NI      7.3718976300     2.8374256569     3.5129813668
NI      8.6005637441     4.9655377926     3.5129813668
NI      9.8292110631     7.0936501194     3.5129563129
NI     11.0578376160     9.2217280630     3.5129316804
NI     12.2864632982    11.3497701687     3.5129316804
NI      8.6005733083     0.7093297048     3.5129563129
NI      9.8292408129     2.8374193322     3.5129628392
NI     11.0578867413     4.9655214199     3.5129563129
NI     12.2865185935     7.0936248169     3.5129444648
NI     13.5151457974     9.2216952598     3.5129391646
NI     14.7437952610    11.3497528531     3.5129444648
NI     11.0579068336     0.7093366031     3.5129244656
NI     12.2865475294     2.8374047109     3.5129244656
NI     13.5151695777     4.9655042543     3.5129316804
NI     14.7437952600     7.0936119665     3.5129391646
NI     15.9724447226     9.2216952598     3.5129391646
NI     17.2011272218    11.3497701687     3.5129316804
NI     13.5151798677     0.7093414283     3.5128897956
NI     14.7437952600     2.8373967893     3.5129039204
NI     15.9724209423     4.9655042543     3.5129316804
NI     17.2010719275     7.0936248169     3.5129444648
NI     18.4297529040     9.2217280630     3.5129316804
NI     19.6584351892    11.3498028483     3.5129039204
NI      2.4572488215     1.4186932682     5.5291518106
NI      3.6859064456     3.5467812058     5.5291981973
NI      4.9145789875     5.6749006604     5.5292198470
NI      6.1432482269     7.8030220226     5.5291981973
NI      7.3718976300     9.9311147066     5.5291518106
NI      8.6005197582    12.0591559267     5.5291266295
NI      4.9145558487     1.4186980146     5.5291981973
NI      6.1432305729     3.5467958250     5.5292308187
NI      7.3718976300     5.6749095930     5.5292308187
NI      8.6005470331     7.8030220226     5.5291981973
NI      9.8291752218     9.9310981006     5.5291644749
NI     11.0577996286    12.0591379961     5.5291644749
NI      7.3718976290     1.4186999212     5.5292198470
NI      8.6005646871     3.5467958250     5.5292308187
NI      9.8292162715     5.6749006604     5.5292198470
NI     11.0578547780     7.8030001612     5.5291991882
NI     12.2864831872     9.9310639494     5.5291892409
NI     13.5151262831    12.0591192559     5.5291991882
NI      9.8292394113     1.4186980146     5.5291981973
NI     11.0578888144     3.5467812058     5.5291981973
NI     12.2865237549     5.6748830688     5.5291991882
NI     13.5151543339     7.8029779928     5.5292000167
NI     14.7437952600     9.9310465015     5.5292000167
NI     15.9724642359    12.0591192559     5.5291991882
NI     12.2865464385     1.4186932682     5.5291518106
NI     13.5151708532     3.5467663902     5.5291644749
NI     14.7437952600     5.6748745883     5.5291892409
NI     15.9724361861     7.8029779928     5.5292000167
NI     17.2011073328     9.9310639494     5.5291892409
NI     18.4297908914    12.0591379961     5.5291644749
NI     14.7437952590     1.4186906326     5.5291266295
NI     15.9724196668     3.5467663902     5.5291644749
NI     17.2010667641     5.6748830688     5.5291991882
NI     18.4297357400     7.8030001612     5.5291991882
NI     19.6584152982     9.9310981006     5.5291644749
NI     20.8870707608    12.0591559267     5.5291266295
NI      0.0000000000     0.0000000000     7.5430035498
NI     15.9724196691     2.1280533156     7.5430222062
NI     17.2010631642     4.2561492934     7.5430540586
NI      3.6859291217     6.3842619919     7.5430688177
NI     19.6583934316     8.5123701674     7.5430540586
NI     20.8870568630    10.6404546350     7.5430222062
NI      2.4572604361    -0.0000067076     7.5430222062
NI      3.6859069976     2.1280593971     7.5430439561
NI      4.9145760252     4.2561605656     7.5430633588
NI      6.1432424701     6.3842732741     7.5430633588
NI      7.3718976300     8.5123824497     7.5430439561
NI      8.6005336570    10.6404546350     7.5430222062
NI      4.9145673626    -0.0000182178     7.5430540586
NI      6.1432311851     2.1280674042     7.5430633588
NI      7.3718976300     4.2561670810     7.5430693032
NI      8.6005527899     6.3842732741     7.5430633588
NI      9.8291970884     8.5123701674     7.5430540586
NI     11.0578273914    10.6404287026     7.5430507516
NI      7.3718976300    -0.0000227399     7.5430688177
NI      8.6005640749     2.1280674042     7.5430633588
NI      9.8292192348     4.2561605656     7.5430633588
NI     11.0578661383     6.3842619919     7.5430688177
NI     12.2865053062     8.5123455489     7.5430752005
NI     13.5151404217    10.6404039925     7.5430752005
NI      9.8292278974    -0.0000182178     7.5430540586
NI     11.0578882634     2.1280593971     7.5430439561
NI     12.2865273558     4.2561492934     7.5430540586
NI     13.5151601444     6.3842529446     7.5430752005
NI     14.7437952600     8.5123341620     7.5430854921
NI     15.9724500983    10.6404039925     7.5430752005
NI     12.2865348239    -0.0000067076     7.5430222062
NI     13.5151708509     2.1280533156     7.5430222062
NI     14.7437952600     4.2561450798     7.5430507516
NI     15.9724303756     6.3842529446     7.5430752005
NI     17.2010852138     8.5123455489     7.5430752005
NI     18.4297631276    10.6404287026     7.5430507516
144
Step 2 | ATOMIC_POSITIONS (angstrom) | Cartesian Angstrom
NI      0.0000000000     0.0000000000     1.5000000000
NI     15.9724448650     2.1280835410     1.5000000000
NI     17.2010944700     4.2561670810     1.5000000000
NI      3.6859488150     6.3842506220     1.5000000000
NI     19.6583936800     8.5123341620     1.5000000000
NI     20.8870432850    10.6404177020     1.5000000000
NI      2.4572992100     0.0000000000     1.5000000000
NI      3.6859488160     2.1280835410     1.5000000000
NI      4.9145984200     4.2561670810     1.5000000000
NI      6.1432480250     6.3842506220     1.5000000000
NI      7.3718976300     8.5123341620     1.5000000000
NI      8.6005472350    10.6404177020     1.5000000000
NI      4.9145984200    -0.0000000000     1.5000000000
NI      6.1432480250     2.1280835410     1.5000000000
NI      7.3718976300     4.2561670810     1.5000000000
NI      8.6005472350     6.3842506220     1.5000000000
NI      9.8291968400     8.5123341620     1.5000000000
NI     11.0578464450    10.6404177020     1.5000000000
NI      7.3718976300     0.0000000000     1.5000000000
NI      8.6005472350     2.1280835410     1.5000000000
NI      9.8291968400     4.2561670810     1.5000000000
NI     11.0578464450     6.3842506220     1.5000000000
NI     12.2864960500     8.5123341620     1.5000000000
NI     13.5151456550    10.6404177020     1.5000000000
NI      9.8291968400     0.0000000000     1.5000000000
NI     11.0578464450     2.1280835410     1.5000000000
NI     12.2864960500     4.2561670810     1.5000000000
NI     13.5151456550     6.3842506220     1.5000000000
NI     14.7437952600     8.5123341620     1.5000000000
NI     15.9724448650    10.6404177020     1.5000000000
NI     12.2864960500    -0.0000000000     1.5000000000
NI     13.5151456550     2.1280835410     1.5000000000
NI     14.7437952600     4.2561670810     1.5000000000
NI     15.9724448650     6.3842506220     1.5000000000
NI     17.2010944700     8.5123341620     1.5000000000
NI     18.4297440740    10.6404177020     1.5000000000
NI      1.2286152744     0.7093413596     3.5128743771
NI      2.4572523962     2.8374119550     3.5129186393
NI      3.6859180041     4.9655269866     3.5129608106
NI      4.9145841187     7.0936391231     3.5129608106
NI      6.1432529934     9.2217522664     3.5129186393
NI      7.3718976310    11.3498185257     3.5128743771
NI      3.6858970328     0.7093370215     3.5129186393
NI      4.9145718065     2.8374293547     3.5129745084
NI      6.1432416348     4.9655319504     3.5130019260
NI      7.3718976300     7.0936425326     3.5129745084
NI      8.6005422666     9.2217522664     3.5129186393
NI      9.8291612304    11.3497994422     3.5128878599
NI      6.1432315154     0.7093351343     3.5129608106
NI      7.3718976300     2.8374373413     3.5130019260
NI      8.6005536252     4.9655319504     3.5130019260
NI      9.8292111423     7.0936391231     3.5129608106
NI     11.0578491221     9.2217222783     3.5129179659
NI     12.2864740610    11.3497630964     3.5129179659
NI      8.6005637456     0.7093351343     3.5129608106
NI      9.8292234535     2.8374293547     3.5129745084
NI     11.0578772579     4.9655269866     3.5129608106
NI     12.2865240702     7.0936279789     3.5129345201
NI     13.5151515757     9.2216919237     3.5129219102
NI     14.7437952610    11.3497465292     3.5129345201
NI     11.0578982272     0.7093370215     3.5129186393
NI     12.2865428638     2.8374119550     3.5129186393
NI     13.5151703211     4.9655171112     3.5129179659
NI     14.7437952600     7.0936186386     3.5129219102
NI     15.9724389443     9.2216919237     3.5129219102
NI     17.2011164590    11.3497630964     3.5129179659
NI     13.5151799866     0.7093413596     3.5128743771
NI     14.7437952600     2.8374036016     3.5128878599
NI     15.9724201989     4.9655171112     3.5129179659
NI     17.2010664508     7.0936279789     3.5129345201
NI     18.4297413979     9.2217222783     3.5129179659
NI     19.6584292896    11.3497994422     3.5128878599
NI      2.4572601262     1.4186997949     5.5292900507
NI      3.6859340412     3.5467909649     5.5293477413
NI      4.9146012226     5.6748878229     5.5293752893
NI      6.1432535731     7.8029932445     5.5293477413
NI      7.3718976300     9.9311016531     5.5292900507
NI      8.6005203523    12.0591555837     5.5292606536
NI      4.9145780981     1.4187170336     5.5293477413
NI      6.1432494890     3.5468067463     5.5293936765
NI      7.3718976300     5.6748877505     5.5293936765
NI      8.6005416869     7.8029932445     5.5293477413
NI      9.8291768984     9.9310877036     5.5292979287
NI     11.0578094710    12.0591417426     5.5292979287
NI      7.3718976290     1.4187255961     5.5293752893
NI      8.6005457710     3.5468067463     5.5293936765
NI      9.8291940364     5.6748878229     5.5293752893
NI     11.0578497875     7.8029868539     5.5293368469
NI     12.2864904899     9.9310597331     5.5293173751
NI     13.5151353123    12.0591302315     5.5293368469
NI      9.8292171619     1.4187170336     5.5293477413
NI     11.0578612188     3.5467909649     5.5293477413
NI     12.2865097352     5.6748854006     5.5293368469
NI     13.5151542990     7.8029779726     5.5293272606
NI     14.7437952600     9.9310465418     5.5293272606
NI     15.9724552067    12.0591302315     5.5293368469
NI     12.2865351338     1.4186997949     5.5292900507
NI     13.5151626874     3.5467730407     5.5292979287
NI     14.7437952600     5.6748830208     5.5293173751
NI     15.9724362210     7.8029779726     5.5293272606
NI     17.2011000301     9.9310597331     5.5293173751
NI     18.4297810490    12.0591417426     5.5292979287
NI     14.7437952590     1.4186913186     5.5292606536
NI     15.9724278326     3.5467730407     5.5292979287
NI     17.2010807838     5.6748854006     5.5293368469
NI     18.4297407305     7.8029868539     5.5293368469
NI     19.6584136216     9.9310877036     5.5292979287
NI     20.8870701667    12.0591555837     5.5292606536
NI      0.0000000000     0.0000000000     7.5429315804
NI     15.9724274945     2.1280545010     7.5429503230
NI     17.2010887666     4.2561529855     7.5429781064
NI      3.6859536214     6.3842478470     7.5429883528
NI     19.6584030354     8.5123461490     7.5429781064
NI     20.8870597491    10.6404472653     7.5429503230
NI      2.4572653754    -0.0000005233     7.5429503230
NI      3.6859332843     2.1280745738     7.5429668280
NI      4.9146082967     4.2561627155     7.5429763381
NI      6.1432567440     6.3842442513     7.5429763381
NI      7.3718976300     8.5123520965     7.5429668280
NI      8.6005307709    10.6404472653     7.5429503230
NI      4.9145833612     0.0000021085     7.5429781064
NI      6.1432491827     2.1280942773     7.5429763381
NI      7.3718976300     4.2561670810     7.5429749720
NI      8.6005385160     6.3842442513     7.5429763381
NI      9.8291874846     8.5123461490     7.5429781064
NI     11.0578302890    10.6404270296     7.5429778825
NI      7.3718976300     0.0000055500     7.5429883528
NI      8.6005460773     2.1280942773     7.5429763381
NI      9.8291869633     4.2561627155     7.5429763381
NI     11.0578416386     6.3842478470     7.5429883528
NI     12.2865011633     8.5123373429     7.5429981657
NI     13.5151454569    10.6404116833     7.5429981657
NI      9.8292118988     0.0000021085     7.5429781064
NI     11.0578619767     2.1280745738     7.5429668280
NI     12.2865017534     4.2561529855     7.5429781064
NI     13.5151509664     6.3842534598     7.5429981657
NI     14.7437952600     8.5123341620     7.5430068617
NI     15.9724450631    10.6404116833     7.5429981657
NI     12.2865298846    -0.0000005233     7.5429503230
NI     13.5151630255     2.1280545010     7.5429503230
NI     14.7437952600     4.2561484257     7.5429778825
NI     15.9724395536     6.3842534598     7.5429981657
NI     17.2010893567     8.5123373429     7.5429981657
NI     18.4297602300    10.6404270296     7.5429778825
144
Step 3 | ATOMIC_POSITIONS (angstrom) | Cartesian Angstrom
NI      0.0000000000     0.0000000000     1.5000000000
NI     15.9724448650     2.1280835410     1.5000000000
NI     17.2010944700     4.2561670810     1.5000000000
NI      3.6859488150     6.3842506220     1.5000000000
NI     19.6583936800     8.5123341620     1.5000000000
NI     20.8870432850    10.6404177020     1.5000000000
NI      2.4572992100     0.0000000000     1.5000000000
NI      3.6859488160     2.1280835410     1.5000000000
NI      4.9145984200     4.2561670810     1.5000000000
NI      6.1432480250     6.3842506220     1.5000000000
NI      7.3718976300     8.5123341620     1.5000000000
NI      8.6005472350    10.6404177020     1.5000000000
NI      4.9145984200    -0.0000000000     1.5000000000
NI      6.1432480250     2.1280835410     1.5000000000
NI      7.3718976300     4.2561670810     1.5000000000
NI      8.6005472350     6.3842506220     1.5000000000
NI      9.8291968400     8.5123341620     1.5000000000
NI     11.0578464450    10.6404177020     1.5000000000
NI      7.3718976300     0.0000000000     1.5000000000
NI      8.6005472350     2.1280835410     1.5000000000
NI      9.8291968400     4.2561670810     1.5000000000
NI     11.0578464450     6.3842506220     1.5000000000
NI     12.2864960500     8.5123341620     1.5000000000
NI     13.5151456550    10.6404177020     1.5000000000
NI      9.8291968400     0.0000000000     1.5000000000
NI     11.0578464450     2.1280835410     1.5000000000
NI     12.2864960500     4.2561670810     1.5000000000
NI     13.5151456550     6.3842506220     1.5000000000
NI     14.7437952600     8.5123341620     1.5000000000
NI     15.9724448650    10.6404177020     1.5000000000
NI     12.2864960500    -0.0000000000     1.5000000000
NI     13.5151456550     2.1280835410     1.5000000000
NI     14.7437952600     4.2561670810     1.5000000000
NI     15.9724448650     6.3842506220     1.5000000000
NI     17.2010944700     8.5123341620     1.5000000000
NI     18.4297440740    10.6404177020     1.5000000000
NI      1.2286248047     0.7093468620     3.5128790341
NI      2.4572703376     2.8374276428     3.5129229389
NI      3.6859388928     4.9655311872     3.5129651257
NI      4.9145909252     7.0936189327     3.5129651257
NI      6.1432483781     9.2217288849     3.5129229389
NI      7.3718976310    11.3498075211     3.5128790341
NI      3.6859195895     0.7093447154     3.5129229389
NI      4.9145984566     2.8374447411     3.5129803578
NI      6.1432547083     4.9655244024     3.5130091148
NI      7.3718976300     7.0936117597     3.5129803578
NI      8.6005468819     9.2217288849     3.5129229389
NI      9.8291754056    11.3497912581     3.5128889889
NI      6.1432455976     0.7093511241     3.5129651257
NI      7.3718976300     2.8374524372     3.5130091148
NI      8.6005405517     4.9655244024     3.5130091148
NI      9.8292043358     7.0936189327     3.5129651257
NI     11.0578538273     9.2217111747     3.5129167150
NI     12.2864860297    11.3497645734     3.5129167150
NI      8.6005496634     0.7093511241     3.5129651257
NI      9.8291968034     2.8374447411     3.5129803578
NI     11.0578563692     4.9655311872     3.5129651257
NI     12.2865155204     7.0936230427     3.5129349068
NI     13.5151497387     9.2216929843     3.5129205067
NI     14.7437952610    11.3497564017     3.5129349068
NI     11.0578756705     0.7093447154     3.5129229389
NI     12.2865249224     2.8374276428     3.5129229389
NI     13.5151630577     4.9655267379     3.5129167150
NI     14.7437952600     7.0936165174     3.5129205067
NI     15.9724407813     9.2216929843     3.5129205067
NI     17.2011044903    11.3497645734     3.5129167150
NI     13.5151704563     0.7093468620     3.5128790341
NI     14.7437952600     2.8374199697     3.5128889889
NI     15.9724274623     4.9655267379     3.5129167150
NI     17.2010750006     7.0936230427     3.5129349068
NI     18.4297366927     9.2217111747     3.5129167150
NI     19.6584151144    11.3497912581     3.5128889889
NI      2.4572714140     1.4187063120     5.5294374024
NI      3.6859568629     3.5468000591     5.5294902767
NI      4.9146190953     5.6748775041     5.5295167809
NI      6.1432571082     7.8029689333     5.5294902767
NI      7.3718976300     9.9310886191     5.5294374024
NI      8.6005233213    12.0591538696     5.5294131675
NI      4.9145973847     1.4187322506     5.5294902767
NI      6.1432647830     3.5468155763     5.5295376105
NI      7.3718976300     5.6748700905     5.5295376105
NI      8.6005381518     7.8029689333     5.5294902767
NI      9.8291795665     9.9310781821     5.5294387119
NI     11.0578190510    12.0591441927     5.5294387119
NI      7.3718976290     1.4187462338     5.5295167809
NI      8.6005304770     3.5468155763     5.5295376105
NI      9.8291761637     5.6748775041     5.5295167809
NI     11.0578432182     7.8029755938     5.5294730882
NI     12.2864926584     9.9310584812     5.5294517373
NI     13.5151417792    12.0591415507     5.5294730882
NI      9.8291978753     1.4187322506     5.5294902767
NI     11.0578383971     3.5468000591     5.5294902767
NI     12.2864966990     5.6748853415     5.5294730882
NI     13.5151504935     7.8029757755     5.5294614203
NI     14.7437952600     9.9310509360     5.5294614203
NI     15.9724487398    12.0591415507     5.5294730882
NI     12.2865238460     1.4187063120     5.5294374024
NI     13.5151557756     3.5467801122     5.5294387119
NI     14.7437952600     5.6748855247     5.5294517373
NI     15.9724400265     7.8029757755     5.5294614203
NI     17.2010978616     9.9310584812     5.5294517373
NI     18.4297714690    12.0591441927     5.5294387119
NI     14.7437952590     1.4186947468     5.5294131675
NI     15.9724347444     3.5467801122     5.5294387119
NI     17.2010938200     5.6748853415     5.5294730882
NI     18.4297472998     7.8029755938     5.5294730882
NI     19.6584109535     9.9310781821     5.5294387119
NI     20.8870671977    12.0591538696     5.5294131675
NI      0.0000000000     0.0000000000     7.5428797025
NI     15.9724312869     2.1280521204     7.5428972402
NI     17.2011091225     4.2561538123     7.5429213460
NI      3.6859756462     6.3842351310     7.5429286294
NI     19.6584124973     8.5123281070     7.5429213460
NI     20.8870637070    10.6404451712     7.5428972402
NI      2.4572652100     0.0000039513     7.5428972402
NI      3.6859524998     2.1280856678     7.5429109035
NI      4.9146357813     4.2561641876     7.5429146270
NI      6.1432692114     6.3842197129     7.5429146270
NI      7.3718976300     8.5123299084     7.5429109035
NI      8.6005268130    10.6404451712     7.5428972402
NI      4.9145942552     0.0000193238     7.5429213460
NI      6.1432641999     2.1281173435     7.5429146270
NI      7.3718976300     4.2561670810     7.5429094128
NI      8.6005260486     6.3842197129     7.5429146270
NI      9.8291780227     8.5123281070     7.5429213460
NI     11.0578295561    10.6404274528     7.5429214922
NI      7.3718976300     0.0000309820     7.5429286294
NI      8.6005310601     2.1281173435     7.5429146270
NI      9.8291594787     4.2561641876     7.5429146270
NI     11.0578196138     6.3842351310     7.5429286294
NI     12.2864946813     8.5123314133     7.5429391939
NI     13.5151473511    10.6404202617     7.5429391939
NI      9.8292010048     0.0000193238     7.5429213460
NI     11.0578427612     2.1280856678     7.5429109035
NI     12.2864813975     4.2561538123     7.5429213460
NI     13.5151425902     6.3842508110     7.5429391939
NI     14.7437952600     8.5123341620     7.5429475624
NI     15.9724431689    10.6404202617     7.5429391939
NI     12.2865300500     0.0000039513     7.5428972402
NI     13.5151592331     2.1280521204     7.5428972402
NI     14.7437952600     4.2561475794     7.5429214922
NI     15.9724479298     6.3842508110     7.5429391939
NI     17.2010958387     8.5123314133     7.5429391939
NI     18.4297609629    10.6404274528     7.5429214922
144
Step 4 | ATOMIC_POSITIONS (angstrom) | Cartesian Angstrom
NI      0.0000000000     0.0000000000     1.5000000000
NI     15.9724448650     2.1280835410     1.5000000000
NI     17.2010944700     4.2561670810     1.5000000000
NI      3.6859488150     6.3842506220     1.5000000000
NI     19.6583936800     8.5123341620     1.5000000000
NI     20.8870432850    10.6404177020     1.5000000000
NI      2.4572992100     0.0000000000     1.5000000000
NI      3.6859488160     2.1280835410     1.5000000000
NI      4.9145984200     4.2561670810     1.5000000000
NI      6.1432480250     6.3842506220     1.5000000000
NI      7.3718976300     8.5123341620     1.5000000000
NI      8.6005472350    10.6404177020     1.5000000000
NI      4.9145984200    -0.0000000000     1.5000000000
NI      6.1432480250     2.1280835410     1.5000000000
NI      7.3718976300     4.2561670810     1.5000000000
NI      8.6005472350     6.3842506220     1.5000000000
NI      9.8291968400     8.5123341620     1.5000000000
NI     11.0578464450    10.6404177020     1.5000000000
NI      7.3718976300     0.0000000000     1.5000000000
NI      8.6005472350     2.1280835410     1.5000000000
NI      9.8291968400     4.2561670810     1.5000000000
NI     11.0578464450     6.3842506220     1.5000000000
NI     12.2864960500     8.5123341620     1.5000000000
NI     13.5151456550    10.6404177020     1.5000000000
NI      9.8291968400     0.0000000000     1.5000000000
NI     11.0578464450     2.1280835410     1.5000000000
NI     12.2864960500     4.2561670810     1.5000000000
NI     13.5151456550     6.3842506220     1.5000000000
NI     14.7437952600     8.5123341620     1.5000000000
NI     15.9724448650    10.6404177020     1.5000000000
NI     12.2864960500    -0.0000000000     1.5000000000
NI     13.5151456550     2.1280835410     1.5000000000
NI     14.7437952600     4.2561670810     1.5000000000
NI     15.9724448650     6.3842506220     1.5000000000
NI     17.2010944700     8.5123341620     1.5000000000
NI     18.4297440740    10.6404177020     1.5000000000
NI      1.2286305141     0.7093501583     3.5129676613
NI      2.4572768609     2.8374313033     3.5130082712
NI      3.6859395347     4.9655307689     3.5130457226
NI      4.9145916085     7.0936185859     3.5130457226
NI      6.1432484696     9.2217214052     3.5130082712
NI      7.3718976310    11.3498009285     3.5129676613
NI      3.6859260213     0.7093485344     3.5130082712
NI      4.9145970466     2.8374439271     3.5130578643
NI      6.1432519462     4.9655259971     3.5130816270
NI      7.3718976300     7.0936133879     3.5130578643
NI      8.6005467904     9.2217214052     3.5130082712
NI      9.8291797769    11.3497887344     3.5129780008
NI      6.1432455563     0.7093518892     3.5130457226
NI      7.3718976300     2.8374492479     3.5130816270
NI      8.6005433138     4.9655259971     3.5130816270
NI      9.8292036525     7.0936185859     3.5130457226
NI     11.0578521813     9.2217078365     3.5130042556
NI     12.2864880976    11.3497676680     3.5130042556
NI      8.6005497047     0.7093518892     3.5130457226
NI      9.8291982134     2.8374439271     3.5130578643
NI     11.0578557273     4.9655307689     3.5130457226
NI     12.2865122528     7.0936211561     3.5130204307
NI     13.5151494223     9.2216931669     3.5130079319
NI     14.7437952610    11.3497601748     3.5130204307
NI     11.0578692387     0.7093485344     3.5130082712
NI     12.2865183991     2.8374313033     3.5130082712
NI     13.5151593437     4.9655269815     3.5130042556
NI     14.7437952600     7.0936161521     3.5130079319
NI     15.9724410977     9.2216931669     3.5130079319
NI     17.2011024224    11.3497676680     3.5130042556
NI     13.5151647469     0.7093501583     3.5129676613
NI     14.7437952600     2.8374250172     3.5129780008
NI     15.9724311763     4.9655269815     3.5130042556
NI     17.2010782682     7.0936211561     3.5130204307
NI     18.4297383387     9.2217078365     3.5130042556
NI     19.6584107431    11.3497887344     3.5129780008
NI      2.4572756890     1.4187087802     5.5294149815
NI      3.6859503876     3.5467998880     5.5294618029
NI      4.9146105969     5.6748824106     5.5294847252
NI      6.1432540187     7.8029746266     5.5294618029
NI      7.3718976300     9.9310836827     5.5294149815
NI      8.6005285037    12.0591508775     5.5293923208
NI      4.9145939989     1.4187267284     5.5294618029
NI      6.1432580239     3.5468116739     5.5295014794
NI      7.3718976300     5.6748778953     5.5295014794
NI      8.6005412413     7.8029746266     5.5294618029
NI      9.8291835456     9.9310750418     5.5294183837
NI     11.0578237601    12.0591423169     5.5294183837
NI      7.3718976290     1.4187364207     5.5294847252
NI      8.6005372361     3.5468116739     5.5295014794
NI      9.8291846621     5.6748824106     5.5294847252
NI     11.0578456912     7.8029775041     5.5294496767
NI     12.2864931649     9.9310581887     5.5294324794
NI     13.5151413613    12.0591384538     5.5294496767
NI      9.8292012611     1.4187267284     5.5294618029
NI     11.0578448724     3.5467998880     5.5294618029
NI     12.2864995899     5.6748865280     5.5294496767
NI     13.5151503024     7.8029756652     5.5294413853
NI     14.7437952600     9.9310511567     5.5294413853
NI     15.9724491577    12.0591384538     5.5294496767
NI     12.2865195710     1.4187087802     5.5294149815
NI     13.5151550455     3.5467851283     5.5294183837
NI     14.7437952600     5.6748861096     5.5294324794
NI     15.9724402176     7.8029756652     5.5294413853
NI     17.2010973551     9.9310581887     5.5294324794
NI     18.4297667599    12.0591423169     5.5294183837
NI     14.7437952590     1.4187007310     5.5293923208
NI     15.9724354745     3.5467851283     5.5294183837
NI     17.2010909291     5.6748865280     5.5294496767
NI     18.4297448268     7.8029775041     5.5294496767
NI     19.6584069744     9.9310750418     5.5294183837
NI     20.8870620153    12.0591508775     5.5293923208