144
Step 1 | ATOMIC_POSITIONS (angstrom) | Cartesian Angstrom
NI      0.0000000000     0.0000000000     1.5000000000
NI     15.9724448650     2.1280835410     1.5000000000
NI     17.2010944700     4.2561670810     1.5000000000
NI      3.6859488150     6.3842506220     1.5000000000
NI     19.6583936800     8.5123341620     1.5000000000
NI     20.8870432850    10.6404177020     1.5000000000
NI      2.4572992100     0.0000000000     1.5000000000
NI      3.6859488160     2.1280835410     1.5000000000
NI      4.9145984200     4.2561670810     1.5000000000
NI      6.1432480250     6.3842506220     1.5000000000
NI      7.3718976300     8.5123341620     1.5000000000
NI      8.6005472350    10.6404177020     1.5000000000
NI      4.9145984200    -0.0000000000     1.5000000000
NI      6.1432480250     2.1280835410     1.5000000000
NI      7.3718976300     4.2561670810     1.5000000000
NI      8.6005472350     6.3842506220     1.5000000000
NI      9.8291968400     8.5123341620     1.5000000000
NI     11.0578464450    10.6404177020     1.5000000000
NI      7.3718976300     0.0000000000     1.5000000000
NI      8.6005472350     2.1280835410     1.5000000000
NI      9.8291968400     4.2561670810     1.5000000000
NI     11.0578464450     6.3842506220     1.5000000000
NI     12.2864960500     8.5123341620     1.5000000000
NI     13.5151456550    10.6404177020     1.5000000000
NI      9.8291968400     0.0000000000     1.5000000000
NI     11.0578464450     2.1280835410     1.5000000000
NI     12.2864960500     4.2561670810     1.5000000000
NI     13.5151456550     6.3842506220     1.5000000000
NI     14.7437952600     8.5123341620     1.5000000000
NI     15.9724448650    10.6404177020     1.5000000000
NI     12.2864960500    -0.0000000000     1.5000000000
NI     13.5151456550     2.1280835410     1.5000000000
NI     14.7437952600     4.2561670810     1.5000000000
NI     15.9724448650     6.3842506220     1.5000000000
NI     17.2010944700     8.5123341620     1.5000000000
NI     18.4297440740    10.6404177020     1.5000000000
NI      1.2286153933     0.7093414283     3.5128897956
NI      2.4572477306     2.8374047109     3.5129244656
NI      3.6859085207     4.9655214199     3.5129563129
NI      4.9145841979     7.0936501194     3.5129563129
NI      6.1432569342     9.2217599290     3.5129244656
NI      7.3718976310    11.3498183885     3.5128897956
NI      3.6858884264     0.7093366031     3.5129244656
NI      4.9145544471     2.8374193322     3.5129628392
NI      6.1432315159     4.9655377926     3.5129813668
NI      7.3718976300     7.0936625775     3.5129628392
NI      8.6005383258     9.2217599290     3.5129244656
NI      9.8291553308    11.3498028483     3.5129039204
NI      6.1432219527     0.7093297048     3.5129563129
NI      7.3718976300     2.8374256569     3.5129813668
NI      8.6005637441     4.9655377926     3.5129813668
NI      9.8292110631     7.0936501194     3.5129563129
NI     11.0578376160     9.2217280630     3.5129316804
NI     12.2864632982    11.3497701687     3.5129316804
NI      8.6005733083     0.7093297048     3.5129563129
NI      9.8292408129     2.8374193322     3.5129628392
NI     11.0578867413     4.9655214199     3.5129563129
NI     12.2865185935     7.0936248169     3.5129444648
NI     13.5151457974     9.2216952598     3.5129391646
NI     14.7437952610    11.3497528531     3.5129444648
NI     11.0579068336     0.7093366031     3.5129244656
NI     12.2865475294     2.8374047109     3.5129244656
NI     13.5151695777     4.9655042543     3.5129316804
NI     14.7437952600     7.0936119665     3.5129391646
NI     15.9724447226     9.2216952598     3.5129391646
NI     17.2011272218    11.3497701687     3.5129316804
NI     13.5151798677     0.7093414283     3.5128897956
NI     14.7437952600     2.8373967893     3.5129039204
NI     15.9724209423     4.9655042543     3.5129316804
NI     17.2010719275     7.0936248169     3.5129444648
NI     18.4297529040     9.2217280630     3.5129316804
NI     19.6584351892    11.3498028483     3.5129039204
NI      2.4572488215     1.4186932682     5.5291518106
NI      3.6859064456     3.5467812058     5.5291981973
NI      4.9145789875     5.6749006604     5.5292198470
NI      6.1432482269     7.8030220226     5.5291981973
NI      7.3718976300     9.9311147066     5.5291518106
NI      8.6005197582    12.0591559267     5.5291266295
NI      4.9145558487     1.4186980146     5.5291981973
NI      6.1432305729     3.5467958250     5.5292308187
NI      7.3718976300     5.6749095930     5.5292308187
NI      8.6005470331     7.8030220226     5.5291981973
NI      9.8291752218     9.9310981006     5.5291644749
NI     11.0577996286    12.0591379961     5.5291644749
NI      7.3718976290     1.4186999212     5.5292198470
NI      8.6005646871     3.5467958250     5.5292308187
NI      9.8292162715     5.6749006604     5.5292198470
NI     11.0578547780     7.8030001612     5.5291991882
NI     12.2864831872     9.9310639494     5.5291892409
NI     13.5151262831    12.0591192559     5.5291991882
NI      9.8292394113     1.4186980146     5.5291981973
NI     11.0578888144     3.5467812058     5.5291981973
NI     12.2865237549     5.6748830688     5.5291991882
NI     13.5151543339     7.8029779928     5.5292000167
NI     14.7437952600     9.9310465015     5.5292000167
NI     15.9724642359    12.0591192559     5.5291991882
NI     12.2865464385     1.4186932682     5.5291518106
NI     13.5151708532     3.5467663902     5.5291644749
NI     14.7437952600     5.6748745883     5.5291892409
NI     15.9724361861     7.8029779928     5.5292000167
NI     17.2011073328     9.9310639494     5.5291892409
NI     18.4297908914    12.0591379961     5.5291644749
NI     14.7437952590     1.4186906326     5.5291266295
NI     15.9724196668     3.5467663902     5.5291644749
NI     17.2010667641     5.6748830688     5.5291991882
NI     18.4297357400     7.8030001612     5.5291991882
NI     19.6584152982     9.9310981006     5.5291644749
NI     20.8870707608    12.0591559267     5.5291266295
NI      0.0000000000     0.0000000000     7.5430035498
NI     15.9724196691     2.1280533156     7.5430222062
NI     17.2010631642     4.2561492934     7.5430540586
NI      3.6859291217     6.3842619919     7.5430688177
NI     19.6583934316     8.5123701674     7.5430540586
NI     20.8870568630    10.6404546350     7.5430222062
NI      2.4572604361    -0.0000067076     7.5430222062
NI      3.6859069976     2.1280593971     7.5430439561
NI      4.9145760252     4.2561605656     7.5430633588
NI      6.1432424701     6.3842732741     7.5430633588
NI      7.3718976300     8.5123824497     7.5430439561
NI      8.6005336570    10.6404546350     7.5430222062
NI      4.9145673626    -0.0000182178     7.5430540586
NI      6.1432311851     2.1280674042     7.5430633588
NI      7.3718976300     4.2561670810     7.5430693032
NI      8.6005527899     6.3842732741     7.5430633588
NI      9.8291970884     8.5123701674     7.5430540586
NI     11.0578273914    10.6404287026     7.5430507516
NI      7.3718976300    -0.0000227399     7.5430688177
NI      8.6005640749     2.1280674042     7.5430633588
NI      9.8292192348     4.2561605656     7.5430633588
NI     11.0578661383     6.3842619919     7.5430688177
NI     12.2865053062     8.5123455489     7.5430752005
NI     13.5151404217    10.6404039925     7.5430752005
NI      9.8292278974    -0.0000182178     7.5430540586
NI     11.0578882634     2.1280593971     7.5430439561
NI     12.2865273558     4.2561492934     7.5430540586
NI     13.5151601444     6.3842529446     7.5430752005
NI     14.7437952600     8.5123341620     7.5430854921
NI     15.9724500983    10.6404039925     7.5430752005
NI     12.2865348239    -0.0000067076     7.5430222062
NI     13.5151708509     2.1280533156     7.5430222062
NI     14.7437952600     4.2561450798     7.5430507516
NI     15.9724303756     6.3842529446     7.5430752005
NI     17.2010852138     8.5123455489     7.5430752005
NI     18.4297631276    10.6404287026     7.5430507516
