144
Step 1 | ATOMIC_POSITIONS (angstrom) | Cartesian Angstrom
NI      0.0000000000     0.0000000000     1.5000000000
NI     15.9724448650     2.1280835410     1.5000000000
NI     17.2010944700     4.2561670810     1.5000000000
NI      3.6859488150     6.3842506220     1.5000000000
NI     19.6583936800     8.5123341620     1.5000000000
NI     20.8870432850    10.6404177020     1.5000000000
NI      2.4572992100     0.0000000000     1.5000000000
NI      3.6859488160     2.1280835410     1.5000000000
NI      4.9145984200     4.2561670810     1.5000000000
NI      6.1432480250     6.3842506220     1.5000000000
NI      7.3718976300     8.5123341620     1.5000000000
NI      8.6005472350    10.6404177020     1.5000000000
NI      4.9145984200     0.0000000000     1.5000000000
NI      6.1432480250     2.1280835410     1.5000000000
NI      7.3718976300     4.2561670810     1.5000000000
NI      8.6005472350     6.3842506220     1.5000000000
NI      9.8291968400     8.5123341620     1.5000000000
NI     11.0578464450    10.6404177020     1.5000000000
NI      7.3718976300     0.0000000000     1.5000000000
NI      8.6005472350     2.1280835410     1.5000000000
NI      9.8291968400     4.2561670810     1.5000000000
NI     11.0578464450     6.3842506220     1.5000000000
NI     12.2864960500     8.5123341620     1.5000000000
NI     13.5151456550    10.6404177020     1.5000000000
NI      9.8291968400     0.0000000000     1.5000000000
NI     11.0578464450     2.1280835410     1.5000000000
NI     12.2864960500     4.2561670810     1.5000000000
NI     13.5151456550     6.3842506220     1.5000000000
NI     14.7437952600     8.5123341620     1.5000000000
NI     15.9724448650    10.6404177020     1.5000000000
NI     12.2864960500     0.0000000000     1.5000000000
NI     13.5151456550     2.1280835410     1.5000000000
NI     14.7437952600     4.2561670810     1.5000000000
NI     15.9724448650     6.3842506220     1.5000000000
NI     17.2010944700     8.5123341620     1.5000000000
NI     18.4297440740    10.6404177020     1.5000000000
NI      1.2286400881     0.7093556858     3.5059921401
NI      2.4572814677     2.8374360308     3.5059919209
NI      3.6859316487     4.9655303178     3.5059925509
NI      4.9145880561     7.0936256409     3.5059925509
NI      6.1432466789     9.2217150518     3.5059919209
NI      7.3718976310    11.3497898733     3.5059921401
NI      3.6859324188     0.7093501604     3.5059919209
NI      4.9145838402     2.8374363023     3.5059914845
NI      6.1432407388     4.9655324677     3.5059919417
NI      7.3718976300     7.0936286373     3.5059914845
NI      8.6005485811     9.2217150518     3.5059919209
NI      9.8291892449    11.3497832680     3.5059925032
NI      6.1432412226     0.7093452853     3.5059925509
NI      7.3718976300     2.8374363066     3.5059919417
NI      8.6005545212     4.9655324677     3.5059919417
NI      9.8292072049     7.0936256409     3.5059925509
NI     11.0578509198     9.2217042542     3.5059946832
NI     12.2864905692    11.3497705516     3.5059946832
NI      8.6005540384     0.7093452853     3.5059925509
NI      9.8292114198     2.8374363023     3.5059914845
NI     11.0578636133     4.9655303178     3.5059925509
NI     12.2865085030     7.0936189912     3.5059962283
NI     13.5151487472     9.2216935567     3.5059990256
NI     14.7437952610    11.3497645047     3.5059962283
NI     11.0578628412     0.7093501604     3.5059919209
NI     12.2865137923     2.8374360308     3.5059919209
NI     13.5151556106     4.9655276802     3.5059946832
NI     14.7437952600     7.0936153725     3.5059990256
NI     15.9724417728     9.2216935567     3.5059990256
NI     17.2010999508    11.3497705516     3.5059946832
NI     13.5151551729     0.7093556858     3.5059921401
NI     14.7437952600     2.8374359499     3.5059925032
NI     15.9724349094     4.9655276802     3.5059946832
NI     17.2010820180     7.0936189912     3.5059962283
NI     18.4297396002     9.2217042542     3.5059946832
NI     19.6584012751    11.3497832680     3.5059925032
NI      2.4572831006     1.4187130592     5.5131380978
NI      3.6859317066     3.5468017348     5.5131413048
NI      4.9145860629     5.6748965754     5.5131430375
NI      6.1432430788     7.8029898814     5.5131413048
NI      7.3718976300     9.9310751245     5.5131380978
NI      8.6005409203    12.0591437088     5.5131366850
NI      4.9145862578     1.4187096268     5.5131413048
NI      6.1432414623     3.5468021120     5.5131446261
NI      7.3718976300     5.6748970190     5.5131446261
NI      8.6005521812     7.8029898814     5.5131413048
NI      9.8291982197     9.9310680281     5.5131388628
NI     11.0578371711    12.0591331156     5.5131388628
NI      7.3718976290     1.4187080912     5.5131430375
NI      8.6005537977     3.5468021120     5.5131446261
NI      9.8292091961     5.6748965754     5.5131430375
NI     11.0578596150     7.8029841363     5.5131414010
NI     12.2865002995     9.9310540695     5.5131411274
NI     13.5151425795    12.0591230794     5.5131414010
NI      9.8292090022     1.4187096268     5.5131413048
NI     11.0578635534     3.5468017348     5.5131413048
NI     12.2865122954     5.6748952702     5.5131414010
NI     13.5151538375     7.8029777062     5.5131424213
NI     14.7437952600     9.9310470747     5.5131424213
NI     15.9724479395    12.0591230794     5.5131414010
NI     12.2865121594     1.4187130592     5.5131380978
NI     13.5151563086     3.5468013433     5.5131388628
NI     14.7437952600     5.6748943479     5.5131411274
NI     15.9724366825     7.8029777062     5.5131424213
NI     17.2010902205     9.9310540695     5.5131411274
NI     18.4297533489    12.0591331156     5.5131388628
NI     14.7437952590     1.4187150684     5.5131366850
NI     15.9724342114     3.5468013433     5.5131388628
NI     17.2010782236     5.6748952702     5.5131414010
NI     18.4297309030     7.8029841363     5.5131414010
NI     19.6583923003     9.9310680281     5.5131388628
NI     20.8870495987    12.0591437088     5.5131366850
NI      0.0000000000     0.0000000000     7.5199897380
NI     15.9724365712     2.1280772048     7.5199932429
NI     17.2010812022     4.2561672080     7.5199985704
NI      3.6859359082     6.3842580737     7.5200005931
NI     19.6583869361     8.5123455888     7.5199985704
NI     20.8870446254    10.6404280527     7.5199932429
NI      2.4572895758    -0.0000040145     7.5199932429
NI      3.6859359692     2.1280761239     7.5200003374
NI      4.9145892305     4.2561672082     7.5200054502
NI      6.1432433201     6.3842585167     7.5200054502
NI      7.3718976300     8.5123489962     7.5200003374
NI      8.6005458946    10.6404280527     7.5199932429
NI      4.9145918961    -0.0000115538     7.5199985704
NI      6.1432435404     2.1280755191     7.5200054502
NI      7.3718976300     4.2561670810     7.5200080866
NI      8.6005519399     6.3842585167     7.5200054502
NI      9.8292035839     8.5123455888     7.5199985704
NI     11.0578466189    10.6404176016     7.5199943041
NI      7.3718976300    -0.0000149035     7.5200005931
NI      8.6005517196     2.1280755191     7.5200054502
NI      9.8292060295     4.2561672082     7.5200054502
NI     11.0578593518     6.3842580737     7.5200005931
NI     12.2865057488     8.5123380202     7.5199940460
NI     13.5151471631    10.6404073735     7.5199940460
NI      9.8292033639    -0.0000115538     7.5199985704
NI     11.0578592918     2.1280761239     7.5200003374
NI     12.2865093178     4.2561672080     7.5199985704
NI     13.5151538457     6.3842570923     7.5199940460
NI     14.7437952600     8.5123341620     7.5199913034
NI     15.9724433569    10.6404073735     7.5199940460
NI     12.2865056842    -0.0000040145     7.5199932429
NI     13.5151539488     2.1280772048     7.5199932429
NI     14.7437952600     4.2561672818     7.5199943041
NI     15.9724366743     6.3842570923     7.5199940460
NI     17.2010847712     8.5123380202     7.5199940460
NI     18.4297439001    10.6404176016     7.5199943041
144
Step 2 | ATOMIC_POSITIONS (angstrom) | Cartesian Angstrom
NI      0.0000000000     0.0000000000     1.5000000000
NI     15.9724448650     2.1280835410     1.5000000000
NI     17.2010944700     4.2561670810     1.5000000000
NI      3.6859488150     6.3842506220     1.5000000000
NI     19.6583936800     8.5123341620     1.5000000000
NI     20.8870432850    10.6404177020     1.5000000000
NI      2.4572992100     0.0000000000     1.5000000000
NI      3.6859488160     2.1280835410     1.5000000000
NI      4.9145984200     4.2561670810     1.5000000000
NI      6.1432480250     6.3842506220     1.5000000000
NI      7.3718976300     8.5123341620     1.5000000000
NI      8.6005472350    10.6404177020     1.5000000000
NI      4.9145984200    -0.0000000000     1.5000000000
NI      6.1432480250     2.1280835410     1.5000000000
NI      7.3718976300     4.2561670810     1.5000000000
NI      8.6005472350     6.3842506220     1.5000000000
NI      9.8291968400     8.5123341620     1.5000000000
NI     11.0578464450    10.6404177020     1.5000000000
NI      7.3718976300     0.0000000000     1.5000000000
NI      8.6005472350     2.1280835410     1.5000000000
NI      9.8291968400     4.2561670810     1.5000000000
NI     11.0578464450     6.3842506220     1.5000000000
NI     12.2864960500     8.5123341620     1.5000000000
NI     13.5151456550    10.6404177020     1.5000000000
NI      9.8291968400     0.0000000000     1.5000000000
NI     11.0578464450     2.1280835410     1.5000000000
NI     12.2864960500     4.2561670810     1.5000000000
NI     13.5151456550     6.3842506220     1.5000000000
NI     14.7437952600     8.5123341620     1.5000000000
NI     15.9724448650    10.6404177020     1.5000000000
NI     12.2864960500    -0.0000000000     1.5000000000
NI     13.5151456550     2.1280835410     1.5000000000
NI     14.7437952600     4.2561670810     1.5000000000
NI     15.9724448650     6.3842506220     1.5000000000
NI     17.2010944700     8.5123341620     1.5000000000
NI     18.4297440740    10.6404177020     1.5000000000
NI      1.2286283929     0.7093489336     3.5056551235
NI      2.4572732862     2.8374137696     3.5056572570
NI      3.6859388294     4.9655127556     3.5056609685
NI      4.9146068558     7.0936282033     3.5056609685
NI      6.1432618669     9.2217332678     3.5056572570
NI      7.3718976310    11.3498033778     3.5056551235
NI      3.6859090493     0.7093542055     3.5056572570
NI      4.9145757135     2.8374316104     3.5056605737
NI      6.1432440380     4.9655305629     3.5056631980
NI      7.3718976300     7.0936380212     3.5056605737
NI      8.6005333931     9.2217332678     3.5056572570
NI      9.8291623027    11.3497988231     3.5056562379
NI      6.1432296037     0.7093602851     3.5056609685
NI      7.3718976300     2.8374401162     3.5056631980
NI      8.6005512220     4.9655305629     3.5056631980
NI      9.8291884052     7.0936282033     3.5056609685
NI     11.0578202001     9.2217178786     3.5056607765
NI     12.2864634103    11.3497903435     3.5056607765
NI      8.6005656573     0.7093602851     3.5056609685
NI      9.8292195465     2.8374316104     3.5056605737
NI     11.0578564326     4.9655127556     3.5056609685
NI     12.2864895688     7.0936080595     3.5056637224
NI     13.5151335267     9.2217023443     3.5056661716
NI     14.7437952610    11.3497863680     3.5056637224
NI     11.0578862107     0.7093542055     3.5056572570
NI     12.2865219738     2.8374137696     3.5056572570
NI     13.5151520498     4.9654942639     3.5056607765
NI     14.7437952600     7.0935977974     3.5056661716
NI     15.9724569933     9.2217023443     3.5056661716
NI     17.2011271097    11.3497903435     3.5056607765
NI     13.5151668681     0.7093489336     3.5056551235
NI     14.7437952600     2.8374048398     3.5056562379
NI     15.9724384702     4.9654942639     3.5056607765
NI     17.2011009522     7.0936080595     3.5056637224
NI     18.4297703199     9.2217178786     3.5056607765
NI     19.6584282173    11.3497988231     3.5056562379
NI      2.4572696480     1.4187052923     5.5135761440
NI      3.6859312586     3.5467874741     5.5135855805
NI      4.9145980202     5.6748896718     5.5135908580
NI      6.1432552050     7.8029973998     5.5135855805
NI      7.3718976300     9.9310906583     5.5135761440
NI      8.6005278367    12.0591512626     5.5135720343
NI      4.9145736836     1.4187163692     5.5135855805
NI      6.1432413484     3.5468020463     5.5135931080
NI      7.3718976300     5.6748971504     5.5135931080
NI      8.6005400550     7.8029973998     5.5135855805
NI      9.8291733785     9.9310829591     5.5135796766
NI     11.0578118199    12.0591471632     5.5135796766
NI      7.3718976290     1.4187218983     5.5135908580
NI      8.6005539116     3.5468020463     5.5135931080
NI      9.8291972388     5.6748896718     5.5135908580
NI     11.0578354017     7.8029843458     5.5135883516
NI     12.2864758419     9.9310681901     5.5135879290
NI     13.5151302915    12.0591439440     5.5135883516
NI      9.8292215764     1.4187163692     5.5135855805
NI     11.0578640014     3.5467874741     5.5135855805
NI     12.2865003702     5.6748741962     5.5135883516
NI     13.5151418790     7.8029708019     5.5135921546
NI     14.7437952600     9.9310608831     5.5135921546
NI     15.9724602275    12.0591439440     5.5135883516
NI     12.2865256120     1.4187052923     5.5135761440
NI     13.5151568186     3.5467723647     5.5135796766
NI     14.7437952600     5.6748661068     5.5135879290
NI     15.9724486410     7.8029708019     5.5135921546
NI     17.2011146781     9.9310681901     5.5135879290
NI     18.4297787001    12.0591471632     5.5135796766
NI     14.7437952590     1.4186999608     5.5135720343
NI     15.9724337014     3.5467723647     5.5135796766
NI     17.2010901488     5.6748741962     5.5135883516
NI     18.4297551163     7.8029843458     5.5135883516
NI     19.6584171415     9.9310829591     5.5135796766
NI     20.8870626823    12.0591512626     5.5135720343
NI      0.0000000000     0.0000000000     7.5209254997
NI     15.9724330316     2.1280627696     7.5209343656
NI     17.2010858011     4.2561492886     7.5209494431
NI      3.6859510341     6.3842493408     7.5209561863
NI     19.6584047542     8.5123505657     7.5209494431
NI     20.8870553569    10.6404383358     7.5209343656
NI      2.4572753047     0.0000001377     7.5209343656
NI      3.6859301381     2.1280727573     7.5209459484
NI      4.9145944871     4.2561613720     7.5209551356
NI      6.1432510027     6.3842568825     7.5209551356
NI      7.3718976300     8.5123557294     7.5209459484
NI      8.6005351631    10.6404383358     7.5209343656
NI      4.9145786769     0.0000013887     7.5209494431
NI      6.1432411144     2.1280829895     7.5209551356
NI      7.3718976300     4.2561670810     7.5209573203
NI      8.6005442573     6.3842568825     7.5209551356
NI      9.8291857658     8.5123505657     7.5209494431
NI     11.0578257237    10.6404296654     7.5209457261
NI      7.3718976300     0.0000025624     7.5209561863
NI      8.6005541456     2.1280829895     7.5209551356
NI      9.8292007729     4.2561613720     7.5209551356
NI     11.0578442259     6.3842493408     7.5209561863
NI     12.2864882631     8.5123396078     7.5209555531
NI     13.5151370454    10.6404217228     7.5209555531
NI      9.8292165831     0.0000013887     7.5209494431
NI     11.0578651229     2.1280727573     7.5209459484
NI     12.2865047189     4.2561492886     7.5209494431
NI     13.5151464777     6.3842411554     7.5209555531
NI     14.7437952600     8.5123341620     7.5209580655
NI     15.9724534746    10.6404217228     7.5209555531
NI     12.2865199553     0.0000001377     7.5209343656
NI     13.5151574884     2.1280627696     7.5209343656
NI     14.7437952600     4.2561431541     7.5209457261
NI     15.9724440423     6.3842411554     7.5209555531
NI     17.2011022569     8.5123396078     7.5209555531
NI     18.4297647953    10.6404296654     7.5209457261
144
Step 3 | ATOMIC_POSITIONS (angstrom) | Cartesian Angstrom
NI      0.0000000000     0.0000000000     1.5000000000
NI     15.9724448650     2.1280835410     1.5000000000
NI     17.2010944700     4.2561670810     1.5000000000
NI      3.6859488150     6.3842506220     1.5000000000
NI     19.6583936800     8.5123341620     1.5000000000
NI     20.8870432850    10.6404177020     1.5000000000
NI      2.4572992100     0.0000000000     1.5000000000
NI      3.6859488160     2.1280835410     1.5000000000
NI      4.9145984200     4.2561670810     1.5000000000
NI      6.1432480250     6.3842506220     1.5000000000
NI      7.3718976300     8.5123341620     1.5000000000
NI      8.6005472350    10.6404177020     1.5000000000
NI      4.9145984200    -0.0000000000     1.5000000000
NI      6.1432480250     2.1280835410     1.5000000000
NI      7.3718976300     4.2561670810     1.5000000000
NI      8.6005472350     6.3842506220     1.5000000000
NI      9.8291968400     8.5123341620     1.5000000000
NI     11.0578464450    10.6404177020     1.5000000000
NI      7.3718976300     0.0000000000     1.5000000000
NI      8.6005472350     2.1280835410     1.5000000000
NI      9.8291968400     4.2561670810     1.5000000000
NI     11.0578464450     6.3842506220     1.5000000000
NI     12.2864960500     8.5123341620     1.5000000000
NI     13.5151456550    10.6404177020     1.5000000000
NI      9.8291968400     0.0000000000     1.5000000000
NI     11.0578464450     2.1280835410     1.5000000000
NI     12.2864960500     4.2561670810     1.5000000000
NI     13.5151456550     6.3842506220     1.5000000000
NI     14.7437952600     8.5123341620     1.5000000000
NI     15.9724448650    10.6404177020     1.5000000000
NI     12.2864960500    -0.0000000000     1.5000000000
NI     13.5151456550     2.1280835410     1.5000000000
NI     14.7437952600     4.2561670810     1.5000000000
NI     15.9724448650     6.3842506220     1.5000000000
NI     17.2010944700     8.5123341620     1.5000000000
NI     18.4297440740    10.6404177020     1.5000000000
NI      1.2286293392     0.7093494800     3.5053242525
NI      2.4572739515     2.8374157127     3.5053287778
NI      3.6859379406     4.9655144816     3.5053343173
NI      4.9146049166     7.0936281101     3.5053343173
NI      6.1432605168     9.2217317202     3.5053287778
NI      7.3718976310    11.3498022851     3.5053242525
NI      3.6859110646     0.7093538101     3.5053287778
NI      4.9145764502     2.8374320357     3.5053338080
NI      6.1432437437     4.9655307328     3.5053371676
NI      7.3718976300     7.0936371705     3.5053338080
NI      8.6005347432     9.2217317202     3.5053287778
NI      9.8291645511    11.3497975250     3.5053266984
NI      6.1432306540     0.7093586523     3.5053343173
NI      7.3718976300     2.8374397763     3.5053371676
NI      8.6005515163     4.9655307328     3.5053371676
NI      9.8291903444     7.0936281101     3.5053343173
NI     11.0578231487     9.2217167494     3.5053332934
NI     12.2864658625    11.3497883545     3.5053332934
NI      8.6005646070     0.7093586523     3.5053343173
NI      9.8292188098     2.8374320357     3.5053338080
NI     11.0578573214     4.9655144816     3.5053343173
NI     12.2864915200     7.0936091860     3.5053370806
NI     13.5151347672     9.2217016281     3.5053394819
NI     14.7437952610    11.3497841149     3.5053370806
NI     11.0578841954     0.7093538101     3.5053287778
NI     12.2865213085     2.8374157127     3.5053287778
NI     13.5151525462     4.9654973821     3.5053332934
NI     14.7437952600     7.0935992298     3.5053394819
NI     15.9724557528     9.2217016281     3.5053394819
NI     17.2011246575    11.3497883545     3.5053332934
NI     13.5151659218     0.7093494800     3.5053242525
NI     14.7437952600     2.8374074360     3.5053266984
NI     15.9724379738     4.9654973821     3.5053332934
NI     17.2010990010     7.0936091860     3.5053370806
NI     18.4297673713     9.2217167494     3.5053332934
NI     19.6584259689    11.3497975250     3.5053266984
NI      2.4572700889     1.4187055469     5.5142213161
NI      3.6859302712     3.5467880187     5.5142305837
NI      4.9145964836     5.6748905590     5.5142356249
NI      6.1432542396     7.8029979826     5.5142305837
NI      7.3718976300     9.9310901491     5.5142213161
NI      8.6005286699    12.0591507815     5.5142169786
NI      4.9145736616     1.4187152418     5.5142305837
NI      6.1432408377     3.5468017514     5.5142379547
NI      7.3718976300     5.6748977401     5.5142379547
NI      8.6005410204     7.8029979826     5.5142305837
NI      9.8291749465     9.9310824802     5.5142245967
NI     11.0578130186    12.0591460447     5.5142245967
NI      7.3718976290     1.4187201240     5.5142356249
NI      8.6005544223     3.5468017514     5.5142379547
NI      9.8291987754     5.6748905590     5.5142356249
NI     11.0578373018     7.8029849224     5.5142328547
NI     12.2864771827     9.9310674161     5.5142323123
NI     13.5151307422    12.0591420102     5.5142328547
NI      9.8292215984     1.4187152418     5.5142305837
NI     11.0578649888     3.5467880187     5.5142305837
NI     12.2865018196     5.6748755534     5.5142328547
NI     13.5151426665     7.8029712566     5.5142362586
NI     14.7437952600     9.9310599738     5.5142362586
NI     15.9724597768    12.0591420102     5.5142328547
NI     12.2865251711     1.4187055469     5.5142213161
NI     13.5151571879     3.5467739620     5.5142245967
NI     14.7437952600     5.6748676549     5.5142323123
NI     15.9724478535     7.8029712566     5.5142362586
NI     17.2011133373     9.9310674161     5.5142323123
NI     18.4297775014    12.0591460447     5.5142245967
NI     14.7437952590     1.4187009229     5.5142169786
NI     15.9724333321     3.5467739620     5.5142245967
NI     17.2010886994     5.6748755534     5.5142328547
NI     18.4297532162     7.8029849224     5.5142328547
NI     19.6584155735     9.9310824802     5.5142245967
NI     20.8870618491    12.0591507815     5.5142169786
NI      0.0000000000     0.0000000000     7.5223756429
NI     15.9724322769     2.1280621394     7.5223837505
NI     17.2010845021     4.2561490236     7.5223978098
NI      3.6859500016     6.3842499369     7.5224042477
NI     19.6584043342     8.5123518232     7.5223978098
NI     20.8870555253    10.6404393044     7.5223837505
NI      2.4572743816    -0.0000002008     7.5223837505
NI      3.6859286490     2.1280718976     7.5223947547
NI      4.9145935179     4.2561612370     7.5224038100
NI      6.1432506350     6.3842577894     7.5224038100
NI      7.3718976300     8.5123574489     7.5223947547
NI      8.6005349947    10.6404393044     7.5223837505
NI      4.9145777979     0.0000003962     7.5223978098
NI      6.1432405129     2.1280822176     7.5224038100
NI      7.3718976300     4.2561670810     7.5224063483
NI      8.6005446250     6.3842577894     7.5224038100
NI      9.8291861858     8.5123518232     7.5223978098
NI     11.0578256233    10.6404297234     7.5223941425
NI      7.3718976300     0.0000013701     7.5224042477
NI      8.6005547471     2.1280822176     7.5224038100
NI      9.8292017421     4.2561612370     7.5224038100
NI     11.0578452584     6.3842499369     7.5224042477
NI     12.2864889375     8.5123400314     7.5224033344
NI     13.5151370157    10.6404209269     7.5224033344
NI      9.8292174621     0.0000003962     7.5223978098
NI     11.0578666120     2.1280718976     7.5223947547
NI     12.2865060179     4.2561490236     7.5223978098
NI     13.5151471818     6.3842415277     7.5224033344
NI     14.7437952600     8.5123341620     7.5224058741
NI     15.9724535043    10.6404209269     7.5224033344
NI     12.2865208784    -0.0000002008     7.5223837505
NI     13.5151582431     2.1280621394     7.5223837505
NI     14.7437952600     4.2561430382     7.5223941425
NI     15.9724433382     6.3842415277     7.5224033344
NI     17.2011015825     8.5123400314     7.5224033344
NI     18.4297648957    10.6404297234     7.5223941425
144
Step 4 | ATOMIC_POSITIONS (angstrom) | Cartesian Angstrom
NI      0.0000000000     0.0000000000     1.5000000000
NI     15.9724448650     2.1280835410     1.5000000000
NI     17.2010944700     4.2561670810     1.5000000000
NI      3.6859488150     6.3842506220     1.5000000000
NI     19.6583936800     8.5123341620     1.5000000000
NI     20.8870432850    10.6404177020     1.5000000000
NI      2.4572992100     0.0000000000     1.5000000000
NI      3.6859488160     2.1280835410     1.5000000000
NI      4.9145984200     4.2561670810     1.5000000000
NI      6.1432480250     6.3842506220     1.5000000000
NI      7.3718976300     8.5123341620     1.5000000000
NI      8.6005472350    10.6404177020     1.5000000000
NI      4.9145984200    -0.0000000000     1.5000000000
NI      6.1432480250     2.1280835410     1.5000000000
NI      7.3718976300     4.2561670810     1.5000000000
NI      8.6005472350     6.3842506220     1.5000000000
NI      9.8291968400     8.5123341620     1.5000000000
NI     11.0578464450    10.6404177020     1.5000000000
NI      7.3718976300     0.0000000000     1.5000000000
NI      8.6005472350     2.1280835410     1.5000000000
NI      9.8291968400     4.2561670810     1.5000000000
NI     11.0578464450     6.3842506220     1.5000000000
NI     12.2864960500     8.5123341620     1.5000000000
NI     13.5151456550    10.6404177020     1.5000000000
NI      9.8291968400     0.0000000000     1.5000000000
NI     11.0578464450     2.1280835410     1.5000000000
NI     12.2864960500     4.2561670810     1.5000000000
NI     13.5151456550     6.3842506220     1.5000000000
NI     14.7437952600     8.5123341620     1.5000000000
NI     15.9724448650    10.6404177020     1.5000000000
NI     12.2864960500    -0.0000000000     1.5000000000
NI     13.5151456550     2.1280835410     1.5000000000
NI     14.7437952600     4.2561670810     1.5000000000
NI     15.9724448650     6.3842506220     1.5000000000
NI     17.2010944700     8.5123341620     1.5000000000
NI     18.4297440740    10.6404177020     1.5000000000
NI      1.2286303652     0.7093500723     3.5050265733
NI      2.4572741240     2.8374173185     3.5050346875
NI      3.6859362050     4.9655159189     3.5050435022
NI      4.9146028041     7.0936288945     3.5050435022
NI      6.1432592124     9.2217307678     3.5050346875
NI      7.3718976310    11.3498011004     3.5050265733
NI      3.6859125416     0.7093531567     3.5050346875
NI      4.9145759994     2.8374317755     3.5050414423
NI      6.1432426944     4.9655313386     3.5050456353
NI      7.3718976300     7.0936376910     3.5050414423
NI      8.6005360476     9.2217307678     3.5050346875
NI      9.8291666499    11.3497963133     3.5050315575
NI      6.1432310309     0.7093564306     3.5050435022
NI      7.3718976300     2.8374385647     3.5050456353
NI      8.6005525656     4.9655313386     3.5050456353
NI      9.8291924569     7.0936288945     3.5050435022
NI     11.0578252163     9.2217161529     3.5050430951
NI     12.2864674129    11.3497868621     3.5050430951
NI      8.6005642301     0.7093564306     3.5050435022
NI      9.8292192606     2.8374317755     3.5050414423
NI     11.0578590570     4.9655159189     3.5050435022
NI     12.2864930690     7.0936100803     3.5050492967
NI     13.5151355059     9.2217012016     3.5050532555
NI     14.7437952610    11.3497823264     3.5050492967
NI     11.0578827184     0.7093531567     3.5050346875
NI     12.2865211360     2.8374173185     3.5050346875
NI     13.5151530634     4.9654994710     3.5050430951
NI     14.7437952600     7.0936000828     3.5050532555
NI     15.9724550141     9.2217012016     3.5050532555
NI     17.2011231071    11.3497868621     3.5050430951
NI     13.5151648958     0.7093500723     3.5050265733
NI     14.7437952600     2.8374098595     3.5050315575
NI     15.9724374566     4.9654994710     3.5050430951
NI     17.2010974520     7.0936100803     3.5050492967
NI     18.4297653037     9.2217161529     3.5050430951
NI     19.6584238701    11.3497963133     3.5050315575
NI      2.4572703628     1.4187057051     5.5152436040
NI      3.6859275972     3.5467890450     5.5152543368
NI      4.9145927164     5.6748927340     5.5152599957
NI      6.1432520138     7.8029997852     5.5152543368
NI      7.3718976300     9.9310898329     5.5152436040
NI      8.6005300936    12.0591499596     5.5152384262
NI      4.9145732134     1.4187124128     5.5152543368
NI      6.1432392868     3.5468008560     5.5152621062
NI      7.3718976300     5.6748995310     5.5152621062
NI      8.6005432462     7.8029997852     5.5152543368
NI      9.8291780741     9.9310818448     5.5152479313
NI     11.0578151327    12.0591436538     5.5152479313
NI      7.3718976290     1.4187157741     5.5152599957
NI      8.6005559732     3.5468008560     5.5152621062
NI      9.8292025426     5.6748927340     5.5152599957
NI     11.0578412577     7.8029863305     5.5152579447
NI     12.2864797714     9.9310659215     5.5152578763
NI     13.5151315007    12.0591378802     5.5152579447
NI      9.8292220466     1.4187124128     5.5152543368
NI     11.0578676628     3.5467890450     5.5152543368
NI     12.2865050170     5.6748782753     5.5152579447
NI     13.5151443776     7.8029722445     5.5152629743
NI     14.7437952600     9.9310579980     5.5152629743
NI     15.9724590183    12.0591378802     5.5152579447
NI     12.2865248972     1.4187057051     5.5152436040
NI     13.5151582014     3.5467769884     5.5152479313
NI     14.7437952600     5.6748706440     5.5152578763
NI     15.9724461424     7.8029722445     5.5152629743
NI     17.2011107486     9.9310659215     5.5152578763
NI     18.4297753873    12.0591436538     5.5152479313
NI     14.7437952590     1.4187025668     5.5152384262
NI     15.9724323186     3.5467769884     5.5152479313
NI     17.2010855020     5.6748782753     5.5152579447
NI     18.4297492603     7.8029863305     5.5152579447
NI     19.6584124459     9.9310818448     5.5152479313
NI     20.8870604254    12.0591499596     5.5152384262