80
Step 1 | ATOMIC_POSITIONS (crystal) | Cartesian Angstrom
Ni      1.2286502138     0.7093620201    11.2500035815
Ni      2.4573004768     2.8374481654    11.2500035815
Ni      3.6859507398     4.9655343107    11.2500035815
Ni      4.9146010028     7.0936204560    11.2500035815
Ni      3.6859507398     0.7093620201    11.2500035815
Ni      4.9146010028     2.8374481654    11.2500035815
Ni      6.1432512658     4.9655343107    11.2500035815
Ni      7.3719015288     7.0936204560    11.2500035815
Ni      6.1432512658     0.7093620201    11.2500035815
Ni      7.3719015288     2.8374481654    11.2500035815
Ni      8.6005517918     4.9655343107    11.2500035815
Ni      9.8292020548     7.0936204560    11.2500035815
Ni      8.6005517918     0.7093620201    11.2500035815
Ni      9.8292020548     2.8374481654    11.2500035815
Ni     11.0578523178     4.9655343107    11.2500035815
Ni     12.2865025808     7.0936204560    11.2500035815
Ni      2.4487954707     0.0023212312    13.3017757953
Ni      3.6771480563     2.1304343607    13.2997193347
Ni      4.9066626502     4.2557053885    13.3042755486
Ni     13.5048030379     6.3857094502    13.2991952677
Ni      2.4496975890     0.0014591010    13.3005552911
Ni      3.6772799583     2.1334785454    13.3074547339
Ni      4.9053549181     4.2554221828    13.3063130716
Ni      6.1365974857     6.3839153033    13.3007798361
Ni      4.9067049590     0.0030513350    13.2979593043
Ni      6.1348839609     2.1317063603    13.3014020690
Ni      7.3654269351     4.2567112072    13.3121782936
Ni      8.5934082717     6.3827430684    13.3049808747
Ni      7.3636942433     0.0029662967    13.2970259549
Ni      8.5918371721     2.1362671894    13.3062840856
Ni      9.8167782873     4.2551984784    13.3119440867
Ni     11.0462156237     6.3827954193    13.3024007336
Ni      2.4445662049     1.4198703124    15.3331132604
Ni      3.6836041161     3.5406738916    15.3665468808
Ni      4.9009022404     5.6765718155    15.3258103325
Ni      6.1290884176     7.8046716657    15.3312906203
Ni      4.9017235686     1.4256989702    15.3331430194
Ni      6.1331346087     3.5458654854    15.3395033224
Ni      7.3686062888     5.6711703924    15.3435934412
Ni      8.5905643395     7.8030123544    15.3217066868
Ni      7.3619369294     1.4265061958    15.3296770658
Ni      8.5761514856     3.5487384869    15.3882291872
Ni      9.8053832442     5.6633269479    15.3577791932
Ni     11.0468157456     7.7992006116    15.3192100253
Ni      9.8155904283     1.4222423624    15.3280867002
Ni     11.0455581484     3.5465622208    15.3305671295
Ni     12.2723643547     5.6723238151    15.3278188695
Ni     13.5000944078     7.8035442057    15.3261875370
Ni      1.2140252457     0.7161827915    17.3933045567
Ni      2.4394923708     2.8359419060    17.3916894564
Ni      3.6622417706     4.9808361864    17.3837971463
Ni      4.8932816600     7.1078164931    17.3823594403
Ni      3.6653094154     0.7064373487    17.3762588520
Ni      4.8873400057     2.8447158349    17.4562467055
Ni      6.1052242453     5.0133186975    17.3410543798
Ni      7.3516829584     7.1262802792    17.3623575493
Ni      6.1267149111     0.6603848835    17.3358094584
Ni      7.3493830725     2.8068208347    17.4461236323
Ni      8.5957144974     4.9933272009    17.5038216327
Ni      9.8241347571     7.1058422250    17.3607080522
Ni      8.5985256984     0.6943414773    17.3682316603
Ni      9.8345682585     2.8250392951    17.3706815577
Ni     11.0611022451     4.9635328882    17.3781676772
Ni     12.2733668842     7.0866033047    17.3834972377
O       9.0839318014     3.7049352430    21.7492177833
O       8.3006829855     4.9201963717    19.4700750763
O       8.9889741406     5.3574688732    24.1794854168
C       8.7181883706     5.0960128904    21.8180429322
C       8.9361732395     5.7450570326    20.4524197556
C       9.4344320564     5.8557288336    22.9203749958
H       7.6421493957     5.0812757236    22.0433341625
H      10.0049564941     5.8399391154    20.2148887006
H       8.4830103596     6.7341708731    20.3904496042
H       9.2055707822     6.9302434521    22.8107669210
H      10.5264092791     5.7330464549    22.8022856153
H      10.0521427091     3.6377983813    21.7199164082
H       8.2720567121     3.9043997359    19.7849102670
H       9.4539864677     5.8311400750    24.8868761732
O       6.4234103605     2.7820423360    19.1063605880
H       6.5598712866     1.9854204419    19.5834312351
80
Step 2 | ATOMIC_POSITIONS (crystal) | Cartesian Angstrom
Ni      1.2286502138     0.7093620201    11.2500035815
Ni      2.4573004768     2.8374481654    11.2500035815
Ni      3.6859507398     4.9655343107    11.2500035815
Ni      4.9146010028     7.0936204560    11.2500035815
Ni      3.6859507398     0.7093620201    11.2500035815
Ni      4.9146010028     2.8374481654    11.2500035815
Ni      6.1432512658     4.9655343107    11.2500035815
Ni      7.3719015288     7.0936204560    11.2500035815
Ni      6.1432512658     0.7093620201    11.2500035815
Ni      7.3719015288     2.8374481654    11.2500035815
Ni      8.6005517918     4.9655343107    11.2500035815
Ni      9.8292020548     7.0936204560    11.2500035815
Ni      8.6005517918     0.7093620201    11.2500035815
Ni      9.8292020548     2.8374481654    11.2500035815
Ni     11.0578523178     4.9655343107    11.2500035815
Ni     12.2865025808     7.0936204560    11.2500035815
Ni      2.3697259273     0.0916147785    13.4282018878
Ni      3.6913981991     2.1275086687    13.2923037517
Ni      4.9707732902     4.2664737726    13.2267758655
Ni     13.5048019204     6.3857007131    13.2992002726
Ni      2.5431365260    -0.0878560446    13.1741326422
Ni      3.6774002673     2.1363848173    13.3148576867
Ni      4.8556218688     4.2446439909    13.3838005033
Ni      6.1365934631     6.3839060410    13.3007843192
Ni      4.9066974731     0.0030378838    13.2979575613
Ni      6.1348830812     2.1316977935    13.3014060652
Ni      7.3654227090     4.2567035043    13.3121823130
Ni      8.5934022567     6.3827353655    13.3049865947
Ni      7.3636876538     0.0029581776    13.2970318989
Ni      8.5918280235     2.1362556527    13.3062891099
Ni      9.8167678143     4.2551915221    13.3119512250
Ni     11.0462124705     6.3827903953    13.3023964746
Ni      2.4445547072     1.4198591451    15.3331110961
Ni      3.6835704948     3.5406776294    15.3664790535
Ni      4.9008964122     5.6765547253    15.3258223172
Ni      6.1290776119     7.8046535966    15.3312972600
Ni      4.9017115809     1.4256765044    15.3331225437
Ni      6.1331352520     3.5458471933    15.3395256802
Ni      7.3685888592     5.6711556328    15.3435953157
Ni      8.5905451967     7.8029985738    15.3217179643
Ni      7.3619198905     1.4264991101    15.3297079186
Ni      8.5761374839     3.5487364405    15.3882333574
Ni      9.8053744952     5.6633198281    15.3577702772
Ni     11.0468034419     7.7991889046    15.3192173144
Ni      9.8155740562     1.4222327307    15.3280797011
Ni     11.0455362553     3.5465520954    15.3305686716
Ni     12.2723482073     5.6723208136    15.3278238088
Ni     13.5000833456     7.8035306123    15.3261860955
Ni      1.2140041292     0.7161602568    17.3932885796
Ni      2.4394734378     2.8359280990    17.3916824418
Ni      3.6622243635     4.9807918652    17.3838013087
Ni      4.8932621491     7.1077806663    17.3823605225
Ni      3.6652898233     0.7064343379    17.3762752542
Ni      4.8872873516     2.8446764398    17.4560717305
Ni      6.1051897679     5.0132413824    17.3410851823
Ni      7.3516506006     7.1262508707    17.3623870300
Ni      6.1266708364     0.6604127759    17.3358502552
Ni      7.3493320560     2.8067549798    17.4462358352
Ni      8.5957072489     4.9933291834    17.5038251226
Ni      9.8241237818     7.1058410809    17.3607050106
Ni      8.5985094069     0.6943077386    17.3682146552
Ni      9.8345505522     2.8250220610    17.3706826321
Ni     11.0610846754     4.9635212110    17.3781658375
Ni     12.2733474101     7.0865952121    17.3835067567
O       9.0837756655     3.7048814705    21.7490691122
O       8.3005069464     4.9204990366    19.4698211975
O       8.9887833695     5.3575445224    24.1792479557
C       8.7181901261     5.0959966284    21.8177878669
C       8.9363170024     5.7450025553    20.4521674962
C       9.4344491764     5.8556606676    22.9201582771
H       7.6421392308     5.0814012628    22.0430195252
H      10.0051102852     5.8394859480    20.2146168234
H       8.4836008224     6.7342968456    20.3903467734
H       9.2057804823     6.9302030627    22.8104804620
H      10.5264093140     5.7327813524    22.8021937992
H      10.0519556294     3.6376604975    21.7194880607
H       8.2708196201     3.9041288672    19.7845872006
H       9.4538714065     5.8311053864    24.8866583684
O       6.4248880616     2.7821341816    19.1070812149
H       6.5622080560     1.9858147856    19.5841044022
80
Step 3 | ATOMIC_POSITIONS (crystal) | Cartesian Angstrom
Ni      1.2286502138     0.7093620201    11.2500035815
Ni      2.4573004768     2.8374481654    11.2500035815
Ni      3.6859507398     4.9655343107    11.2500035815
Ni      4.9146010028     7.0936204560    11.2500035815
Ni      3.6859507398     0.7093620201    11.2500035815
Ni      4.9146010028     2.8374481654    11.2500035815
Ni      6.1432512658     4.9655343107    11.2500035815
Ni      7.3719015288     7.0936204560    11.2500035815
Ni      6.1432512658     0.7093620201    11.2500035815
Ni      7.3719015288     2.8374481654    11.2500035815
Ni      8.6005517918     4.9655343107    11.2500035815
Ni      9.8292020548     7.0936204560    11.2500035815
Ni      8.6005517918     0.7093620201    11.2500035815
Ni      9.8292020548     2.8374481654    11.2500035815
Ni     11.0578523178     4.9655343107    11.2500035815
Ni     12.2865025808     7.0936204560    11.2500035815
Ni      2.3579106936     0.0922309326    13.4288793063
Ni      3.7139693370     2.1062531076    13.2382482335
Ni      4.9605889369     4.2666775760    13.2253587048
Ni     13.5048027839     6.3857075460    13.2991963653
Ni      2.5437482258    -0.0884407150    13.1732898721
Ni      3.6437402349     2.1577548583    13.3691439645
Ni      4.8545900056     4.2444485244    13.3852522308
Ni      6.1365965854     6.3839132587    13.3007808255
Ni      4.9066903509     0.0030336379    13.2981215719
Ni      6.1347555960     2.1316052005    13.3011820498
Ni      7.3654195833     4.2567090254    13.3121541811
Ni      8.5934069875     6.3827413106    13.3049821385
Ni      7.3636928181     0.0029645125    13.2970272573
Ni      8.5918351841     2.1362646468    13.3062851910
Ni      9.8167760075     4.2551969419    13.3119456519
Ni     11.0462149351     6.3827943050    13.3023998022
Ni      2.4445636778     1.4198679188    15.3331128275
Ni      3.6835967098     3.5406747003    15.3665320167
Ni      4.9009009513     5.6765680829    15.3258129760
Ni      6.1290860036     7.8046676836    15.3312921159
Ni      4.9017209368     1.4256940372    15.3331385246
Ni      6.1331347709     3.5458614710    15.3395082616
Ni      7.3686024682     5.6711671577    15.3435938509
Ni      8.5905601715     7.8030092976    15.3217092144
Ni      7.3619332007     1.4265046372    15.3296838292
Ni      8.5761484189     3.5487380323    15.3882300993
Ni      9.8053813265     5.6633253833    15.3577772338
Ni     11.0468130514     7.7991980409    15.3192116254
Ni      9.8155868347     1.4222402445    15.3280851389
Ni     11.0455533419     3.5465599991    15.3305674426
Ni     12.2723608089     5.6723231520    15.3278199362
Ni     13.5000919884     7.8035412306    15.3261872047
Ni      1.2140206142     0.7161778493    17.3933010513
Ni      2.4394882140     2.8359388807    17.3916879259
Ni      3.6622379509     4.9808264585    17.3837980622
Ni      4.8932773775     7.1078086311    17.3823596838
Ni      3.6653051171     0.7064366865    17.3762624578
Ni      4.8873284647     2.8447071872    17.4562083281
Ni      6.1052166788     5.0133017341    17.3410611432
Ni      7.3516758582     7.1262738260    17.3623640190
Ni      6.1267052386     0.6603910065    17.3358184131
Ni      7.3493718810     2.8068063824    17.4461482511
Ni      8.5957129080     4.9933276350    17.5038223941
Ni      9.8241323524     7.1058419739    17.3607073914
Ni      8.5985221225     0.6943340699    17.3682279308
Ni      9.8345643730     2.8250355122    17.3706817973
Ni     11.0610983926     4.9635303269    17.3781672791
Ni     12.2733626095     7.0866015308    17.3834993324
O       9.0838975309     3.7049234449    21.7491851605
O       8.3006443449     4.9202626999    19.4700193806
O       8.9889322770     5.3574854706    24.1794333115
C       8.7181887579     5.0960093220    21.8179869660
C       8.9362047923     5.7450450660    20.4523644116
C       9.4344358131     5.8557138757    22.9203274395
H       7.6421471640     5.0813032704    22.0432651217
H      10.0049902475     5.8398396759    20.2148290397
H       8.4831399193     6.7341985246    20.3904270376
H       9.2056167971     6.9302345916    22.8107040639
H      10.5264092899     5.7329882833    22.8022654681
H      10.0521016653     3.6377681250    21.7198224123
H       8.2717852586     3.9043403887    19.7848393557
H       9.4539612209     5.8311324642    24.8868283810
O       6.4237345988     2.7820625571    19.1065186738
H       6.5603840529     1.9855069077    19.5835789825
80
Step 4 | ATOMIC_POSITIONS (crystal) | Cartesian Angstrom
Ni      1.2286502138     0.7093620201    11.2500035815
Ni      2.4573004768     2.8374481654    11.2500035815
Ni      3.6859507398     4.9655343107    11.2500035815
Ni      4.9146010028     7.0936204560    11.2500035815
Ni      3.6859507398     0.7093620201    11.2500035815
Ni      4.9146010028     2.8374481654    11.2500035815
Ni      6.1432512658     4.9655343107    11.2500035815
Ni      7.3719015288     7.0936204560    11.2500035815
Ni      6.1432512658     0.7093620201    11.2500035815
Ni      7.3719015288     2.8374481654    11.2500035815
Ni      8.6005517918     4.9655343107    11.2500035815
Ni      9.8292020548     7.0936204560    11.2500035815
Ni      8.6005517918     0.7093620201    11.2500035815
Ni      9.8292020548     2.8374481654    11.2500035815
Ni     11.0578523178     4.9655343107    11.2500035815
Ni     12.2865025808     7.0936204560    11.2500035815
Ni      2.3381779074     0.0970095492    13.4353407008
Ni      3.7351120755     2.0813984337    13.1750211715
Ni      4.9647760723     4.2707044231    13.1970274411
Ni     13.5048037520     6.3857169215    13.2991912367
Ni      2.5486426898    -0.0931793142    13.1665691493
Ni      3.6079282374     2.1827691311    13.4326912329
Ni      4.8354335089     4.2404488427    13.4141210110
Ni      6.1366002861     6.3839224418    13.3007763230
Ni      4.9066847772     0.0030243875    13.2983797753
Ni      6.1345800587     2.1314752927    13.3008708174
Ni      7.3655420404     4.2567067646    13.3116251672
Ni      8.5934140985     6.3827475867    13.3049764070
Ni      7.3637000563     0.0029735118    13.2970202388
Ni      8.5918451096     2.1362763377    13.3062801629
Ni      9.8167872349     4.2552038854    13.3119383668
Ni     11.0462182840     6.3827991707    13.3024042313
Ni      2.4445753603     1.4198806439    15.3331159967
Ni      3.6836308053     3.5406707557    15.3666026692
Ni      4.9009066931     5.6765861827    15.3258009217
Ni      6.1290960711     7.8046859384    15.3312862878
Ni      4.9017334798     1.4257170648    15.3331599743
Ni      6.1331345379     3.5458802492    15.3394858612
Ni      7.3686205918     5.6711824859    15.3435918683
Ni      8.5905807735     7.8030228373    15.3216988180
Ni      7.3619510702     1.4265118556    15.3296518403
Ni      8.5761630133     3.5487400089    15.3882257321
Ni      9.8053904343     5.6633326869    15.3577863045
Ni     11.0468259247     7.7992101012    15.3192040774
Ni      9.8156037355     1.4222501061    15.3280917825
Ni     11.0455759603     3.5465704497    15.3305652048
Ni     12.2723774227     5.6723261168    15.3278144443
Ni     13.5001036070     7.8035554726    15.3261883486
Ni      1.2140424444     0.7162011739    17.3933176004
Ni      2.4395077230     2.8359531951    17.3916952497
Ni      3.6622559138     4.9808722141    17.3837938419
Ni      4.8932975126     7.1078456121    17.3823586828
Ni      3.6653253613     0.7064397645    17.3762456150
Ni      4.8873831578     2.8447478396    17.4563895331
Ni      6.1052522752     5.0133816275    17.3410293513
Ni      7.3517092952     7.1263041963    17.3623335798
Ni      6.1267507798     0.6603622305    17.3357763409
Ni      7.3494246800     2.8068743782    17.4460322375
Ni      8.5957204298     4.9933255776    17.5038187186
Ni      9.8241437768     7.1058431452    17.3607106417
Ni      8.5985389108     0.6943688207    17.3682455813
Ni      9.8345826617     2.8250532885    17.3706807538
Ni     11.0611166032     4.9635424297    17.3781692811
Ni     12.2733826920     7.0866099282    17.3834896163
O       9.0840586065     3.7049790263    21.7493387555
O       8.3008259271     4.9199479313    19.4702820480
O       8.9891293280     5.3574072558    24.1796786723
C       8.7181869886     5.0960261288    21.8182505145
C       8.9360564151     5.7451010338    20.4526253050
C       9.4344181156     5.8557842966    22.9205513274
H       7.6421576370     5.0811735661    22.0435901862
H      10.0048315384     5.8403078685    20.2151098986
H       8.4825297328     6.7340685930    20.3905332192
H       9.2054001428     6.9302763821    22.8110000033
H      10.5264093243     5.7332621662    22.8023603026
H      10.0522951124     3.6379105680    21.7202649243
H       8.2730634392     3.9046224214    19.7851726368
H       9.4540801203     5.8311683258    24.8870534129
O       6.4222075276     2.7819692660    19.1057730996
H       6.5579699557     1.9850979032    19.5828843348
80
Step 5 | ATOMIC_POSITIONS (crystal) | Cartesian Angstrom
Ni      1.2286502138     0.7093620201    11.2500035815
Ni      2.4573004768     2.8374481654    11.2500035815
Ni      3.6859507398     4.9655343107    11.2500035815
Ni      4.9146010028     7.0936204560    11.2500035815
Ni      3.6859507398     0.7093620201    11.2500035815
Ni      4.9146010028     2.8374481654    11.2500035815
Ni      6.1432512658     4.9655343107    11.2500035815
Ni      7.3719015288     7.0936204560    11.2500035815
Ni      6.1432512658     0.7093620201    11.2500035815
Ni      7.3719015288     2.8374481654    11.2500035815
Ni      8.6005517918     4.9655343107    11.2500035815
Ni      9.8292020548     7.0936204560    11.2500035815
Ni      8.6005517918     0.7093620201    11.2500035815
Ni      9.8292020548     2.8374481654    11.2500035815
Ni     11.0578523178     4.9655343107    11.2500035815
Ni     12.2865025808     7.0936204560    11.2500035815
Ni      2.3078726049     0.1082507318    13.4504324898
Ni      3.7568479494     2.0532750330    13.1034462438
Ni      4.9801415479     4.2783802188    13.1428698148
Ni     13.5048038302     6.3857307992    13.2991849680
Ni      2.5608129586    -0.1043462547    13.1507736265
Ni      3.5683364826     2.2111545656    13.5048031941
Ni      4.8017491267     4.2328229507    13.4690498970
Ni      6.1366047928     6.3839342416    13.3007709664
Ni      4.9066696909     0.0029757318    13.2990808696
Ni      6.1342891074     2.1312493683    13.3003450150
Ni      7.3657232275     4.2567015627    13.3108647753
Ni      8.5934242791     6.3827524124    13.3049697209
Ni      7.3637095484     0.0029842935    13.2970122078
Ni      8.5918580911     2.1362897531    13.3062737473
Ni      9.8168024313     4.2552119781    13.3119289676
Ni     11.0462227282     6.3828043862    13.3024099628
Ni      2.4445875249     1.4198970574    15.3331245765
Ni      3.6836711110     3.5406670783    15.3666927731
Ni      4.9009133784     5.6766103416    15.3257882490
Ni      6.1291064577     7.8047072805    15.3312810085
Ni      4.9017507994     1.4257441588    15.3331891728
Ni      6.1331354928     3.5459022579    15.3394605931
Ni      7.3686427694     5.6712013101    15.3435891900
Ni      8.5906073384     7.8030386286    15.3216879309
Ni      7.3619731333     1.4265205595    15.3296123652
Ni      8.5761809678     3.5487422195    15.3882202016
Ni      9.8054016459     5.6633414282    15.3577972419
Ni     11.0468416859     7.7992248599    15.3191946318
Ni      9.8156246049     1.4222620404    15.3280988087
Ni     11.0456038797     3.5465828701    15.3305614405
Ni     12.2723977986     5.6723294656    15.3278069428
Ni     13.5001181591     7.8035730796    15.3261889206
Ni      1.2140690181     0.7162297150    17.3933379331
Ni      2.4395314158     2.8359708182    17.3917044286
Ni      3.6622777862     4.9809281393    17.3837888640
Ni      4.8933219794     7.1078908909    17.3823577321
Ni      3.6653501948     0.7064434538    17.3762252707
Ni      4.8874504618     2.8447973585    17.4566116587
Ni      6.1052957493     5.0134793059    17.3409904637
Ni      7.3517502319     7.1263413255    17.3622963734
Ni      6.1268066023     0.6603270056    17.3357252212
Ni      7.3494893783     2.8069574868    17.4458904457
Ni      8.5957295803     4.9933231149    17.5038142857
Ni      9.8241578645     7.1058445727    17.3607147963
Ni      8.5985593668     0.6944110870    17.3682672822
Ni      9.8346050035     2.8250749780    17.3706796059
Ni     11.0611389906     4.9635573306    17.3781718434
Ni     12.2734071594     7.0866202988    17.3834780335
O       9.0842550588     3.7050470007    21.7495264766
O       8.3010473840     4.9195595930    19.4706036960
O       8.9893700790     5.3573115608    24.1799785963
C       8.7181849014     5.0960466785    21.8185726882
C       8.9358753828     5.7451688942    20.4529446419
C       9.4343964673     5.8558703539    22.9208249360
H       7.6421703854     5.0810150356    22.0439874762
H      10.0046378589     5.8408800921    20.2154531277
H       8.4817837047     6.7339101723    20.3906628987
H       9.2051353465     6.9303275642    22.8113616714
H      10.5264094919     5.7335968912    22.8024761732
H      10.0525318291     3.6380846404    21.7208056989
H       8.2746257446     3.9049709049    19.7855791327
H       9.4542254809     5.8312121942    24.8873284708
O       6.4203405763     2.7818580344    19.1048599438
H       6.5550197511     1.9845952339    19.5820368187
80
Step 6 | ATOMIC_POSITIONS (crystal) | Cartesian Angstrom
Ni      1.2286502138     0.7093620201    11.2500035815
Ni      2.4573004768     2.8374481654    11.2500035815
Ni      3.6859507398     4.9655343107    11.2500035815
Ni      4.9146010028     7.0936204560    11.2500035815
Ni      3.6859507398     0.7093620201    11.2500035815
Ni      4.9146010028     2.8374481654    11.2500035815
Ni      6.1432512658     4.9655343107    11.2500035815
Ni      7.3719015288     7.0936204560    11.2500035815
Ni      6.1432512658     0.7093620201    11.2500035815
Ni      7.3719015288     2.8374481654    11.2500035815
Ni      8.6005517918     4.9655343107    11.2500035815
Ni      9.8292020548     7.0936204560    11.2500035815
Ni      8.6005517918     0.7093620201    11.2500035815
Ni      9.8292020548     2.8374481654    11.2500035815
Ni     11.0578523178     4.9655343107    11.2500035815
Ni     12.2865025808     7.0936204560    11.2500035815
Ni      2.2755169873     0.1223637608    13.4696473682
Ni      3.7792945464     2.0258088551    13.0335607558
Ni      4.9963349574     4.2860817889    13.0885174451
Ni     13.5048021892     6.3857467555    13.2991792133
Ni      2.5767817177    -0.1184019275    13.1309344089
Ni      3.5297690511     2.2388643182    13.5751841495
Ni      4.7690194303     4.2251773560    13.5240911172
Ni      6.1366089633     6.3839459869    13.3007663904
Ni      4.9066601462     0.0029316574    13.2997013943
Ni      6.1340242802     2.1310375301    13.2998594840
Ni      7.3658886471     4.2566968468    13.3101852583
Ni      8.5934348681     6.3827540144    13.3049641402
Ni      7.3637187726     0.0029940870    13.2970051468
Ni      8.5918707319     2.1363012848    13.3062684989
Ni      9.8168174434     4.2552186518    13.3119209443
Ni     11.0462271160     6.3828083240    13.3024155010
Ni      2.4445971610     1.4199126920    15.3331361168
Ni      3.6837053323     3.5406645893    15.3667801601
Ni      4.9009194052     5.6766351133    15.3257795802
Ni      6.1291138423     7.8047253488    15.3312778857
Ni      4.9017676230     1.4257681398    15.3332173434
Ni      6.1331383438     3.5459210881    15.3394404150
Ni      7.3686628499     5.6712183578    15.3435865812
Ni      8.5906327827     7.8030518372    15.3216802709
Ni      7.3619933363     1.4265282836    15.3295763955
Ni      8.5761973290     3.5487440318    15.3882150112
Ni      9.8054118752     5.6633490706    15.3578068730
Ni     11.0468560242     7.7992380889    15.3191859670
Ni      9.8156435413     1.4222727276    15.3281039450
Ni     11.0456292671     3.5465939847    15.3305569921
Ni     12.2724162338     5.6723320780    15.3277993446
Ni     13.5001317696     7.8035890521    15.3261885651
Ni      1.2140929360     0.7162555321    17.3933562948
Ni      2.4395526130     2.8359868069    17.3917128848
Ni      3.6622974677     4.9809787103    17.3837844852
Ni      4.8933438828     7.1079319068    17.3823572258
Ni      3.6653726761     0.7064466902    17.3762071989
Ni      4.8875119209     2.8448418832    17.4568129878
Ni      6.1053349133     5.0135675389    17.3409552940
Ni      7.3517872585     7.1263748028    17.3622628733
Ni      6.1268570585     0.6602952358    17.3356792184
Ni      7.3495479161     2.8070325639    17.4457623585
Ni      8.5957378373     4.9933209605    17.5038102818
Ni      9.8241706916     7.1058458751    17.3607187191
Ni      8.5985777622     0.6944490521    17.3682872052
Ni      9.8346251524     2.8250945700    17.3706787673
Ni     11.0611593002     4.9635709035    17.3781742821
Ni     12.2734291650     7.0866297441    17.3834679425
O       9.0844319569     3.7051084326    21.7496959597
O       8.3012467885     4.9192046700    19.4708948701
O       8.9895873639     5.3572250405    24.1802494570
C       8.7181831066     5.0960652507    21.8188636498
C       8.9357122799     5.7452295106    20.4532335397
C       9.4343768964     5.8559480409    22.9210719509
H       7.6421818370     5.0808718878    22.0443461877
H      10.0044633340     5.8413967667    20.2157629804
H       8.4811097964     6.7337675829    20.3907798669
H       9.2048962566     6.9303739063    22.8116881968
H      10.5264097922     5.7338991024    22.8025807469
H      10.0527459007     3.6382417910    21.7212938967
H       8.2760364990     3.9052900369    19.7859451641
H       9.4543567789     5.8312518506    24.8875768423
O       6.4186542066     2.7817608370    19.1040332590
H       6.5523563032     1.9841380946    19.5812733428
80
Step 7 | ATOMIC_POSITIONS (crystal) | Cartesian Angstrom
Ni      1.2286502138     0.7093620201    11.2500035815
Ni      2.4573004768     2.8374481654    11.2500035815
Ni      3.6859507398     4.9655343107    11.2500035815
Ni      4.9146010028     7.0936204560    11.2500035815
Ni      3.6859507398     0.7093620201    11.2500035815
Ni      4.9146010028     2.8374481654    11.2500035815
Ni      6.1432512658     4.9655343107    11.2500035815
Ni      7.3719015288     7.0936204560    11.2500035815
Ni      6.1432512658     0.7093620201    11.2500035815
Ni      7.3719015288     2.8374481654    11.2500035815
Ni      8.6005517918     4.9655343107    11.2500035815
Ni      9.8292020548     7.0936204560    11.2500035815
Ni      8.6005517918     0.7093620201    11.2500035815
Ni      9.8292020548     2.8374481654    11.2500035815
Ni     11.0578523178     4.9655343107    11.2500035815
Ni     12.2865025808     7.0936204560    11.2500035815
Ni      2.2355164640     0.1437948626    13.4991803106
Ni      3.8018585045     1.9988922129    12.9650684899
Ni      5.0196529067     4.2953413786    13.0231053908
Ni     13.5047972191     6.3857677529    13.2991743784
Ni      2.6022000034    -0.1397914482    13.1008086910
Ni      3.4928785965     2.2660110610    13.6441363344
Ni      4.7310048954     4.2159901060    13.5901543866
Ni      6.1366113252     6.3839559736    13.3007620541
Ni      4.9066579179     0.0028858508    13.3002885464
Ni      6.1337873984     2.1308355952    13.2994113796
Ni      7.3660505552     4.2566909980    13.3095407525
Ni      8.5934468562     6.3827503021    13.3049608164
Ni      7.3637286160     0.0030029526    13.2969993882
Ni      8.5918846840     2.1363098525    13.3062645452
Ni      9.8168339801     4.2552233404    13.3119147528
Ni     11.0462323564     6.3828095659    13.3024208035
Ni      2.4446027818     1.4199278261    15.3331542312
Ni      3.6837289052     3.5406622544    15.3668713463
Ni      4.9009239659     5.6766615408    15.3257748536
Ni      6.1291165016     7.8047401560    15.3312764210
Ni      4.9017853677     1.4257880552    15.3332462637
Ni      6.1331433208     3.5459361115    15.3394257171
Ni      7.3686812482     5.6712336681    15.3435840111
Ni      8.5906590778     7.8030613863    15.3216793433
Ni      7.3620119931     1.4265347224    15.3295433167
Ni      8.5762122429     3.5487450277    15.3882099985
Ni      9.8054212768     5.6633553459    15.3578149852
Ni     11.0468692494     7.7992496010    15.3191777852
Ni      9.8156604107     1.4222819269    15.3281053711
Ni     11.0456524679     3.5466032222    15.3305492896
Ni     12.2724324834     5.6723335813    15.3277905947
Ni     13.5001446115     7.8036039215    15.3261860645
Ni      1.2141137744     0.7162785214    17.3933733154
Ni      2.4395708501     2.8360009987    17.3917208386
Ni      3.6623149342     4.9810236623    17.3837809721
Ni      4.8933636837     7.1079682920    17.3823568470
Ni      3.6653929469     0.7064494550    17.3761915155
Ni      4.8875683247     2.8448809395    17.4569936672
Ni      6.1053696103     5.0136461504    17.3409241205
Ni      7.3518201745     7.1264044632    17.3622332844
Ni      6.1269020890     0.6602671144    17.3356392487