
     Program NEB v.7.5 starts on 10May2026 at 21:51:31 

     This program is part of the open-source Quantum ESPRESSO suite
     for quantum simulation of materials; please cite
         "P. Giannozzi et al., J. Phys.:Condens. Matter 21 395502 (2009);
         "P. Giannozzi et al., J. Phys.:Condens. Matter 29 465901 (2017);
         "P. Giannozzi et al., J. Chem. Phys. 152 154105 (2020);
          URL http://www.quantum-espresso.org", 
     in publications or presentations arising from this work. More details at
     http://www.quantum-espresso.org/quote

     Parallel version (MPI & OpenMP), running on      80 processor cores
     Number of MPI processes:                 1
     Threads/MPI process:                    80

     MPI processes distributed on     1 nodes
     237676 MiB available memory on the printing compute node when the environment starts
 

     Parsing file: input.neb.x
     Reading input from pw_1.in
     file Ni.pbe-n-rrkjus_psl.1.0.0.UPF: wavefunction(s)  3D renormalized
     Reading input from pw_2.in
     file Ni.pbe-n-rrkjus_psl.1.0.0.UPF: wavefunction(s)  3D renormalized

     initial path length           = 24.8995 bohr
     initial inter-image distance  = 12.4497 bohr
 
     string_method                 =    neb
     restart_mode                  =    from_scratch
     opt_scheme                    =    broyden
     num_of_images                 =    3
     nstep_path                    =    200
     CI_scheme                     =    no-CI
     first_last_opt                =    F
     use_freezing                  =    F
     ds                            =    1.0000 a.u.
     k_max                         =    0.1000 a.u.
     k_min                         =    0.1000 a.u.
     suggested k_max               =    0.6169 a.u.
     suggested k_min               =    0.6169 a.u.
     path_thr                      =    0.0500 eV / A

     ------------------------------ iteration   1 ------------------------------

     tcpu =      1.1    self-consistency for image   1
     tcpu =    408.1    self-consistency for image   2
     tcpu =    718.2    self-consistency for image   3

     activation energy (->) =  17.143231 eV
     activation energy (<-) =  17.816821 eV

     image        energy (eV)        error (eV/A)        frozen

         1    -100934.4140188            0.020619            T
         2    -100917.2707880           36.692422            F
         3    -100935.0876090            0.023803            T

     path length          = 24.899 bohr
     inter-image distance = 12.450 bohr

     ------------------------------ iteration   2 ------------------------------

     tcpu =   1059.7    self-consistency for image   2

     activation energy (->) =  11.536538 eV
     activation energy (<-) =  12.210128 eV

     image        energy (eV)        error (eV/A)        frozen

         1    -100934.4140188            0.020619            T
         2    -100922.8774808            4.287970            F
         3    -100935.0876090            0.023803            T

     path length          = 24.928 bohr
     inter-image distance = 12.464 bohr

     ------------------------------ iteration   3 ------------------------------

     tcpu =   1332.9    self-consistency for image   2

     activation energy (->) =  10.105948 eV
     activation energy (<-) =  10.779539 eV

     image        energy (eV)        error (eV/A)        frozen

         1    -100934.4140188            0.020619            T
         2    -100924.3080703            2.649176            F
         3    -100935.0876090            0.023803            T

     path length          = 24.930 bohr
     inter-image distance = 12.465 bohr

     ------------------------------ iteration   4 ------------------------------

     tcpu =   1594.2    self-consistency for image   2

     activation energy (->) =   8.765136 eV
     activation energy (<-) =   9.438726 eV

     image        energy (eV)        error (eV/A)        frozen

         1    -100934.4140188            0.020619            T
         2    -100925.6488831            4.353649            F
         3    -100935.0876090            0.023803            T

     path length          = 24.960 bohr
     inter-image distance = 12.480 bohr

     ------------------------------ iteration   5 ------------------------------

     tcpu =   1944.9    self-consistency for image   2

     activation energy (->) =   7.742635 eV
     activation energy (<-) =   8.416225 eV

     image        energy (eV)        error (eV/A)        frozen

         1    -100934.4140188            0.020619            T
         2    -100926.6713840            3.347827            F
         3    -100935.0876090            0.023803            T

     path length          = 25.012 bohr
     inter-image distance = 12.506 bohr

     ------------------------------ iteration   6 ------------------------------

     tcpu =   2280.6    self-consistency for image   2

     activation energy (->) =   6.722518 eV
     activation energy (<-) =   7.396108 eV

     image        energy (eV)        error (eV/A)        frozen

         1    -100934.4140188            0.020619            T
         2    -100927.6915007            3.067230            F
         3    -100935.0876090            0.023803            T

     path length          = 25.066 bohr
     inter-image distance = 12.533 bohr

     ------------------------------ iteration   7 ------------------------------

     tcpu =   2555.5    self-consistency for image   2

     activation energy (->) =   5.714499 eV
     activation energy (<-) =   6.388089 eV

     image        energy (eV)        error (eV/A)        frozen

         1    -100934.4140188            0.020619            T
         2    -100928.6995198            4.097054            F
         3    -100935.0876090            0.023803            T

     path length          = 25.200 bohr
     inter-image distance = 12.600 bohr

     ------------------------------ iteration   8 ------------------------------

     tcpu =   2968.0    self-consistency for image   2

     activation energy (->) =   5.697102 eV
     activation energy (<-) =   6.370692 eV

     image        energy (eV)        error (eV/A)        frozen

         1    -100934.4140188            0.020619            T
         2    -100928.7169171            2.051247            F
         3    -100935.0876090            0.023803            T

     path length          = 25.142 bohr
     inter-image distance = 12.571 bohr

     ------------------------------ iteration   9 ------------------------------

     tcpu =   3204.6    self-consistency for image   2

     activation energy (->) =   5.437879 eV
     activation energy (<-) =   6.111469 eV

     image        energy (eV)        error (eV/A)        frozen

         1    -100934.4140188            0.020619            T
         2    -100928.9761399            1.677983            F
         3    -100935.0876090            0.023803            T

     path length          = 25.169 bohr
     inter-image distance = 12.584 bohr

     ------------------------------ iteration  10 ------------------------------

     tcpu =   3370.0    self-consistency for image   2

     activation energy (->) =   5.093781 eV
     activation energy (<-) =   5.767371 eV

     image        energy (eV)        error (eV/A)        frozen

         1    -100934.4140188            0.020619            T
         2    -100929.3202376            1.879949            F
         3    -100935.0876090            0.023803            T

     path length          = 25.205 bohr
     inter-image distance = 12.602 bohr

     ------------------------------ iteration  11 ------------------------------

     tcpu =   3607.3    self-consistency for image   2

     activation energy (->) =   4.809507 eV
     activation energy (<-) =   5.483097 eV

     image        energy (eV)        error (eV/A)        frozen

         1    -100934.4140188            0.020619            T
         2    -100929.6045122            1.201442            F
         3    -100935.0876090            0.023803            T

     path length          = 25.241 bohr
     inter-image distance = 12.620 bohr

     ------------------------------ iteration  12 ------------------------------

     tcpu =   3858.3    self-consistency for image   2
