88
Step 1 | NEB Image 1 | Cartesian Angstrom
Ni      1.2285271350     0.7092904720     2.0000000000
Ni     -6.1433728650     0.7092904720     2.0000000000
Ni      2.4570542700     2.8371618880     2.0000000000
Ni     -4.9148457300     2.8371618880     2.0000000000
Ni      0.0000000000    -1.4185809440     2.0000000000
Ni     -7.3719000000    -1.4185809440     2.0000000000
Ni      3.6855814050     0.7092904720     2.0000000000
Ni     -3.6863185950     0.7092904720     2.0000000000
Ni      4.9141085400     2.8371618880     2.0000000000
Ni     -2.4577914600     2.8371618880     2.0000000000
Ni      2.4570542700    -1.4185809440     2.0000000000
Ni     -4.9148457300    -1.4185809440     2.0000000000
Ni      6.1433728650     0.7092904720     2.0000000000
Ni     -1.2285271350     0.7092904720     2.0000000000
Ni      7.3719000000     2.8371618880     2.0000000000
Ni      0.0000000000     2.8371618880     2.0000000000
Ni      4.9148457300    -1.4185809440     2.0000000000
Ni     -2.4570542700    -1.4185809440     2.0000000000
Ni      0.0345187234    -0.0219895959     3.9906686506
Ni     -7.3332872529    -0.0205271350     3.9970929970
Ni      1.2574298371     2.1090479016     3.9981086770
Ni     -6.1061214153     2.1042281316     4.0017605185
Ni     -1.1958375155    -2.1495425789     3.9888614873
Ni     -8.5615731291    -2.1597422030     3.9935633301
Ni      2.4909200515    -0.0209290578     3.9889124626
Ni     -4.8775455868    -0.0288695998     4.0155932973
Ni      3.7235299523     2.1102350339     3.9932622384
Ni     -3.6483031855     2.1055811522     4.0174271749
Ni      1.2597529797    -2.1544756242     3.9969618463
Ni     -6.1074652262    -2.1506208434     4.0019689283
Ni      4.9550771908    -0.0234645643     3.9935565644
Ni     -2.4269867653    -0.0199772708     3.9982338911
Ni      6.1741097051     2.1083418571     4.0046158614
Ni     -1.1996729370     2.1123145435     4.0000024585
Ni      3.7197951829    -2.1539414756     3.9921760547
Ni     -3.6589301935    -2.1514998115     3.9994955107
Ni      1.2136841869     0.7163863979     5.9963073096
Ni     -6.1473437226     0.7096773911     6.0218176054
Ni      2.4453295017     2.8415084524     5.9971730433
Ni     -4.9231971923     2.8360653972     6.0327934449
Ni     -0.0226348385    -1.4110330430     6.0020236029
Ni     -7.3908667378    -1.4145678834     5.9981301391
Ni      3.6669417345     0.7157583701     5.9869138182
Ni     -3.7108784987     0.7190435175     6.0328517480
Ni      4.9057976617     2.8388244163     6.0411982092
Ni     -2.4814248435     2.8298458387     6.0521186228
Ni      2.4355069788    -1.4085502466     5.9888639843
Ni     -4.9252928465    -1.4026264080     6.0548563839
Ni      6.1341025786     0.7315238745     6.0218817427
Ni     -1.2402669783     0.7221835538     5.9926808095
Ni      7.3408175190     2.8291688103     6.0248565089
Ni     -0.0225097209     2.8466795557     6.0142376281
Ni      4.9088271165    -1.4251457534     5.9900387779
Ni     -2.4790699264    -1.4211153466     5.9913638200
Ni      0.0337137405    -0.0099863123     8.0038502320
Ni     -7.3606520147    -0.0334139511     7.9835827732
Ni      1.2525382386     2.1076756093     8.0014158677
Ni      8.5596645315     2.1514300915     7.9633346422
Ni     -1.1983605499    -2.1613845897     8.0018652759
Ni     -8.5927669864    -2.1264268734     8.0165035337
Ni      2.4708324722    -0.0109047600     8.0065027389
Ni     -4.8995212632    -0.0584838282     8.1493062015
Ni      3.6789469906     2.1047412898     7.9888648741
Ni     -3.6333178494     2.1270714900     8.1546283531
Ni      1.2394335961    -2.1164979174     7.9892760222
Ni     -6.1305722611    -2.1461024656     7.9989212299
Ni      4.9150163145    -0.0283439881     7.9490640309
Ni     -2.3653823178    -0.0601929248     7.9425724452
Ni      6.1349712758     2.1197335004     8.1598232492
Ni     -1.1861990586     2.1067384809     8.0263285947
Ni      3.6953023012    -2.1157302873     7.9694462946
Ni     -3.6468332403    -2.1628724713     8.0264725749
O       5.9486020032     1.9536774433    10.1568983318
H       6.2023593986     1.0444615420    10.4395396161
H       7.6485803319     2.9982816350    10.7947394844
H       2.3841835216    -2.5662265370    10.9995346326
C       6.5922936452     2.8570131008    11.0871865803
O       6.8828593053     0.8516013498    12.3925733789
H      -6.8879959571     0.8254517200    12.3248078773
C       6.4620997723     2.2299052156    12.4710261049
H       5.3979785171     2.1706601767    12.7461907790
C       7.1981974178     3.0342299686    13.5247288963
H       3.2389656514    -2.2859498111    13.4051121917
H       8.2901195875     2.9478942375    13.3576433856
O       6.8260697992     2.5426661176    14.8120038538
H       7.2522042786     3.0948827032    15.4870039972
O      -4.3927237137     1.0982075682     9.5865509607
H      -3.6717371060     0.6667680985    10.0888232085
88
Step 2 | NEB Image 2 | Cartesian Angstrom
Ni      1.2285271350     0.7092904720     2.0000000000
Ni     -6.1433728650     0.7092904720     2.0000000000
Ni      2.4570542700     2.8371618880     2.0000000000
Ni     -4.9148457300     2.8371618880     2.0000000000
Ni      0.0000000000    -1.4185809440     2.0000000000
Ni     -7.3719000000    -1.4185809440     2.0000000000
Ni      3.6855814050     0.7092904720     2.0000000000
Ni     -3.6863185950     0.7092904720     2.0000000000
Ni      4.9141085400     2.8371618880     2.0000000000
Ni     -2.4577914600     2.8371618880     2.0000000000
Ni      2.4570542700    -1.4185809440     2.0000000000
Ni     -4.9148457300    -1.4185809440     2.0000000000
Ni      6.1433728650     0.7092904720     2.0000000000
Ni     -1.2285271350     0.7092904720     2.0000000000
Ni      7.3719000000     2.8371618880     2.0000000000
Ni      0.0000000000     2.8371618880     2.0000000000
Ni      4.9148457300    -1.4185809440     2.0000000000
Ni     -2.4570542700    -1.4185809440     2.0000000000
Ni      0.0441024845    -0.0282138689     3.9906548170
Ni     -7.3237132681    -0.0199811676     4.0027769413
Ni      1.2664432591     2.1066720643     3.9980597884
Ni     -6.1002488332     2.1026416920     4.0101968988
Ni     -1.1884530022    -2.1532398412     3.9889119140
Ni     -8.5542367227    -2.1631798730     3.9958749289
Ni      2.4997748886    -0.0271509564     3.9903694223
Ni     -4.8747099600    -0.0261624541     4.0192681330
Ni      3.7325046447     2.1054274562     3.9970656352
Ni     -3.6405753615     2.1059786445     4.0172180132
Ni      1.2665632932    -2.1613790445     3.9998784723
Ni     -6.1001421764    -2.1501612704     4.0004802447
Ni      4.9652388018    -0.0275825475     3.9933441596
Ni     -2.4196340181    -0.0215807829     3.9967318017
Ni      6.1825979724     2.1045480925     4.0105704458
Ni     -1.1911859439     2.1101425074     3.9967734395
Ni      3.7268955543    -2.1632663630     3.9963324215
Ni     -3.6533825058    -2.1493244750     3.9988624617
Ni      1.2280789678     0.7095632850     5.9938835426
Ni     -6.1227077711     0.7172310470     6.0502126389
Ni      2.4621905354     2.8342821651     5.9971718408
Ni     -4.9112730602     2.8215646106     6.0420571935
Ni     -0.0066412050    -1.4216943838     6.0052971496
Ni     -7.3731427782    -1.4203983893     5.9985975441
Ni      3.6802001053     0.7070348432     5.9879534210
Ni     -3.6896672022     0.7122754269     6.0268459591
Ni      4.9285976018     2.8246541619     6.0567631730
Ni     -2.4620125382     2.8300658002     6.0452781668
Ni      2.4467156113    -1.4215034224     5.9911207875
Ni     -4.9087214642    -1.4014438341     6.0545621103
Ni      6.1509604331     0.7184794579     6.0254988980
Ni     -1.2216521036     0.7174223876     5.9862598204
Ni      7.3628935660     2.8108803458     6.0484797019
Ni     -0.0046504986     2.8434183711     6.0065690852
Ni      4.9181028933    -1.4313113260     5.9855633854
Ni     -2.4605639842    -1.4296407864     5.9880424688
Ni      0.0598623145    -0.0282600931     8.0012101512
Ni     -7.3135330388    -0.0534434042     7.9787560467
Ni      1.2742833591     2.0966730018     7.9978125576
Ni      8.5925338426     2.1648463576     8.0528008391
Ni     -1.1746649590    -2.1758225331     8.0070653754
Ni     -8.5602686536    -2.1260436435     7.9915781861
Ni      2.4838198846    -0.0250016185     8.0033029894
Ni     -4.8432807158    -0.0644751959     8.1672286199
Ni      3.6939263507     2.0921789635     7.9957876968
Ni     -3.5726450155     2.1087773324     8.1271233463
Ni      1.2584557415    -2.1399619115     8.0067223056
Ni     -6.0906894854    -2.1536629263     8.0023764679
Ni      4.9220485640    -0.0389896004     7.9551898542
Ni     -2.3309532746    -0.0762291600     7.9324541316
Ni      6.1457129433     2.0828986275     8.1835939399
Ni     -1.1496883002     2.0953356609     8.0168783205
Ni      3.7035841190    -2.1179918268     7.9683218234
Ni     -3.6199144751    -2.1748471525     8.0227660529
O       6.2914980775     1.7606293244    10.0899302935
H       9.0914875040     2.3336714589    10.2413099690
H       8.6258935299     2.9005333107     9.9675759605
H       2.0577057850    -2.8629054738    10.9506610254
C       6.2105591246     2.5283868935    11.0641677497
O       7.3828729207     0.8301873321    12.3240809096
H      -7.4302890704     0.5121368005    11.3996696884
C       6.7454189813     2.0878929798    12.3880634719
H       5.8571208944     2.0337375617    13.0565818770
C       7.6476317498     3.1571682986    13.0315378148
H       3.5438982468    -2.2187056090    12.8504842490
H       8.6424842471     3.0974836902    12.5626737485
O       7.6976148350     2.8713164246    14.4287923277
H       8.4466951630     3.3499706896    14.8195541728
O      -4.1819696848     1.0360640103     9.6009671891
H      -3.4373305035     0.6211641106    10.0817021763
88
Step 3 | NEB Image 3 | Cartesian Angstrom
Ni      1.2285271350     0.7092904720     2.0000000000
Ni     -6.1433728650     0.7092904720     2.0000000000
Ni      2.4570542700     2.8371618880     2.0000000000
Ni     -4.9148457300     2.8371618880     2.0000000000
Ni      0.0000000000    -1.4185809440     2.0000000000
Ni     -7.3719000000    -1.4185809440     2.0000000000
Ni      3.6855814050     0.7092904720     2.0000000000
Ni     -3.6863185950     0.7092904720     2.0000000000
Ni      4.9141085400     2.8371618880     2.0000000000
Ni     -2.4577914600     2.8371618880     2.0000000000
Ni      2.4570542700    -1.4185809440     2.0000000000
Ni     -4.9148457300    -1.4185809440     2.0000000000
Ni      6.1433728650     0.7092904720     2.0000000000
Ni     -1.2285271350     0.7092904720     2.0000000000
Ni      7.3719000000     2.8371618880     2.0000000000
Ni      0.0000000000     2.8371618880     2.0000000000
Ni      4.9148457300    -1.4185809440     2.0000000000
Ni     -2.4570542700    -1.4185809440     2.0000000000
Ni      0.0312566094    -0.0139172655     3.9974031989
Ni     -7.3410473983    -0.0214983747     3.9991781008
Ni      1.2511447378     2.1107577701     3.9986906799
Ni     -6.1066935430     2.1124210410     3.9977175598
Ni     -1.1971450423    -2.1441796992     3.9956122982
Ni     -8.5731133671    -2.1384754367     4.0099659553
Ni      2.4891947008    -0.0081551246     4.0030549688
Ni     -4.8824740483    -0.0205940158     3.9984155786
Ni      3.7143585005     2.1061287411     4.0011197604
Ni     -3.6559178202     2.1156087299     4.0097427696
Ni      1.2621792023    -2.1426021460     3.9933667301
Ni     -6.1180583802    -2.1524585743     4.0070260239
Ni      4.9432972508    -0.0152412324     4.0123647279
Ni     -2.4284500399    -0.0166498466     3.9962384548
Ni      6.1769994342     2.1098296014     3.9974650546
Ni     -1.2079845665     2.1159527739     4.0058354518
Ni      3.7199773556    -2.1348130663     3.9885199823
Ni     -3.6572413316    -2.1501656232     3.9958314421
Ni      1.2107473604     0.7239301386     6.0164411041
Ni     -6.1759885306     0.7139395889     6.0083261530
Ni      2.4272148049     2.8503211981     5.9950960723
Ni     -4.9139508413     2.8517990614     6.0218792652
Ni     -0.0283479893    -1.4001692498     6.0032402762
Ni     -7.3795352216    -1.3900385477     6.0406656510
Ni      3.6813549750     0.7154207698     6.0522939850
Ni     -3.7103076989     0.7357300981     6.0172575982
Ni      4.8872415977     2.8576964477     5.9983408820
Ni     -2.4988268731     2.8334840149     6.0731143268
Ni      2.4333836379    -1.3959756376     6.0024444131
Ni     -4.9336324545    -1.4191816738     6.0053875004
Ni      6.1222677523     0.7133055239     6.0102326338
Ni     -1.2492694571     0.7254932137     6.0031655825
Ni      7.3542948386     2.8650939272     5.9823882937
Ni     -0.0330348287     2.8469800279     6.0168792992
Ni      4.9075357130    -1.3854385281     6.0423788061
Ni     -2.4915498196    -1.4079296505     6.0003166348
Ni      0.0024589765     0.0003108785     8.0113952402
Ni     -7.3365667323    -0.0134707917     8.1234901053
Ni      1.2348774728     2.1227956823     8.0155218381
Ni      8.6095015801     2.1508108179     7.9261919402
Ni     -1.2249941851    -2.1285322153     7.9986820640
Ni     -8.5819548214    -2.1515959353     8.0018034355
Ni      2.4504518637    -0.0004664636     8.0303497942
Ni     -4.8966393318    -0.0363658755     7.9684410137
Ni      3.6495578940     2.1643317044     7.9819813082
Ni     -3.6795301132     2.0934220653     8.1749420903
Ni      1.2235202025    -2.1123204772     7.9998390698
Ni     -6.1253717365    -2.1346210312     8.0314570291
Ni      4.8893344339    -0.0116173889     8.1707505727
Ni     -2.4291281543    -0.0244420467     7.9741462656
Ni      6.1552326909     2.1645555610     7.9642261774
Ni     -1.2053568802     2.1123804057     8.0332203171
Ni      3.6886572427    -2.1060466966     7.9947616663
Ni     -3.6759605513    -2.1438593566     8.0191388162
O       6.1879738531     0.9020518772     9.4312708231
H      10.1517256318     2.4242046547    10.6616696468
H       7.2523225972     2.2427447181    10.6083372834
H       1.7890549400    -3.9612138498    10.6681468022
C       6.2865207986     1.6844338052    10.6480023755
O       7.1933752916    -0.1251564692    11.8454436811
H      -7.0744000987    -0.2237033513    10.9626637814
C       6.3607345090     0.8692614587    11.9234308246
H       6.8786707720     3.4855818203    12.6750046601
C       7.7521920488     3.7767040359    13.2751539676
H       3.9620117146    -1.5459958319    13.5488303259
H       8.6633462135     3.6760778613    12.6507948437
O       7.7844992683     2.9107472568    14.4110956664
H       8.1854227052     3.3859043855    15.1551384554
O      -4.1643187743     1.6444390630    10.2583555714
H      -3.3543803038     1.4574200676    10.7692189397
88
Step 4 | NEB Image 4 | Cartesian Angstrom
Ni      1.2285271350     0.7092904720     2.0000000000
Ni     -6.1433728650     0.7092904720     2.0000000000
Ni      2.4570542700     2.8371618880     2.0000000000
Ni     -4.9148457300     2.8371618880     2.0000000000
Ni      0.0000000000    -1.4185809440     2.0000000000
Ni     -7.3719000000    -1.4185809440     2.0000000000
Ni      3.6855814050     0.7092904720     2.0000000000
Ni     -3.6863185950     0.7092904720     2.0000000000
Ni      4.9141085400     2.8371618880     2.0000000000
Ni     -2.4577914600     2.8371618880     2.0000000000
Ni      2.4570542700    -1.4185809440     2.0000000000
Ni     -4.9148457300    -1.4185809440     2.0000000000
Ni      6.1433728650     0.7092904720     2.0000000000
Ni     -1.2285271350     0.7092904720     2.0000000000
Ni      7.3719000000     2.8371618880     2.0000000000
Ni      0.0000000000     2.8371618880     2.0000000000
Ni      4.9148457300    -1.4185809440     2.0000000000
Ni     -2.4570542700    -1.4185809440     2.0000000000
Ni      0.0358799406    -0.0141770831     3.9980393782
Ni     -7.3375178314    -0.0147956598     3.9995050435
Ni      1.2602518159     2.1108026213     3.9980138244
Ni     -6.1045143319     2.1165209242     3.9983814093
Ni     -1.1920937479    -2.1418316083     3.9975010094
Ni     -8.5687073262    -2.1405104769     4.0044025894
Ni      2.4955288923    -0.0097207035     4.0034859545
Ni     -4.8765970570    -0.0152632783     3.9958234090
Ni      3.7220327969     2.1092995276     4.0042546642
Ni     -3.6519571896     2.1154791134     4.0082327233
Ni      1.2648530035    -2.1437040998     3.9979401578
Ni     -6.1093034888    -2.1478806395     3.9986666951
Ni      4.9506974219    -0.0126614345     4.0117358067
Ni     -2.4251427162    -0.0140166934     3.9982086595
Ni      6.1804523591     2.1136030119     4.0042617001
Ni     -1.1990452486     2.1155863058     4.0003101216
Ni      3.7209621903    -2.1374417670     3.9899217796
Ni     -3.6485919772    -2.1468075709     3.9931133321
Ni      1.2135789867     0.7278655656     6.0137294342
Ni     -6.1664249541     0.7182617001     6.0085029104
Ni      2.4368085570     2.8542668443     5.9969488561
Ni     -4.9070262895     2.8505728456     6.0247653546
Ni     -0.0204686547    -1.3979925521     6.0082906626
Ni     -7.3778589051    -1.3845365259     6.0170346015
Ni      3.6841599543     0.7212630209     6.0482663426
Ni     -3.7013053165     0.7442878916     6.0314332228
Ni      4.8990373475     2.8596267865     6.0179062663
Ni     -2.4879843478     2.8431997597     6.0454217100
Ni      2.4362191141    -1.3942602369     6.0049474296
Ni     -4.9223935493    -1.4087092709     5.9970652666
Ni      6.1263137404     0.7287559705     6.0205940002
Ni     -1.2457232393     0.7282456807     6.0014752395
Ni      7.3611699307     2.8599433634     6.0000824393
Ni     -0.0226878020     2.8562398119     6.0077102165
Ni      4.9067791159    -1.3858828470     6.0266719696
Ni     -2.4825259944    -1.4009826697     6.0029921695
Ni      0.0028502601     0.0118690509     8.0130748325
Ni     -7.3316992342    -0.0135579773     8.1095526491
Ni      1.2381172347     2.1321171513     8.0101733428
Ni      8.6306505694     2.1518135306     7.9461737330
Ni     -1.2200832290    -2.1217417633     8.0025890109
Ni     -8.5853390637    -2.1416532840     7.9760814550
Ni      2.4518815635     0.0112598089     8.0269582598
Ni     -4.8893590461    -0.0199775419     7.9789474804
Ni      3.6542803301     2.1674203760     7.9904371837
Ni     -3.6662334553     2.1116735186     8.1784124419
Ni      1.2239820080    -2.0981046360     8.0151974338
Ni     -6.1157861526    -2.1229053634     7.9951555398
Ni      4.8961447588    -0.0166857470     8.1369665419
Ni     -2.4250987941    -0.0179202554     7.9887418756
Ni      6.1612849656     2.2023220539     8.0338230891
Ni     -1.1954997984     2.1244711838     8.0057084454
Ni      3.6901424378    -2.0993250319     7.9961763171
Ni     -3.6726992380    -2.1315978863     8.0175374747
O       6.1797391173     0.8435448945     9.3840429793
H      10.8370031772     2.9519024462    10.5921559868
H       7.0042723612     2.0005769782    10.9116190939
H       1.7253092322    -5.0959419053    11.2579128131
C       6.3835456659     1.0891759150    10.7853445619
O       7.7764716939    -0.8575464219    10.9460384140
H      -6.9385082786    -0.8380159091     9.8362439053
C       7.1224243263     0.0438039263    11.5549862890
H       8.3796795256     4.2415015323    11.8299830936
C       8.4951675233     4.3415573393    12.9228487155
H       3.9816335764    -1.4218273802    13.2993329588
H       9.4388711182     4.8683226375    13.1238044735
O       8.4522561064     3.0374136452    13.5196855667
H       9.2382001833     2.9252716099    14.0752829147
O      -3.7754012599     2.0326296604    10.2864325121
H      -2.8648184634     1.7897702138    10.5466130372
88
Step 5 | NEB Image 5 | Cartesian Angstrom
Ni      1.2285271350     0.7092904720     2.0000000000
Ni     -6.1433728650     0.7092904720     2.0000000000
Ni      2.4570542700     2.8371618880     2.0000000000
Ni     -4.9148457300     2.8371618880     2.0000000000
Ni      0.0000000000    -1.4185809440     2.0000000000
Ni     -7.3719000000    -1.4185809440     2.0000000000
Ni      3.6855814050     0.7092904720     2.0000000000
Ni     -3.6863185950     0.7092904720     2.0000000000
Ni      4.9141085400     2.8371618880     2.0000000000
Ni     -2.4577914600     2.8371618880     2.0000000000
Ni      2.4570542700    -1.4185809440     2.0000000000
Ni     -4.9148457300    -1.4185809440     2.0000000000
Ni      6.1433728650     0.7092904720     2.0000000000
Ni     -1.2285271350     0.7092904720     2.0000000000
Ni      7.3719000000     2.8371618880     2.0000000000
Ni      0.0000000000     2.8371618880     2.0000000000
Ni      4.9148457300    -1.4185809440     2.0000000000
Ni     -2.4570542700    -1.4185809440     2.0000000000
Ni      0.0464326620    -0.0306468460     3.9976675890
Ni     -7.3257303870    -0.0255862300     3.9933782980
Ni      1.2739848450     2.0960038070     3.9979157030
Ni     -6.1026021170     2.1049500680     4.0019149180
Ni     -1.1827110610    -2.1546561820     3.9989053170
Ni     -8.5597082650    -2.1592869340     3.9982394010
Ni      2.5024778430    -0.0256743600     4.0031952220
Ni     -4.8641413240    -0.0227350050     3.9956475690
Ni      3.7346756480     2.0985190290     4.0083618800
Ni     -3.6458198020     2.0991473590     4.0056686860
Ni      1.2703768650    -2.1597674920     4.0015811390
Ni     -6.0933336510    -2.1603781540     3.9902680500
Ni      4.9590538200    -0.0289845540     4.0074783820
Ni     -2.4167678920    -0.0248088220     4.0022401470
Ni      6.1885777810     2.1026461420     4.0098077600
Ni     -1.1844811720     2.0985803670     3.9964394390
Ni      3.7245308300    -2.1560713310     3.9888953010
Ni     -3.6351397940    -2.1574140910     3.9933365850
Ni      1.2278611130     0.7073057200     6.0134419810
Ni     -6.1428898530     0.6957346210     6.0102358510
Ni      2.4563605190     2.8356121920     5.9987058000
Ni     -4.8924583120     2.8187736320     6.0264580820
Ni      0.0002252210    -1.4241376010     6.0155868270
Ni     -7.3667991100    -1.4101212980     5.9895528060
Ni      3.6921281460     0.7008202940     6.0360645010
Ni     -3.6779272240     0.7256007260     6.0512861550
Ni      4.9267336850     2.8309168990     6.0432780270
Ni     -2.4664659500     2.8157315660     6.0151173370
Ni      2.4509011280    -1.4197685090     6.0062316800
Ni     -4.8985683740    -1.4191884620     5.9881596610
Ni      6.1372839650     0.7115480370     6.0073921100
Ni     -1.2256557510     0.7019370040     6.0032560690
Ni      7.3730564330     2.8242126570     6.0269074010
Ni     -0.0034566730     2.8405670140     6.0010880700
Ni      4.9162369820    -1.4189308570     6.0083232610
Ni     -2.4596272260    -1.4182314770     6.0084483810
Ni      0.0277268390    -0.0168450280     8.0180888710
Ni     -7.3091221710    -0.0327920680     8.0371701400
Ni      1.2611452740     2.1078740620     8.0062525300
Ni      8.6667549770     2.1138793650     7.9801313330
Ni     -1.1942402360    -2.1496555940     8.0109921590
Ni     -8.5668484660    -2.1735761150     7.9430911750
Ni      2.4712577410    -0.0190631580     8.0243063390
Ni     -4.8670711400    -0.0431110720     7.9967287920
Ni      3.6750137580     2.1321536040     7.9940007810
Ni     -3.6274773380     2.0999917070     8.2089215290
Ni      1.2517815200    -2.1329879940     8.0267060850
Ni     -6.0785108950    -2.1534189890     7.9361595560
Ni      4.9123316280    -0.0512787390     8.0829089500
Ni     -2.4007725170    -0.0429334740     8.0081832520
Ni      6.1908597070     2.1505617180     8.1094472440
Ni     -1.1654360560     2.0989982700     7.9806126390
Ni      3.7077660390    -2.1419918620     7.9975968800
Ni     -3.6463297530    -2.1524111230     8.0158878220
O       6.1707187590     0.6663307040     9.3727337630
H      11.2555922500     3.1706166680    10.5266232770
H       7.1149227860     1.0824741990    11.1550798120
H       1.6297081310    -5.3793991980    11.2177269450
C       6.2238707100     0.5353136510    10.8108846880
O       7.5718415080    -1.5277099790    10.9241884940
H      -6.8828388710    -1.2337967880    10.0124245870
C       6.2850334910    -0.9302036460    11.2182633770
H       9.1791669060     4.9099545600    10.6626973770
C       9.7467965870     5.2786349730    12.7161077750
H       5.0959169980    -0.6608682970    12.9933131080
H      10.5457770910     5.8077082870    13.2666670860
O       9.6783811350     3.9068622240    13.1006105230
H      10.5447055700     3.5019751520    12.9206205020
O      -3.5153567700     2.2005093110    10.2599052050
H      -2.6227032800     1.8412518110    10.4321503050
