88
Step 1 | NEB Image 1 | Cartesian Angstrom
Ni      1.2285271350     0.7092904720     2.0000000000
Ni     -6.1433728650     0.7092904720     2.0000000000
Ni      2.4570542700     2.8371618880     2.0000000000
Ni     -4.9148457300     2.8371618880     2.0000000000
Ni      0.0000000000    -1.4185809440     2.0000000000
Ni     -7.3719000000    -1.4185809440     2.0000000000
Ni      3.6855814050     0.7092904720     2.0000000000
Ni     -3.6863185950     0.7092904720     2.0000000000
Ni      4.9141085400     2.8371618880     2.0000000000
Ni     -2.4577914600     2.8371618880     2.0000000000
Ni      2.4570542700    -1.4185809440     2.0000000000
Ni     -4.9148457300    -1.4185809440     2.0000000000
Ni      6.1433728650     0.7092904720     2.0000000000
Ni     -1.2285271350     0.7092904720     2.0000000000
Ni      7.3719000000     2.8371618880     2.0000000000
Ni      0.0000000000     2.8371618880     2.0000000000
Ni      4.9148457300    -1.4185809440     2.0000000000
Ni     -2.4570542700    -1.4185809440     2.0000000000
Ni      0.0345187234    -0.0219895959     3.9906686506
Ni     -7.3332872529    -0.0205271350     3.9970929970
Ni      1.2574298371     2.1090479016     3.9981086770
Ni     -6.1061214153     2.1042281316     4.0017605185
Ni     -1.1958375155    -2.1495425789     3.9888614873
Ni     -8.5615731291    -2.1597422030     3.9935633301
Ni      2.4909200515    -0.0209290578     3.9889124626
Ni     -4.8775455868    -0.0288695998     4.0155932973
Ni      3.7235299523     2.1102350339     3.9932622384
Ni     -3.6483031855     2.1055811522     4.0174271749
Ni      1.2597529797    -2.1544756242     3.9969618463
Ni     -6.1074652262    -2.1506208434     4.0019689283
Ni      4.9550771908    -0.0234645643     3.9935565644
Ni     -2.4269867653    -0.0199772708     3.9982338911
Ni      6.1741097051     2.1083418571     4.0046158614
Ni     -1.1996729370     2.1123145435     4.0000024585
Ni      3.7197951829    -2.1539414756     3.9921760547
Ni     -3.6589301935    -2.1514998115     3.9994955107
Ni      1.2136841869     0.7163863979     5.9963073096
Ni     -6.1473437226     0.7096773911     6.0218176054
Ni      2.4453295017     2.8415084524     5.9971730433
Ni     -4.9231971923     2.8360653972     6.0327934449
Ni     -0.0226348385    -1.4110330430     6.0020236029
Ni     -7.3908667378    -1.4145678834     5.9981301391
Ni      3.6669417345     0.7157583701     5.9869138182
Ni     -3.7108784987     0.7190435175     6.0328517480
Ni      4.9057976617     2.8388244163     6.0411982092
Ni     -2.4814248435     2.8298458387     6.0521186228
Ni      2.4355069788    -1.4085502466     5.9888639843
Ni     -4.9252928465    -1.4026264080     6.0548563839
Ni      6.1341025786     0.7315238745     6.0218817427
Ni     -1.2402669783     0.7221835538     5.9926808095
Ni      7.3408175190     2.8291688103     6.0248565089
Ni     -0.0225097209     2.8466795557     6.0142376281
Ni      4.9088271165    -1.4251457534     5.9900387779
Ni     -2.4790699264    -1.4211153466     5.9913638200
Ni      0.0337137405    -0.0099863123     8.0038502320
Ni     -7.3606520147    -0.0334139511     7.9835827732
Ni      1.2525382386     2.1076756093     8.0014158677
Ni      8.5596645315     2.1514300915     7.9633346422
Ni     -1.1983605499    -2.1613845897     8.0018652759
Ni     -8.5927669864    -2.1264268734     8.0165035337
Ni      2.4708324722    -0.0109047600     8.0065027389
Ni     -4.8995212632    -0.0584838282     8.1493062015
Ni      3.6789469906     2.1047412898     7.9888648741
Ni     -3.6333178494     2.1270714900     8.1546283531
Ni      1.2394335961    -2.1164979174     7.9892760222
Ni     -6.1305722611    -2.1461024656     7.9989212299
Ni      4.9150163145    -0.0283439881     7.9490640309
Ni     -2.3653823178    -0.0601929248     7.9425724452
Ni      6.1349712758     2.1197335004     8.1598232492
Ni     -1.1861990586     2.1067384809     8.0263285947
Ni      3.6953023012    -2.1157302873     7.9694462946
Ni     -3.6468332403    -2.1628724713     8.0264725749
O       5.9486020032     1.9536774433    10.1568983318
H       6.2023593986     1.0444615420    10.4395396161
H       7.6485803319     2.9982816350    10.7947394844
H       2.3841835216    -2.5662265370    10.9995346326
C       6.5922936452     2.8570131008    11.0871865803
O       6.8828593053     0.8516013498    12.3925733789
H      -6.8879959571     0.8254517200    12.3248078773
C       6.4620997723     2.2299052156    12.4710261049
H       5.3979785171     2.1706601767    12.7461907790
C       7.1981974178     3.0342299686    13.5247288963
H       3.2389656514    -2.2859498111    13.4051121917
H       8.2901195875     2.9478942375    13.3576433856
O       6.8260697992     2.5426661176    14.8120038538
H       7.2522042786     3.0948827032    15.4870039972
O      -4.3927237137     1.0982075682     9.5865509607
H      -3.6717371060     0.6667680985    10.0888232085
88
Step 2 | NEB Image 2 | Cartesian Angstrom
Ni      1.2285271350     0.7092904720     2.0000000000
Ni     -6.1433728650     0.7092904720     2.0000000000
Ni      2.4570542700     2.8371618880     2.0000000000
Ni     -4.9148457300     2.8371618880     2.0000000000
Ni      0.0000000000    -1.4185809440     2.0000000000
Ni     -7.3719000000    -1.4185809440     2.0000000000
Ni      3.6855814050     0.7092904720     2.0000000000
Ni     -3.6863185950     0.7092904720     2.0000000000
Ni      4.9141085400     2.8371618880     2.0000000000
Ni     -2.4577914600     2.8371618880     2.0000000000
Ni      2.4570542700    -1.4185809440     2.0000000000
Ni     -4.9148457300    -1.4185809440     2.0000000000
Ni      6.1433728650     0.7092904720     2.0000000000
Ni     -1.2285271350     0.7092904720     2.0000000000
Ni      7.3719000000     2.8371618880     2.0000000000
Ni      0.0000000000     2.8371618880     2.0000000000
Ni      4.9148457300    -1.4185809440     2.0000000000
Ni     -2.4570542700    -1.4185809440     2.0000000000
Ni      0.0347924409    -0.0135000771     3.9933502867
Ni     -7.3217880508    -0.0051331447     4.0072451243
Ni      1.2579442393     2.1188892108     3.9971115714
Ni     -6.1073917191     2.1170917905     4.0319184007
Ni     -1.1946718694    -2.1383017457     3.9899117360
Ni     -8.5583982159    -2.1490137745     4.0045780493
Ni      2.4936948384    -0.0158027244     3.9934347822
Ni     -4.8816871393    -0.0072877575     4.0281860997
Ni      3.7259582765     2.1164039225     3.9963963243
Ni     -3.6480191548     2.1219076997     4.0207013707
Ni      1.2620730943    -2.1448206006     3.9995873346
Ni     -6.1037394075    -2.1350639517     4.0067692129
Ni      4.9616140150    -0.0166180847     3.9984012079
Ni     -2.4293031114    -0.0052578831     3.9998435162
Ni      6.1812230474     2.1189704383     4.0068489251
Ni     -1.1996739069     2.1239646400     3.9993568875
Ni      3.7232953516    -2.1525587596     4.0026649690
Ni     -3.6592634575    -2.1326606746     4.0018722766
Ni      1.2153460928     0.7324670038     5.9966213099
Ni     -6.1211836963     0.7567931761     6.1006625821
Ni      2.4433843346     2.8600276614     5.9902197921
Ni     -4.9283179127     2.8444171107     6.0641157326
Ni     -0.0157266310    -1.3975587280     6.0070427627
Ni     -7.3800582462    -1.3891576359     6.0095184591
Ni      3.6697305127     0.7278152427     5.9910125544
Ni     -3.7004048778     0.7430117078     6.0463403673
Ni      4.9132361057     2.8516949852     6.0396472502
Ni     -2.4754555718     2.8637026743     6.0506609144
Ni      2.4394569660    -1.4017003689     6.0024040141
Ni     -4.9171598895    -1.3608206965     6.0638183587
Ni      6.1426540761     0.7355481876     6.0141545921
Ni     -1.2372406708     0.7411480273     5.9946367764
Ni      7.3554848943     2.8328657351     6.0805831005
Ni     -0.0191853082     2.8739619260     6.0057405574
Ni      4.9051513631    -1.4094000835     5.9980360647
Ni     -2.4704333976    -1.3976814101     5.9942692619
Ni      0.0345111650     0.0077767153     8.0039600495
Ni     -7.3153167086    -0.0094714524     7.9889180054
Ni      1.2487340878     2.1345271863     7.9975231644
Ni      8.5684928772     2.2382578494     8.1945081443
Ni     -1.1985695948    -2.1357338393     8.0033502581
Ni     -8.5662484432    -2.0768568054     7.9989575192
Ni      2.4566298826     0.0147200433     8.0068434087
Ni     -4.8106743700     0.0173283026     8.2590081617
Ni      3.6621511695     2.1370285484     7.9792130612
Ni     -3.5886453750     2.1821756043     8.1291431857
Ni      1.2355390345    -2.1113605886     8.0167451187
Ni     -6.0864730369    -2.0905869768     8.0110364218
Ni      4.8981128870    -0.0040176341     7.9645864296
Ni     -2.3580309025    -0.0303888925     7.9592938336
Ni      6.1107592333     2.1149006265     8.1273959811
Ni     -1.1666210186     2.1402534445     8.0096368907
Ni      3.6693501649    -2.0704989773     7.9960564580
Ni     -3.6397271370    -2.1267349155     8.0292924360
O       6.1241817312     1.3914927120    10.0201192974
H       9.0585511318     2.6043943360     9.7570135924
H       8.2502562272     2.3050586837     9.8188129399
H       1.4647023300    -3.5861737299    11.0975015504
C       5.9352760084     2.0320318668    11.0734827234
O       7.3825425602     0.4608624221    12.1338855141
H      -7.4831853001     0.1733706475    11.1958537631
C       6.6965506496     1.6885455392    12.3145154025
H       5.9296108602     1.6429505082    13.1172314668
C       7.5421047795     2.8963810338    12.9262703719
H       3.4079626333    -2.5058450965    12.6727116948
H       8.5639166842     2.8743067906    12.5239948655
O       7.5450246209     2.7451626111    14.3553703398
H       8.1815109232     3.3747831860    14.7418176176
O      -4.0530619580     1.2165987257     9.6970675321
H      -3.2359238016     1.0198383433    10.1995242982
88
Step 3 | NEB Image 3 | Cartesian Angstrom
Ni      1.2285271350     0.7092904720     2.0000000000
Ni     -6.1433728650     0.7092904720     2.0000000000
Ni      2.4570542700     2.8371618880     2.0000000000
Ni     -4.9148457300     2.8371618880     2.0000000000
Ni      0.0000000000    -1.4185809440     2.0000000000
Ni     -7.3719000000    -1.4185809440     2.0000000000
Ni      3.6855814050     0.7092904720     2.0000000000
Ni     -3.6863185950     0.7092904720     2.0000000000
Ni      4.9141085400     2.8371618880     2.0000000000
Ni     -2.4577914600     2.8371618880     2.0000000000
Ni      2.4570542700    -1.4185809440     2.0000000000
Ni     -4.9148457300    -1.4185809440     2.0000000000
Ni      6.1433728650     0.7092904720     2.0000000000
Ni     -1.2285271350     0.7092904720     2.0000000000
Ni      7.3719000000     2.8371618880     2.0000000000
Ni      0.0000000000     2.8371618880     2.0000000000
Ni      4.9148457300    -1.4185809440     2.0000000000
Ni     -2.4570542700    -1.4185809440     2.0000000000
Ni      0.0286812326    -0.0085669146     3.9967809353
Ni     -7.3414513780    -0.0129031702     4.0002132548
Ni      1.2516322640     2.1155239494     3.9968075107
Ni     -6.1063658907     2.1188092480     3.9984186410
Ni     -1.1992557434    -2.1367653309     3.9956616053
Ni     -8.5717925227    -2.1359822951     4.0077256909
Ni      2.4888476571    -0.0048763564     4.0015897449
Ni     -4.8818362733    -0.0126691102     3.9987507443
Ni      3.7144752919     2.1131648660     3.9989450920
Ni     -3.6563978257     2.1204466111     4.0111782119
Ni      1.2593108229    -2.1381928153     3.9943179654
Ni     -6.1159969809    -2.1438863465     4.0039609772
Ni      4.9456245755    -0.0095268642     4.0101624039
Ni     -2.4312058169    -0.0094806161     3.9976623981
Ni      6.1767137742     2.1162844169     4.0008710246
Ni     -1.2066449079     2.1211595831     4.0018187846
Ni      3.7175931228    -2.1319086859     3.9857354267
Ni     -3.6562114172    -2.1426526382     3.9945628727
Ni      1.2033062818     0.7347415974     6.0133152521
Ni     -6.1788320194     0.7255680874     6.0115739892
Ni      2.4238114503     2.8622400602     5.9910824586
Ni     -4.9157150166     2.8595690117     6.0287659963
Ni     -0.0325044343    -1.3892134845     6.0048840170
Ni     -7.3858836736    -1.3753909779     6.0301964939
Ni      3.6730933533     0.7281364982     6.0410547564
Ni     -3.7126551576     0.7510584669     6.0308693646
Ni      4.8856704748     2.8692241957     6.0032757256
Ni     -2.4989389461     2.8515854833     6.0572432499
Ni      2.4269413384    -1.3872001285     6.0014321179
Ni     -4.9339753039    -1.4036214222     6.0046541843
Ni      6.1175990799     0.7336404567     6.0143727267
Ni     -1.2566749321     0.7368762597     6.0025585918
Ni      7.3550694026     2.8712016292     5.9885736393
Ni     -0.0341494366     2.8622569735     6.0107876386
Ni      4.8992613785    -1.3794305420     6.0272910677
Ni     -2.4945998675    -1.3932857525     6.0028903136
Ni     -0.0117567123     0.0218383547     8.0112208200
Ni     -7.3542742004     0.0055844996     8.1260149391
Ni      1.2244052033     2.1420001806     8.0098965268
Ni      8.6119830607     2.1618119089     7.9414874381
Ni     -1.2352369053    -2.1119423626     7.9990696516
Ni     -8.5948335138    -2.1268136850     7.9893947154
Ni      2.4363693803     0.0207046997     8.0247083652
Ni     -4.9083340979    -0.0118048364     7.9790621721
Ni      3.6356821046     2.1812770627     7.9745386409
Ni     -3.6806418495     2.1205996596     8.1782411968
Ni      1.2077683197    -2.0848626888     8.0083433759
Ni     -6.1335286652    -2.1086830741     8.0163235622
Ni      4.8757945131    -0.0093993591     8.1305277554
Ni     -2.4400556858    -0.0075787642     7.9868468324
Ni      6.1504130322     2.2214184871     7.9970998347
Ni     -1.2101847926     2.1342202067     8.0138845894
Ni      3.6767215356    -2.0877548218     7.9916876246
Ni     -3.6871272485    -2.1225977052     8.0207849247
O       6.0739028579     0.9100829104     9.3681443119
H      10.6023220551     2.8969628384    10.5631646859
H       6.7369424208     2.1769645008    10.8688443811
H       1.3783768825    -4.7814321067    11.0474712541
C       6.0791794741     1.2924365309    10.7530443591
O       7.1539393568    -0.7687440691    11.2114432086
H      -7.5375836776    -0.8092000275    10.1694577090
C       6.5976175088     0.2774159205    11.7160853097
H       6.4726508032     3.2284177916    13.2073855879
C       7.4603219681     3.5982780508    13.5122453591
H       3.8208619974    -1.6991582899    13.3234350952
H       8.2239696075     3.0978403265    12.8877509616
O       7.5964831931     3.2775911099    14.8963858779
H       8.4149575695     3.6797700187    15.2291869212
O      -3.8820377935     2.0000772682    10.2722826767
H      -2.9805922848     1.8482167568    10.6170289627
88
Step 4 | NEB Image 4 | Cartesian Angstrom
Ni      1.2285271350     0.7092904720     2.0000000000
Ni     -6.1433728650     0.7092904720     2.0000000000
Ni      2.4570542700     2.8371618880     2.0000000000
Ni     -4.9148457300     2.8371618880     2.0000000000
Ni      0.0000000000    -1.4185809440     2.0000000000
Ni     -7.3719000000    -1.4185809440     2.0000000000
Ni      3.6855814050     0.7092904720     2.0000000000
Ni     -3.6863185950     0.7092904720     2.0000000000
Ni      4.9141085400     2.8371618880     2.0000000000
Ni     -2.4577914600     2.8371618880     2.0000000000
Ni      2.4570542700    -1.4185809440     2.0000000000
Ni     -4.9148457300    -1.4185809440     2.0000000000
Ni      6.1433728650     0.7092904720     2.0000000000
Ni     -1.2285271350     0.7092904720     2.0000000000
Ni      7.3719000000     2.8371618880     2.0000000000
Ni      0.0000000000     2.8371618880     2.0000000000
Ni      4.9148457300    -1.4185809440     2.0000000000
Ni     -2.4570542700    -1.4185809440     2.0000000000
Ni      0.0407694449    -0.0248993342     3.9982663116
Ni     -7.3380874426    -0.0175815610     4.0021599987
Ni      1.2665214968     2.1019257696     3.9975383751
Ni     -6.1066109355     2.1083253885     4.0022567831
Ni     -1.1894149571    -2.1504146984     3.9975543151
Ni     -8.5649900242    -2.1470086930     4.0039297186
Ni      2.4998964812    -0.0198299371     4.0042638244
Ni     -4.8749735833    -0.0171330971     3.9985191773
Ni      3.7253155152     2.1013635015     4.0091770999
Ni     -3.6501256691     2.1079854554     4.0043114675
Ni      1.2655630056    -2.1568355409     4.0021461311
Ni     -6.1054024894    -2.1501113036     3.9963464809
Ni      4.9529304024    -0.0206753455     4.0134851780
Ni     -2.4227210234    -0.0198949440     3.9967007109
Ni      6.1800940858     2.1046830207     4.0091903105
Ni     -1.1928663034     2.1085768680     3.9948948696
Ni      3.7196635719    -2.1477197046     3.9928971324
Ni     -3.6459937041    -2.1500221184     3.9911370883
Ni      1.2195098385     0.7171236341     6.0128061309
Ni     -6.1592954294     0.7053761332     6.0191733318
Ni      2.4457924824     2.8430406319     6.0008529414
Ni     -4.9018864178     2.8369915431     6.0193465347
Ni     -0.0133017730    -1.4128032331     6.0095944603
Ni     -7.3733400812    -1.3949321086     6.0139566622
Ni      3.6876448664     0.7062916204     6.0512339977
Ni     -3.6915974197     0.7330194257     6.0281410729
Ni      4.9109957852     2.8387866644     6.0349409011
Ni     -2.4733508493     2.8402139687     6.0199721222
Ni      2.4350109267    -1.4078798485     6.0067959507
Ni     -4.9126029205    -1.4130373312     5.9983770109
Ni      6.1335066549     0.7150906333     6.0349690856
Ni     -1.2400871505     0.7186464496     5.9947964041
Ni      7.3623471530     2.8408291406     6.0137685821
Ni     -0.0106832571     2.8501995013     5.9992324960
Ni      4.9041240863    -1.4023790670     6.0223897251
Ni     -2.4719851979    -1.4100753916     5.9998702542
Ni      0.0144261050    -0.0077934240     8.0082009512
Ni     -7.3334735642    -0.0085885074     8.1045364601
Ni      1.2480999717     2.1153722767     8.0106857615
Ni      8.6425272652     2.1441774607     7.9632848199
Ni     -1.2077138296    -2.1348827892     8.0061067585
Ni     -8.5909617063    -2.1545238861     7.9586092031
Ni      2.4552959189    -0.0077765559     8.0306380111
Ni     -4.8520737667    -0.0117052828     8.0133773054
Ni      3.6631272619     2.1434832292     7.9998312456
Ni     -3.6490002812     2.1097939581     8.1349873588
Ni      1.2313161196    -2.1231234459     8.0239485769
Ni     -6.0939073666    -2.1564359268     7.9927343717
Ni      4.8978172687    -0.0419416867     8.1292911834
Ni     -2.4097867543    -0.0316634560     7.9883974057
Ni      6.1692880928     2.1731172476     8.0781664195
Ni     -1.1731798869     2.1078235971     7.9826531450
Ni      3.6838709225    -2.1239786987     7.9968058224
Ni     -3.6449781728    -2.1497019210     8.0139458247
O       6.1329354189     0.7604188111     9.4375858045
H      11.2312370490     3.1614305811    10.4509156481
H       6.8929848924     1.8098725223    11.0762606546
H       1.6015544348    -5.3345369714    11.3138000126
C       6.2753352434     0.9232067438    10.8445108295
O       7.5096327461    -1.2077832293    11.1673353958
H      -6.0458939156    -0.7571064344     8.9025113326
C       6.9715469371    -0.2227755824    11.5432955854
H       8.0405345939     4.4252594041    11.7138665252
C       8.2055772836     4.3172571384    12.7939569546
H       3.6533472268    -1.6484636491    13.3315165668
H       9.1042607444     4.8977839511    13.0668360836
O       8.3712525162     2.9169136455    13.0420589984
H       8.5701506940     2.7947574511    13.9848586021
O      -3.6122430931     2.2083212879    10.2369628395
H      -2.7441868684     1.8011833071    10.4309554767
88
Step 5 | NEB Image 5 | Cartesian Angstrom
Ni      1.2285271350     0.7092904720     2.0000000000
Ni     -6.1433728650     0.7092904720     2.0000000000
Ni      2.4570542700     2.8371618880     2.0000000000
Ni     -4.9148457300     2.8371618880     2.0000000000
Ni      0.0000000000    -1.4185809440     2.0000000000
Ni     -7.3719000000    -1.4185809440     2.0000000000
Ni      3.6855814050     0.7092904720     2.0000000000
Ni     -3.6863185950     0.7092904720     2.0000000000
Ni      4.9141085400     2.8371618880     2.0000000000
Ni     -2.4577914600     2.8371618880     2.0000000000
Ni      2.4570542700    -1.4185809440     2.0000000000
Ni     -4.9148457300    -1.4185809440     2.0000000000
Ni      6.1433728650     0.7092904720     2.0000000000
Ni     -1.2285271350     0.7092904720     2.0000000000
Ni      7.3719000000     2.8371618880     2.0000000000
Ni      0.0000000000     2.8371618880     2.0000000000
Ni      4.9148457300    -1.4185809440     2.0000000000
Ni     -2.4570542700    -1.4185809440     2.0000000000
Ni      0.0464326620    -0.0306468460     3.9976675890
Ni     -7.3257303870    -0.0255862300     3.9933782980
Ni      1.2739848450     2.0960038070     3.9979157030
Ni     -6.1026021170     2.1049500680     4.0019149180
Ni     -1.1827110610    -2.1546561820     3.9989053170
Ni     -8.5597082650    -2.1592869340     3.9982394010
Ni      2.5024778430    -0.0256743600     4.0031952220
Ni     -4.8641413240    -0.0227350050     3.9956475690
Ni      3.7346756480     2.0985190290     4.0083618800
Ni     -3.6458198020     2.0991473590     4.0056686860
Ni      1.2703768650    -2.1597674920     4.0015811390
Ni     -6.0933336510    -2.1603781540     3.9902680500
Ni      4.9590538200    -0.0289845540     4.0074783820
Ni     -2.4167678920    -0.0248088220     4.0022401470
Ni      6.1885777810     2.1026461420     4.0098077600
Ni     -1.1844811720     2.0985803670     3.9964394390
Ni      3.7245308300    -2.1560713310     3.9888953010
Ni     -3.6351397940    -2.1574140910     3.9933365850
Ni      1.2278611130     0.7073057200     6.0134419810
Ni     -6.1428898530     0.6957346210     6.0102358510
Ni      2.4563605190     2.8356121920     5.9987058000
Ni     -4.8924583120     2.8187736320     6.0264580820
Ni      0.0002252210    -1.4241376010     6.0155868270
Ni     -7.3667991100    -1.4101212980     5.9895528060
Ni      3.6921281460     0.7008202940     6.0360645010
Ni     -3.6779272240     0.7256007260     6.0512861550
Ni      4.9267336850     2.8309168990     6.0432780270
Ni     -2.4664659500     2.8157315660     6.0151173370
Ni      2.4509011280    -1.4197685090     6.0062316800
Ni     -4.8985683740    -1.4191884620     5.9881596610
Ni      6.1372839650     0.7115480370     6.0073921100
Ni     -1.2256557510     0.7019370040     6.0032560690
Ni      7.3730564330     2.8242126570     6.0269074010
Ni     -0.0034566730     2.8405670140     6.0010880700
Ni      4.9162369820    -1.4189308570     6.0083232610
Ni     -2.4596272260    -1.4182314770     6.0084483810
Ni      0.0277268390    -0.0168450280     8.0180888710
Ni     -7.3091221710    -0.0327920680     8.0371701400
Ni      1.2611452740     2.1078740620     8.0062525300
Ni      8.6667549770     2.1138793650     7.9801313330
Ni     -1.1942402360    -2.1496555940     8.0109921590
Ni     -8.5668484660    -2.1735761150     7.9430911750
Ni      2.4712577410    -0.0190631580     8.0243063390
Ni     -4.8670711400    -0.0431110720     7.9967287920
Ni      3.6750137580     2.1321536040     7.9940007810
Ni     -3.6274773380     2.0999917070     8.2089215290
Ni      1.2517815200    -2.1329879940     8.0267060850
Ni     -6.0785108950    -2.1534189890     7.9361595560
Ni      4.9123316280    -0.0512787390     8.0829089500
Ni     -2.4007725170    -0.0429334740     8.0081832520
Ni      6.1908597070     2.1505617180     8.1094472440
Ni     -1.1654360560     2.0989982700     7.9806126390
Ni      3.7077660390    -2.1419918620     7.9975968800
Ni     -3.6463297530    -2.1524111230     8.0158878220
O       6.1707187590     0.6663307040     9.3727337630
H      11.2555922500     3.1706166680    10.5266232770
H       7.1149227860     1.0824741990    11.1550798120
H       1.6297081310    -5.3793991980    11.2177269450
C       6.2238707100     0.5353136510    10.8108846880
O       7.5718415080    -1.5277099790    10.9241884940
H      -6.8828388710    -1.2337967880    10.0124245870
C       6.2850334910    -0.9302036460    11.2182633770
H       9.1791669060     4.9099545600    10.6626973770
C       9.7467965870     5.2786349730    12.7161077750
H       5.0959169980    -0.6608682970    12.9933131080
H      10.5457770910     5.8077082870    13.2666670860
O       9.6783811350     3.9068622240    13.1006105230
H      10.5447055700     3.5019751520    12.9206205020
O      -3.5153567700     2.2005093110    10.2599052050
H      -2.6227032800     1.8412518110    10.4321503050
