88
Step 1 | NEB Image 1 | Cartesian Angstrom
Ni      1.2285271350     0.7092904720     2.0000000000
Ni     -6.1433728650     0.7092904720     2.0000000000
Ni      2.4570542700     2.8371618880     2.0000000000
Ni     -4.9148457300     2.8371618880     2.0000000000
Ni      0.0000000000    -1.4185809440     2.0000000000
Ni     -7.3719000000    -1.4185809440     2.0000000000
Ni      3.6855814050     0.7092904720     2.0000000000
Ni     -3.6863185950     0.7092904720     2.0000000000
Ni      4.9141085400     2.8371618880     2.0000000000
Ni     -2.4577914600     2.8371618880     2.0000000000
Ni      2.4570542700    -1.4185809440     2.0000000000
Ni     -4.9148457300    -1.4185809440     2.0000000000
Ni      6.1433728650     0.7092904720     2.0000000000
Ni     -1.2285271350     0.7092904720     2.0000000000
Ni      7.3719000000     2.8371618880     2.0000000000
Ni      0.0000000000     2.8371618880     2.0000000000
Ni      4.9148457300    -1.4185809440     2.0000000000
Ni     -2.4570542700    -1.4185809440     2.0000000000
Ni      0.0345187234    -0.0219895959     3.9906686506
Ni     -7.3332872529    -0.0205271350     3.9970929970
Ni      1.2574298371     2.1090479016     3.9981086770
Ni     -6.1061214153     2.1042281316     4.0017605185
Ni     -1.1958375155    -2.1495425789     3.9888614873
Ni     -8.5615731291    -2.1597422030     3.9935633301
Ni      2.4909200515    -0.0209290578     3.9889124626
Ni     -4.8775455868    -0.0288695998     4.0155932973
Ni      3.7235299523     2.1102350339     3.9932622384
Ni     -3.6483031855     2.1055811522     4.0174271749
Ni      1.2597529797    -2.1544756242     3.9969618463
Ni     -6.1074652262    -2.1506208434     4.0019689283
Ni      4.9550771908    -0.0234645643     3.9935565644
Ni     -2.4269867653    -0.0199772708     3.9982338911
Ni      6.1741097051     2.1083418571     4.0046158614
Ni     -1.1996729370     2.1123145435     4.0000024585
Ni      3.7197951829    -2.1539414756     3.9921760547
Ni     -3.6589301935    -2.1514998115     3.9994955107
Ni      1.2136841869     0.7163863979     5.9963073096
Ni     -6.1473437226     0.7096773911     6.0218176054
Ni      2.4453295017     2.8415084524     5.9971730433
Ni     -4.9231971923     2.8360653972     6.0327934449
Ni     -0.0226348385    -1.4110330430     6.0020236029
Ni     -7.3908667378    -1.4145678834     5.9981301391
Ni      3.6669417345     0.7157583701     5.9869138182
Ni     -3.7108784987     0.7190435175     6.0328517480
Ni      4.9057976617     2.8388244163     6.0411982092
Ni     -2.4814248435     2.8298458387     6.0521186228
Ni      2.4355069788    -1.4085502466     5.9888639843
Ni     -4.9252928465    -1.4026264080     6.0548563839
Ni      6.1341025786     0.7315238745     6.0218817427
Ni     -1.2402669783     0.7221835538     5.9926808095
Ni      7.3408175190     2.8291688103     6.0248565089
Ni     -0.0225097209     2.8466795557     6.0142376281
Ni      4.9088271165    -1.4251457534     5.9900387779
Ni     -2.4790699264    -1.4211153466     5.9913638200
Ni      0.0337137405    -0.0099863123     8.0038502320
Ni     -7.3606520147    -0.0334139511     7.9835827732
Ni      1.2525382386     2.1076756093     8.0014158677
Ni      8.5596645315     2.1514300915     7.9633346422
Ni     -1.1983605499    -2.1613845897     8.0018652759
Ni     -8.5927669864    -2.1264268734     8.0165035337
Ni      2.4708324722    -0.0109047600     8.0065027389
Ni     -4.8995212632    -0.0584838282     8.1493062015
Ni      3.6789469906     2.1047412898     7.9888648741
Ni     -3.6333178494     2.1270714900     8.1546283531
Ni      1.2394335961    -2.1164979174     7.9892760222
Ni     -6.1305722611    -2.1461024656     7.9989212299
Ni      4.9150163145    -0.0283439881     7.9490640309
Ni     -2.3653823178    -0.0601929248     7.9425724452
Ni      6.1349712758     2.1197335004     8.1598232492
Ni     -1.1861990586     2.1067384809     8.0263285947
Ni      3.6953023012    -2.1157302873     7.9694462946
Ni     -3.6468332403    -2.1628724713     8.0264725749
O       5.9486020032     1.9536774433    10.1568983318
H       6.2023593986     1.0444615420    10.4395396161
H       7.6485803319     2.9982816350    10.7947394844
H       2.3841835216    -2.5662265370    10.9995346326
C       6.5922936452     2.8570131008    11.0871865803
O       6.8828593053     0.8516013498    12.3925733789
H      -6.8879959571     0.8254517200    12.3248078773
C       6.4620997723     2.2299052156    12.4710261049
H       5.3979785171     2.1706601767    12.7461907790
C       7.1981974178     3.0342299686    13.5247288963
H       3.2389656514    -2.2859498111    13.4051121917
H       8.2901195875     2.9478942375    13.3576433856
O       6.8260697992     2.5426661176    14.8120038538
H       7.2522042786     3.0948827032    15.4870039972
O      -4.3927237137     1.0982075682     9.5865509607
H      -3.6717371060     0.6667680985    10.0888232085
88
Step 2 | NEB Image 2 | Cartesian Angstrom
Ni      1.2285271350     0.7092904720     2.0000000000
Ni     -6.1433728650     0.7092904720     2.0000000000
Ni      2.4570542700     2.8371618880     2.0000000000
Ni     -4.9148457300     2.8371618880     2.0000000000
Ni      0.0000000000    -1.4185809440     2.0000000000
Ni     -7.3719000000    -1.4185809440     2.0000000000
Ni      3.6855814050     0.7092904720     2.0000000000
Ni     -3.6863185950     0.7092904720     2.0000000000
Ni      4.9141085400     2.8371618880     2.0000000000
Ni     -2.4577914600     2.8371618880     2.0000000000
Ni      2.4570542700    -1.4185809440     2.0000000000
Ni     -4.9148457300    -1.4185809440     2.0000000000
Ni      6.1433728650     0.7092904720     2.0000000000
Ni     -1.2285271350     0.7092904720     2.0000000000
Ni      7.3719000000     2.8371618880     2.0000000000
Ni      0.0000000000     2.8371618880     2.0000000000
Ni      4.9148457300    -1.4185809440     2.0000000000
Ni     -2.4570542700    -1.4185809440     2.0000000000
Ni      0.0422389191    -0.0268617348     3.9907363787
Ni     -7.3248296609    -0.0201351444     4.0026596850
Ni      1.2644978933     2.1077754020     3.9980550431
Ni     -6.1010495269     2.1029313860     4.0096941366
Ni     -1.1901931603    -2.1519021762     3.9887719872
Ni     -8.5559903535    -2.1621265850     3.9966027685
Ni      2.4978587323    -0.0259407749     3.9906622320
Ni     -4.8753256982    -0.0260376945     4.0202790120
Ni      3.7307086981     2.1064700003     3.9968166911
Ni     -3.6419781051     2.1067279451     4.0184931086
Ni      1.2653888462    -2.1602008939     4.0002175372
Ni     -6.1013334848    -2.1495858132     4.0018106938
Ni      4.9634450696    -0.0270945326     3.9937963526
Ni     -2.4215185911    -0.0203534399     3.9975496477
Ni      6.1812625585     2.1050102380     4.0098337162
Ni     -1.1928675927     2.1109635979     3.9973824273
Ni      3.7253615721    -2.1614504145     3.9962327517
Ni     -3.6549783142    -2.1486205731     3.9997850666
Ni      1.2250969663     0.7114745617     5.9943050967
Ni     -6.1264447809     0.7162690943     6.0487801028
Ni      2.4586807332     2.8363510210     5.9967338684
Ni     -4.9132271247     2.8242734580     6.0422384518
Ni     -0.0092341616    -1.4198975228     6.0048132718
Ni     -7.3766309022    -1.4204847325     6.0004963743
Ni      3.6770997667     0.7088144408     5.9881362230
Ni     -3.6935917727     0.7143217768     6.0297870111
Ni      4.9255926301     2.8260457156     6.0559915153
Ni     -2.4644961617     2.8310809791     6.0475423665
Ni      2.4442300670    -1.4194507349     5.9924841306
Ni     -4.9116582379    -1.3993782536     6.0581810498
Ni      6.1483048779     0.7187431147     6.0241993376
Ni     -1.2247682790     0.7187797512     5.9874464826
Ni      7.3588614181     2.8137853552     6.0447173880
Ni     -0.0078872287     2.8454877314     6.0076879909
Ni      4.9154716706    -1.4304017155     5.9882060194
Ni     -2.4637543647    -1.4272916650     5.9889063031
Ni      0.0562414885    -0.0266308521     8.0016647789
Ni     -7.3152559928    -0.0546980874     7.9790585175
Ni      1.2706995294     2.0989247880     7.9979123497
Ni      8.5893101973     2.1626069179     8.0363654725
Ni     -1.1779263445    -2.1734302261     8.0064920765
Ni     -8.5664707055    -2.1267154053     7.9986852825
Ni      2.4801917901    -0.0235688374     8.0042655831
Ni     -4.8444525159    -0.0625339802     8.1749409201
Ni      3.6913287714     2.0945137359     7.9952781319
Ni     -3.5781769674     2.1136790060     8.1306858740
Ni      1.2553204007    -2.1395722381     8.0068969153
Ni     -6.0941340505    -2.1516511425     8.0053104125
Ni      4.9174588444    -0.0378229499     7.9546542405
Ni     -2.3350984556    -0.0732332689     7.9341447551
Ni      6.1461868779     2.0797226674     8.1805261826
Ni     -1.1531792804     2.0971713077     8.0180302855
Ni      3.7011662883    -2.1200117735     7.9715634798
Ni     -3.6227889722    -2.1727505072     8.0248372276
O       6.3018281323     1.7350040045    10.0871838455
H       9.1264651889     2.3246866266    10.2924188920
H       8.6017304892     2.8431388231    10.0465875793
H       2.0779747173    -2.8756158305    10.9198789022
C       6.2334459438     2.5195979778    11.0495422251
O       7.3882742666     0.8377791523    12.3509978185
H      -7.3948771517     0.5097950221    11.4290189761
C       6.7535312200     2.0975103986    12.3842372462
H       5.8517058743     2.0542940891    13.0387782515
C       7.6538164087     3.1611518691    13.0364082651
H       3.5582853419    -2.2110619713    12.8576142495
H       8.6543841957     3.0978122698    12.5792976117
O       7.6822273688     2.8588909481    14.4307646889
H       8.4305492410     3.3234174142    14.8383759953
O      -4.1829641388     1.0421925392     9.6077589127
H      -3.4350231091     0.6390249105    10.0931292519
88
Step 3 | NEB Image 3 | Cartesian Angstrom
Ni      1.2285271350     0.7092904720     2.0000000000
Ni     -6.1433728650     0.7092904720     2.0000000000
Ni      2.4570542700     2.8371618880     2.0000000000
Ni     -4.9148457300     2.8371618880     2.0000000000
Ni      0.0000000000    -1.4185809440     2.0000000000
Ni     -7.3719000000    -1.4185809440     2.0000000000
Ni      3.6855814050     0.7092904720     2.0000000000
Ni     -3.6863185950     0.7092904720     2.0000000000
Ni      4.9141085400     2.8371618880     2.0000000000
Ni     -2.4577914600     2.8371618880     2.0000000000
Ni      2.4570542700    -1.4185809440     2.0000000000
Ni     -4.9148457300    -1.4185809440     2.0000000000
Ni      6.1433728650     0.7092904720     2.0000000000
Ni     -1.2285271350     0.7092904720     2.0000000000
Ni      7.3719000000     2.8371618880     2.0000000000
Ni      0.0000000000     2.8371618880     2.0000000000
Ni      4.9148457300    -1.4185809440     2.0000000000
Ni     -2.4570542700    -1.4185809440     2.0000000000
Ni      0.0300688112    -0.0129688651     3.9974070839
Ni     -7.3420326337    -0.0206362239     3.9994456187
Ni      1.2497138760     2.1119501752     3.9985849821
Ni     -6.1085739670     2.1133720433     3.9980421373
Ni     -1.1989133078    -2.1432833035     3.9954472012
Ni     -8.5747293787    -2.1370154202     4.0099223582
Ni      2.4878274383    -0.0069943282     4.0028846949
Ni     -4.8839682684    -0.0198008759     3.9983992318
Ni      3.7131918931     2.1070300661     4.0011652870
Ni     -3.6574767664     2.1169316891     4.0087927838
Ni      1.2605379659    -2.1418558952     3.9936465049
Ni     -6.1191466514    -2.1512272874     4.0073128939
Ni      4.9420315431    -0.0144378715     4.0122444213
Ni     -2.4294418110    -0.0157223737     3.9958950037
Ni      6.1756211023     2.1107277296     3.9977089526
Ni     -1.2091049742     2.1170054541     4.0057642305
Ni      3.7186076756    -2.1336562450     3.9891697557
Ni     -3.6591059124    -2.1489039898     3.9968345574
Ni      1.2092021967     0.7256646142     6.0160818758
Ni     -6.1771034473     0.7160161658     6.0096716137
Ni      2.4254168241     2.8515727962     5.9950023932
Ni     -4.9167910489     2.8541208328     6.0205511219
Ni     -0.0310039460    -1.3988830008     6.0027892821
Ni     -7.3814989162    -1.3895532524     6.0413070985
Ni      3.6804172209     0.7169742633     6.0521898834
Ni     -3.7127871417     0.7363183080     6.0145948845
Ni      4.8855912395     2.8588242531     5.9993507736
Ni     -2.5003526674     2.8350799092     6.0716466786
Ni      2.4307349683    -1.3940410253     6.0020909052
Ni     -4.9365284530    -1.4171937633     6.0078085768
Ni      6.1208849861     0.7147686122     6.0099109533
Ni     -1.2509835616     0.7272075763     6.0027267138
Ni      7.3515666350     2.8671441831     5.9834394026
Ni     -0.0349190427     2.8486395504     6.0174262826
Ni      4.9058860665    -1.3831895469     6.0438605491
Ni     -2.4943200465    -1.4068891934     6.0003331538
Ni      0.0030987962     0.0012450576     8.0098830658
Ni     -7.3381637780    -0.0112290674     8.1161109159
Ni      1.2336364972     2.1240059016     8.0155575003
Ni      8.6079515994     2.1547130943     7.9276582171
Ni     -1.2261050808    -2.1273895433     7.9980068013
Ni     -8.5820318172    -2.1509819566     8.0046765234
Ni      2.4518255256     0.0018296029     8.0296565777
Ni     -4.8963203427    -0.0362210164     7.9708935470
Ni      3.6486259346     2.1663256070     7.9824771491
Ni     -3.6808787277     2.0926346327     8.1650720102
Ni      1.2228978551    -2.1103200902     7.9992369052
Ni     -6.1261907229    -2.1351603072     8.0338500884
Ni      4.8907936299    -0.0079560013     8.1728407255
Ni     -2.4289160240    -0.0236797422     7.9714471750
Ni      6.1547460807     2.1663100922     7.9657753420
Ni     -1.2068788789     2.1129027579     8.0335059131
Ni      3.6877791057    -2.1020473838     7.9950709320
Ni     -3.6767064186    -2.1438086595     8.0211813821
O       6.1915550051     0.9079002401     9.4355572600
H      10.1232384198     2.3730292304    10.6490475393
H       7.3100795663     2.1980239105    10.6129644900
H       1.8505898058    -3.9293022150    10.6728423587
C       6.3192926774     1.6859292825    10.6523584864
O       7.1957237483    -0.1203377369    11.8786236488
H      -6.9919275374    -0.1678647369    11.0407062217
C       6.3141817913     0.8334095990    11.9161634523
H       6.9835983801     3.5206360121    12.5880104567
C       7.8134228393     3.8157928985    13.2449902135
H       3.9680773274    -1.5234748101    13.5533553937
H       8.7592829754     3.7742427338    12.6685033858
O       7.8132655817     2.9042922946    14.3458104490
H       8.2108962688     3.3431714944    15.1138739358
O      -4.1787863604     1.5936850016    10.2597797478
H      -3.3637229711     1.4327899944    10.7718775909
88
Step 4 | NEB Image 4 | Cartesian Angstrom
Ni      1.2285271350     0.7092904720     2.0000000000
Ni     -6.1433728650     0.7092904720     2.0000000000
Ni      2.4570542700     2.8371618880     2.0000000000
Ni     -4.9148457300     2.8371618880     2.0000000000
Ni      0.0000000000    -1.4185809440     2.0000000000
Ni     -7.3719000000    -1.4185809440     2.0000000000
Ni      3.6855814050     0.7092904720     2.0000000000
Ni     -3.6863185950     0.7092904720     2.0000000000
Ni      4.9141085400     2.8371618880     2.0000000000
Ni     -2.4577914600     2.8371618880     2.0000000000
Ni      2.4570542700    -1.4185809440     2.0000000000
Ni     -4.9148457300    -1.4185809440     2.0000000000
Ni      6.1433728650     0.7092904720     2.0000000000
Ni     -1.2285271350     0.7092904720     2.0000000000
Ni      7.3719000000     2.8371618880     2.0000000000
Ni      0.0000000000     2.8371618880     2.0000000000
Ni      4.9148457300    -1.4185809440     2.0000000000
Ni     -2.4570542700    -1.4185809440     2.0000000000
Ni      0.0371003648    -0.0150703498     3.9980536937
Ni     -7.3361345471    -0.0162083451     3.9992845164
Ni      1.2612145863     2.1096501256     3.9980181083
Ni     -6.1025806362     2.1154265159     3.9980630114
Ni     -1.1908623502    -2.1428792596     3.9973657939
Ni     -8.5673198049    -2.1414405264     4.0048644779
Ni      2.4967037179    -0.0107370431     4.0034199212
Ni     -4.8752996519    -0.0168074188     3.9957818639
Ni      3.7231419153     2.1079267183     4.0037214022
Ni     -3.6505081935     2.1144532750     4.0083949894
Ni      1.2664071277    -2.1444193062     3.9974907030
Ni     -6.1082888706    -2.1490704447     3.9990745110
Ni      4.9519097286    -0.0141781550     4.0116421041
Ni     -2.4238111109    -0.0153223329     3.9982047474
Ni      6.1820873646     2.1124630609     4.0035223993
Ni     -1.1981670894     2.1145033038     4.0008732535
Ni      3.7226907335    -2.1381171505     3.9898796187
Ni     -3.6476623482    -2.1482330480     3.9930828051
Ni      1.2156433806     0.7260802292     6.0140650981
Ni     -6.1650311501     0.7170725714     6.0074221008
Ni      2.4382584663     2.8526219024     5.9963608379
Ni     -4.9048558613     2.8496786511     6.0250392968
Ni     -0.0186750839    -1.3992612038     6.0079302577
Ni     -7.3759193937    -1.3860761790     6.0183305361
Ni      3.6859204890     0.7195323792     6.0479967442
Ni     -3.6994912936     0.7423619865     6.0299680477
Ni      4.9000599203     2.8587701015     6.0156329520
Ni     -2.4861854756     2.8415095339     6.0466508755
Ni      2.4387161303    -1.3959499198     6.0049998176
Ni     -4.9209114736    -1.4108606945     5.9973203031
Ni      6.1274982407     0.7271751060     6.0186606001
Ni     -1.2437326412     0.7266215665     6.0017244582
Ni      7.3632718124     2.8592164823     5.9985208922
Ni     -0.0207821388     2.8541115618     6.0080171357
Ni      4.9093438578    -1.3870263818     6.0283582910
Ni     -2.4809645020    -1.4030397259     6.0024664939
Ni      0.0044955445     0.0103263287     8.0131702905
Ni     -7.3331990028    -0.0138418951     8.1069870008
Ni      1.2399226950     2.1304237425     8.0105719525
Ni      8.6320649674     2.1503551192     7.9443338266
Ni     -1.2185995837    -2.1236109147     8.0019088967
Ni     -8.5827173080    -2.1437513672     7.9796933167
Ni      2.4540505993     0.0093961955     8.0270490300
Ni     -4.8892103725    -0.0218740653     7.9766939155
Ni      3.6560312154     2.1661136757     7.9887833253
Ni     -3.6645923816     2.1082505937     8.1771341309
Ni      1.2257482756    -2.0994001280     8.0139922175
Ni     -6.1150914437    -2.1245854544     7.9968453206
Ni      4.8975785208    -0.0175217898     8.1388408900
Ni     -2.4235227841    -0.0203142312     7.9873110986
Ni      6.1621314640     2.2020020762     8.0272812001
Ni     -1.1939618863     2.1228366192     8.0068196103
Ni      3.6927446081    -2.1007020832     7.9967414859
Ni     -3.6715773448    -2.1334656782     8.0173089383
O       6.1806759505     0.8516358943     9.3833190376
H      10.8111978863     2.9242589540    10.5948319258
H       7.0147605189     2.0326263017    10.8868587859
H       1.7392849077    -5.0581121757    11.2561854070
C       6.3937005966     1.1192297020    10.7793247275
O       7.7626700692    -0.8400091558    10.9568519394
H      -6.9697627461    -0.8369797909     9.8526859184
C       7.1307400706     0.0819863505    11.5601459063
H       8.4382596251     4.2546033057    11.8291467715
C       8.5396943426     4.3602322785    12.9236783838
H       4.0212100659    -1.4043699416    13.2885142066
H       9.4782936551     4.8920237561    13.1332680842
O       8.4861489716     3.0652804223    13.5382766317
H       9.3117106603     2.9184001071    14.0234896858
O      -3.7827122105     2.0090582496    10.2858360079
H      -2.8692729996     1.7804309253    10.5489148498
88
Step 5 | NEB Image 5 | Cartesian Angstrom
Ni      1.2285271350     0.7092904720     2.0000000000
Ni     -6.1433728650     0.7092904720     2.0000000000
Ni      2.4570542700     2.8371618880     2.0000000000
Ni     -4.9148457300     2.8371618880     2.0000000000
Ni      0.0000000000    -1.4185809440     2.0000000000
Ni     -7.3719000000    -1.4185809440     2.0000000000
Ni      3.6855814050     0.7092904720     2.0000000000
Ni     -3.6863185950     0.7092904720     2.0000000000
Ni      4.9141085400     2.8371618880     2.0000000000
Ni     -2.4577914600     2.8371618880     2.0000000000
Ni      2.4570542700    -1.4185809440     2.0000000000
Ni     -4.9148457300    -1.4185809440     2.0000000000
Ni      6.1433728650     0.7092904720     2.0000000000
Ni     -1.2285271350     0.7092904720     2.0000000000
Ni      7.3719000000     2.8371618880     2.0000000000
Ni      0.0000000000     2.8371618880     2.0000000000
Ni      4.9148457300    -1.4185809440     2.0000000000
Ni     -2.4570542700    -1.4185809440     2.0000000000
Ni      0.0464326620    -0.0306468460     3.9976675890
Ni     -7.3257303870    -0.0255862300     3.9933782980
Ni      1.2739848450     2.0960038070     3.9979157030
Ni     -6.1026021170     2.1049500680     4.0019149180
Ni     -1.1827110610    -2.1546561820     3.9989053170
Ni     -8.5597082650    -2.1592869340     3.9982394010
Ni      2.5024778430    -0.0256743600     4.0031952220
Ni     -4.8641413240    -0.0227350050     3.9956475690
Ni      3.7346756480     2.0985190290     4.0083618800
Ni     -3.6458198020     2.0991473590     4.0056686860
Ni      1.2703768650    -2.1597674920     4.0015811390
Ni     -6.0933336510    -2.1603781540     3.9902680500
Ni      4.9590538200    -0.0289845540     4.0074783820
Ni     -2.4167678920    -0.0248088220     4.0022401470
Ni      6.1885777810     2.1026461420     4.0098077600
Ni     -1.1844811720     2.0985803670     3.9964394390
Ni      3.7245308300    -2.1560713310     3.9888953010
Ni     -3.6351397940    -2.1574140910     3.9933365850
Ni      1.2278611130     0.7073057200     6.0134419810
Ni     -6.1428898530     0.6957346210     6.0102358510
Ni      2.4563605190     2.8356121920     5.9987058000
Ni     -4.8924583120     2.8187736320     6.0264580820
Ni      0.0002252210    -1.4241376010     6.0155868270
Ni     -7.3667991100    -1.4101212980     5.9895528060
Ni      3.6921281460     0.7008202940     6.0360645010
Ni     -3.6779272240     0.7256007260     6.0512861550
Ni      4.9267336850     2.8309168990     6.0432780270
Ni     -2.4664659500     2.8157315660     6.0151173370
Ni      2.4509011280    -1.4197685090     6.0062316800
Ni     -4.8985683740    -1.4191884620     5.9881596610
Ni      6.1372839650     0.7115480370     6.0073921100
Ni     -1.2256557510     0.7019370040     6.0032560690
Ni      7.3730564330     2.8242126570     6.0269074010
Ni     -0.0034566730     2.8405670140     6.0010880700
Ni      4.9162369820    -1.4189308570     6.0083232610
Ni     -2.4596272260    -1.4182314770     6.0084483810
Ni      0.0277268390    -0.0168450280     8.0180888710
Ni     -7.3091221710    -0.0327920680     8.0371701400
Ni      1.2611452740     2.1078740620     8.0062525300
Ni      8.6667549770     2.1138793650     7.9801313330
Ni     -1.1942402360    -2.1496555940     8.0109921590
Ni     -8.5668484660    -2.1735761150     7.9430911750
Ni      2.4712577410    -0.0190631580     8.0243063390
Ni     -4.8670711400    -0.0431110720     7.9967287920
Ni      3.6750137580     2.1321536040     7.9940007810
Ni     -3.6274773380     2.0999917070     8.2089215290
Ni      1.2517815200    -2.1329879940     8.0267060850
Ni     -6.0785108950    -2.1534189890     7.9361595560
Ni      4.9123316280    -0.0512787390     8.0829089500
Ni     -2.4007725170    -0.0429334740     8.0081832520
Ni      6.1908597070     2.1505617180     8.1094472440
Ni     -1.1654360560     2.0989982700     7.9806126390
Ni      3.7077660390    -2.1419918620     7.9975968800
Ni     -3.6463297530    -2.1524111230     8.0158878220
O       6.1707187590     0.6663307040     9.3727337630
H      11.2555922500     3.1706166680    10.5266232770
H       7.1149227860     1.0824741990    11.1550798120
H       1.6297081310    -5.3793991980    11.2177269450
C       6.2238707100     0.5353136510    10.8108846880
O       7.5718415080    -1.5277099790    10.9241884940
H      -6.8828388710    -1.2337967880    10.0124245870
C       6.2850334910    -0.9302036460    11.2182633770
H       9.1791669060     4.9099545600    10.6626973770
C       9.7467965870     5.2786349730    12.7161077750
H       5.0959169980    -0.6608682970    12.9933131080
H      10.5457770910     5.8077082870    13.2666670860
O       9.6783811350     3.9068622240    13.1006105230
H      10.5447055700     3.5019751520    12.9206205020
O      -3.5153567700     2.2005093110    10.2599052050
H      -2.6227032800     1.8412518110    10.4321503050
