88
Step 1 | NEB Image 1 | Cartesian Angstrom
Ni      1.2285271350     0.7092904720     2.0000000000
Ni     -6.1433728650     0.7092904720     2.0000000000
Ni      2.4570542700     2.8371618880     2.0000000000
Ni     -4.9148457300     2.8371618880     2.0000000000
Ni      0.0000000000    -1.4185809440     2.0000000000
Ni     -7.3719000000    -1.4185809440     2.0000000000
Ni      3.6855814050     0.7092904720     2.0000000000
Ni     -3.6863185950     0.7092904720     2.0000000000
Ni      4.9141085400     2.8371618880     2.0000000000
Ni     -2.4577914600     2.8371618880     2.0000000000
Ni      2.4570542700    -1.4185809440     2.0000000000
Ni     -4.9148457300    -1.4185809440     2.0000000000
Ni      6.1433728650     0.7092904720     2.0000000000
Ni     -1.2285271350     0.7092904720     2.0000000000
Ni      7.3719000000     2.8371618880     2.0000000000
Ni      0.0000000000     2.8371618880     2.0000000000
Ni      4.9148457300    -1.4185809440     2.0000000000
Ni     -2.4570542700    -1.4185809440     2.0000000000
Ni      0.0345187234    -0.0219895959     3.9906686506
Ni     -7.3332872529    -0.0205271350     3.9970929970
Ni      1.2574298371     2.1090479016     3.9981086770
Ni     -6.1061214153     2.1042281316     4.0017605185
Ni     -1.1958375155    -2.1495425789     3.9888614873
Ni     -8.5615731291    -2.1597422030     3.9935633301
Ni      2.4909200515    -0.0209290578     3.9889124626
Ni     -4.8775455868    -0.0288695998     4.0155932973
Ni      3.7235299523     2.1102350339     3.9932622384
Ni     -3.6483031855     2.1055811522     4.0174271749
Ni      1.2597529797    -2.1544756242     3.9969618463
Ni     -6.1074652262    -2.1506208434     4.0019689283
Ni      4.9550771908    -0.0234645643     3.9935565644
Ni     -2.4269867653    -0.0199772708     3.9982338911
Ni      6.1741097051     2.1083418571     4.0046158614
Ni     -1.1996729370     2.1123145435     4.0000024585
Ni      3.7197951829    -2.1539414756     3.9921760547
Ni     -3.6589301935    -2.1514998115     3.9994955107
Ni      1.2136841869     0.7163863979     5.9963073096
Ni     -6.1473437226     0.7096773911     6.0218176054
Ni      2.4453295017     2.8415084524     5.9971730433
Ni     -4.9231971923     2.8360653972     6.0327934449
Ni     -0.0226348385    -1.4110330430     6.0020236029
Ni     -7.3908667378    -1.4145678834     5.9981301391
Ni      3.6669417345     0.7157583701     5.9869138182
Ni     -3.7108784987     0.7190435175     6.0328517480
Ni      4.9057976617     2.8388244163     6.0411982092
Ni     -2.4814248435     2.8298458387     6.0521186228
Ni      2.4355069788    -1.4085502466     5.9888639843
Ni     -4.9252928465    -1.4026264080     6.0548563839
Ni      6.1341025786     0.7315238745     6.0218817427
Ni     -1.2402669783     0.7221835538     5.9926808095
Ni      7.3408175190     2.8291688103     6.0248565089
Ni     -0.0225097209     2.8466795557     6.0142376281
Ni      4.9088271165    -1.4251457534     5.9900387779
Ni     -2.4790699264    -1.4211153466     5.9913638200
Ni      0.0337137405    -0.0099863123     8.0038502320
Ni     -7.3606520147    -0.0334139511     7.9835827732
Ni      1.2525382386     2.1076756093     8.0014158677
Ni      8.5596645315     2.1514300915     7.9633346422
Ni     -1.1983605499    -2.1613845897     8.0018652759
Ni     -8.5927669864    -2.1264268734     8.0165035337
Ni      2.4708324722    -0.0109047600     8.0065027389
Ni     -4.8995212632    -0.0584838282     8.1493062015
Ni      3.6789469906     2.1047412898     7.9888648741
Ni     -3.6333178494     2.1270714900     8.1546283531
Ni      1.2394335961    -2.1164979174     7.9892760222
Ni     -6.1305722611    -2.1461024656     7.9989212299
Ni      4.9150163145    -0.0283439881     7.9490640309
Ni     -2.3653823178    -0.0601929248     7.9425724452
Ni      6.1349712758     2.1197335004     8.1598232492
Ni     -1.1861990586     2.1067384809     8.0263285947
Ni      3.6953023012    -2.1157302873     7.9694462946
Ni     -3.6468332403    -2.1628724713     8.0264725749
O       5.9486020032     1.9536774433    10.1568983318
H       6.2023593986     1.0444615420    10.4395396161
H       7.6485803319     2.9982816350    10.7947394844
H       2.3841835216    -2.5662265370    10.9995346326
C       6.5922936452     2.8570131008    11.0871865803
O       6.8828593053     0.8516013498    12.3925733789
H      -6.8879959571     0.8254517200    12.3248078773
C       6.4620997723     2.2299052156    12.4710261049
H       5.3979785171     2.1706601767    12.7461907790
C       7.1981974178     3.0342299686    13.5247288963
H       3.2389656514    -2.2859498111    13.4051121917
H       8.2901195875     2.9478942375    13.3576433856
O       6.8260697992     2.5426661176    14.8120038538
H       7.2522042786     3.0948827032    15.4870039972
O      -4.3927237137     1.0982075682     9.5865509607
H      -3.6717371060     0.6667680985    10.0888232085
88
Step 2 | NEB Image 2 | Cartesian Angstrom
Ni      1.2285271350     0.7092904720     2.0000000000
Ni     -6.1433728650     0.7092904720     2.0000000000
Ni      2.4570542700     2.8371618880     2.0000000000
Ni     -4.9148457300     2.8371618880     2.0000000000
Ni      0.0000000000    -1.4185809440     2.0000000000
Ni     -7.3719000000    -1.4185809440     2.0000000000
Ni      3.6855814050     0.7092904720     2.0000000000
Ni     -3.6863185950     0.7092904720     2.0000000000
Ni      4.9141085400     2.8371618880     2.0000000000
Ni     -2.4577914600     2.8371618880     2.0000000000
Ni      2.4570542700    -1.4185809440     2.0000000000
Ni     -4.9148457300    -1.4185809440     2.0000000000
Ni      6.1433728650     0.7092904720     2.0000000000
Ni     -1.2285271350     0.7092904720     2.0000000000
Ni      7.3719000000     2.8371618880     2.0000000000
Ni      0.0000000000     2.8371618880     2.0000000000
Ni      4.9148457300    -1.4185809440     2.0000000000
Ni     -2.4570542700    -1.4185809440     2.0000000000
Ni      0.0411995739    -0.0255883387     3.9906012731
Ni     -7.3275481227    -0.0192395183     4.0036281169
Ni      1.2630298621     2.1078285715     3.9976885020
Ni     -6.1026213843     2.1035535528     4.0101241723
Ni     -1.1908786517    -2.1519248993     3.9879745321
Ni     -8.5578203133    -2.1599777576     3.9981087180
Ni      2.4977739777    -0.0243272672     3.9923302307
Ni     -4.8778475323    -0.0259359534     4.0187219673
Ni      3.7307014367     2.1071053606     3.9978909856
Ni     -3.6451565584     2.1074475633     4.0182445313
Ni      1.2661596606    -2.1585822685     4.0002237146
Ni     -6.1049788450    -2.1490511517     4.0025916028
Ni      4.9625606470    -0.0257974950     3.9962203882
Ni     -2.4234776684    -0.0202901345     3.9962377339
Ni      6.1805996073     2.1060152517     4.0106231941
Ni     -1.1962871687     2.1115015619     3.9969531744
Ni      3.7258392577    -2.1590024308     3.9976625957
Ni     -3.6576279834    -2.1489366940     3.9984777178
Ni      1.2225717584     0.7135740901     5.9962672126
Ni     -6.1315457404     0.7152345149     6.0477695524
Ni      2.4542830424     2.8383502739     5.9959998348
Ni     -4.9169965227     2.8294455564     6.0421715365
Ni     -0.0126569865    -1.4165376736     6.0029505036
Ni     -7.3819162156    -1.4163443579     6.0048540896
Ni      3.6752596550     0.7120047163     5.9925078773
Ni     -3.6996547767     0.7167946497     6.0281669558
Ni      4.9210876704     2.8310820581     6.0560849515
Ni     -2.4703232167     2.8329590870     6.0491078369
Ni      2.4421898609    -1.4148593286     5.9951522474
Ni     -4.9165257758    -1.3984725791     6.0570192303
Ni      6.1446984285     0.7226889357     6.0280306494
Ni     -1.2297932696     0.7205058874     5.9865754986
Ni      7.3532669468     2.8197911014     6.0421248336
Ni     -0.0126809303     2.8459122171     6.0064564992
Ni      4.9127651852    -1.4262846396     5.9948193500
Ni     -2.4686798548    -1.4253411278     5.9860148065
Ni      0.0480649174    -0.0204750170     8.0010536484
Ni     -7.3199942172    -0.0499485491     7.9865449268
Ni      1.2633255469     2.1037248923     7.9985561825
Ni      8.5807533321     2.1623152662     8.0181381599
Ni     -1.1856970824    -2.1665669714     8.0021019235
Ni     -8.5728603030    -2.1275177150     8.0080189070
Ni      2.4754098264    -0.0185844878     8.0094040773
Ni     -4.8461825001    -0.0579583222     8.1791367326
Ni      3.6834332454     2.1020315310     7.9953511739
Ni     -3.5895305190     2.1175544995     8.1338016136
Ni      1.2491888521    -2.1326285490     8.0065206351
Ni     -6.1023522688    -2.1462265979     8.0070428214
Ni      4.9132383057    -0.0353715134     7.9606536905
Ni     -2.3452437928    -0.0676403758     7.9315490459
Ni      6.1378909064     2.0859836834     8.1788217360
Ni     -1.1620549274     2.1021608912     8.0176975914
Ni      3.6970365835    -2.1186017951     7.9782846755
Ni     -3.6303494396    -2.1695484609     8.0214224701
O       6.2819939281     1.7033094632    10.0839011461
H       9.1515737589     2.2727197799    10.3394329454
H       8.5529090318     2.7344755045    10.1790992593
H       2.1596156774    -2.8708033082    10.8966934741
C       6.2651555891     2.5038412579    11.0361615866
O       7.3254758855     0.8013643343    12.4014994981
H      -7.2970547381     0.5013679475    11.4773369966
C       6.7638448913     2.0951530177    12.3801909075
H       5.8565468321     2.1194390132    13.0246441188
C       7.6566809389     3.1656035416    13.0543168232
H       3.5494058523    -2.2122921481    12.8646147492
H       8.6798662286     3.1346619636    12.6465454448
O       7.6238456929     2.8639488454    14.4496945828
H       8.3934202557     3.2643699134    14.8834821390
O      -4.1822481434     1.0491918308     9.6204539482
H      -3.4276763523     0.6704118183    10.1148973301
88
Step 3 | NEB Image 3 | Cartesian Angstrom
Ni      1.2285271350     0.7092904720     2.0000000000
Ni     -6.1433728650     0.7092904720     2.0000000000
Ni      2.4570542700     2.8371618880     2.0000000000
Ni     -4.9148457300     2.8371618880     2.0000000000
Ni      0.0000000000    -1.4185809440     2.0000000000
Ni     -7.3719000000    -1.4185809440     2.0000000000
Ni      3.6855814050     0.7092904720     2.0000000000
Ni     -3.6863185950     0.7092904720     2.0000000000
Ni      4.9141085400     2.8371618880     2.0000000000
Ni     -2.4577914600     2.8371618880     2.0000000000
Ni      2.4570542700    -1.4185809440     2.0000000000
Ni     -4.9148457300    -1.4185809440     2.0000000000
Ni      6.1433728650     0.7092904720     2.0000000000
Ni     -1.2285271350     0.7092904720     2.0000000000
Ni      7.3719000000     2.8371618880     2.0000000000
Ni      0.0000000000     2.8371618880     2.0000000000
Ni      4.9148457300    -1.4185809440     2.0000000000
Ni     -2.4570542700    -1.4185809440     2.0000000000
Ni      0.0296689913    -0.0134597139     3.9970905023
Ni     -7.3420352812    -0.0207012470     4.0049205020
Ni      1.2510691426     2.1108820737     3.9980444009
Ni     -6.1066909903     2.1112905463     4.0007245153
Ni     -1.1975943802    -2.1443595469     3.9948404100
Ni     -8.5707912065    -2.1364438148     4.0121144341
Ni      2.4888127636    -0.0099515107     4.0025045444
Ni     -4.8850348332    -0.0203718500     3.9988931851
Ni      3.7149217614     2.1070164721     4.0005401541
Ni     -3.6555931465     2.1167936860     4.0079765909
Ni      1.2619948699    -2.1426295674     3.9943461377
Ni     -6.1200367275    -2.1486751487     4.0111837863
Ni      4.9453470562    -0.0145713100     4.0123119434
Ni     -2.4292696782    -0.0163965382     3.9947443044
Ni      6.1764840506     2.1091042317     3.9995772405
Ni     -1.2092817312     2.1178876144     4.0048351401
Ni      3.7211743697    -2.1363998445     3.9902904889
Ni     -3.6597668320    -2.1488637167     3.9960198456
Ni      1.2072237251     0.7251967296     6.0139510680
Ni     -6.1782365747     0.7142231090     6.0170024538
Ni      2.4250935738     2.8513703621     5.9949093655
Ni     -4.9186633853     2.8566019419     6.0193023083
Ni     -0.0314212059    -1.3981990120     6.0036017519
Ni     -7.3825246166    -1.3843469818     6.0567897048
Ni      3.6781082188     0.7181710546     6.0454312518
Ni     -3.7166776766     0.7352864179     6.0103940215
Ni      4.8857905789     2.8594202422     6.0035408132
Ni     -2.5012004539     2.8417911374     6.0704226278
Ni      2.4310429421    -1.3957496626     6.0054065547
Ni     -4.9363827326    -1.4156112676     6.0123720581
Ni      6.1230608662     0.7161694096     6.0197764282
Ni     -1.2537499340     0.7302689571     6.0008841430
Ni      7.3481469323     2.8657906186     5.9855040425
Ni     -0.0356553064     2.8493485651     6.0150019311
Ni      4.9032562779    -1.3840559457     6.0421962778
Ni     -2.4939497800    -1.4081314632     5.9970776386
Ni     -0.0019575606     0.0054505358     8.0091653493
Ni     -7.3402714030    -0.0079381716     8.1495374805
Ni      1.2295747036     2.1259787040     8.0126968328
Ni      8.6024917856     2.1601473114     7.9250818812
Ni     -1.2304049248    -2.1270831607     7.9975958458
Ni     -8.5893993530    -2.1479579000     8.0109987182
Ni      2.4497827975     0.0051136426     8.0259000255
Ni     -4.9002747793    -0.0352691928     7.9781943067
Ni      3.6479577374     2.1655974025     7.9823158449
Ni     -3.6782528379     2.0923265234     8.1376214652
Ni      1.2175536276    -2.1056071360     8.0027193608
Ni     -6.1310389802    -2.1317583727     8.0472194857
Ni      4.8956169582    -0.0011479005     8.1430905460
Ni     -2.4311671556    -0.0246078023     7.9631713978
Ni      6.1457736837     2.1715114288     7.9779968608
Ni     -1.2113050368     2.1180439141     8.0325256667
Ni      3.6856526065    -2.0996195393     8.0017264263
Ni     -3.6795239562    -2.1430547519     8.0219565022
O       6.2257760667     0.9498956972     9.4666185257
H      10.0639673040     2.2613872958    10.5966002511
H       7.3959565103     2.1808848316    10.6753638406
H       1.9483085035    -3.8628762741    10.7021397358
C       6.3812362987     1.7171149390    10.6850801478
O       7.1937836772    -0.1004751839    11.9316797932
H      -6.9079286193    -0.0866423778    11.1569635664
C       6.2721166718     0.8150488385    11.9171678651
H       7.1763840951     3.5635375605    12.4413446181
C       7.9123310823     3.8735758863    13.1933262348
H       3.9579521884    -1.4973389751    13.5295036977
H       8.9100439576     3.9235579160    12.7184123214
O       7.8588450797     2.9030055070    14.2420269941
H       8.2856550603     3.2760873609    15.0295541030
O      -4.2049554345     1.4865327113    10.2381723904
H      -3.3851474494     1.3776010627    10.7567417021
88
Step 4 | NEB Image 4 | Cartesian Angstrom
Ni      1.2285271350     0.7092904720     2.0000000000
Ni     -6.1433728650     0.7092904720     2.0000000000
Ni      2.4570542700     2.8371618880     2.0000000000
Ni     -4.9148457300     2.8371618880     2.0000000000
Ni      0.0000000000    -1.4185809440     2.0000000000
Ni     -7.3719000000    -1.4185809440     2.0000000000
Ni      3.6855814050     0.7092904720     2.0000000000
Ni     -3.6863185950     0.7092904720     2.0000000000
Ni      4.9141085400     2.8371618880     2.0000000000
Ni     -2.4577914600     2.8371618880     2.0000000000
Ni      2.4570542700    -1.4185809440     2.0000000000
Ni     -4.9148457300    -1.4185809440     2.0000000000
Ni      6.1433728650     0.7092904720     2.0000000000
Ni     -1.2285271350     0.7092904720     2.0000000000
Ni      7.3719000000     2.8371618880     2.0000000000
Ni      0.0000000000     2.8371618880     2.0000000000
Ni      4.9148457300    -1.4185809440     2.0000000000
Ni     -2.4570542700    -1.4185809440     2.0000000000
Ni      0.0400537953    -0.0171542262     3.9975364000
Ni     -7.3333408124    -0.0196455575     4.0003102196
Ni      1.2637743155     2.1073261034     3.9979295262
Ni     -6.0988190091     2.1123934354     3.9982960839
Ni     -1.1876652584    -2.1457676900     3.9968965344
Ni     -8.5642281055    -2.1430432180     4.0067963874
Ni      2.4996701321    -0.0129727589     4.0036856548
Ni     -4.8726919346    -0.0198881366     3.9957152478
Ni      3.7259731281     2.1048139667     4.0032213378
Ni     -3.6473582884     2.1125692946     4.0084212896
Ni      1.2699632414    -2.1465048863     3.9968633000
Ni     -6.1062327430    -2.1513486426     4.0003570797
Ni      4.9547301217    -0.0169195123     4.0126433518
Ni     -2.4205845056    -0.0178111838     3.9972841240
Ni      6.1854852267     2.1095129049     4.0028308180
Ni     -1.1955773396     2.1128092658     4.0008996900
Ni      3.7266378924    -2.1399001394     3.9900048441
Ni     -3.6452488660    -2.1507094062     3.9933706844
Ni      1.2208126358     0.7217976660     6.0141038428
Ni     -6.1611474431     0.7124357485     6.0077640640
Ni      2.4426726240     2.8482201691     5.9957638001
Ni     -4.8998483221     2.8469580888     6.0252271413
Ni     -0.0145552190    -1.4025945045     6.0065812898
Ni     -7.3701625579    -1.3901612638     6.0243692790
Ni      3.6915360746     0.7150830794     6.0492989603
Ni     -3.6959716870     0.7373133094     6.0267335129
Ni      4.9035754677     2.8557320044     6.0122903803
Ni     -2.4815521500     2.8373080728     6.0494226900
Ni      2.4440922166    -1.3997755503     6.0052618637
Ni     -4.9168262842    -1.4163870266     5.9987869622
Ni      6.1325464461     0.7223859055     6.0186921340
Ni     -1.2391912240     0.7232692062     6.0006809982
Ni      7.3685977703     2.8567208109     5.9954307832
Ni     -0.0161473562     2.8494589673     6.0087991936
Ni      4.9158464439    -1.3904700859     6.0326674910
Ni     -2.4767925992    -1.4077895370     6.0011439749
Ni      0.0103918587     0.0054045101     8.0124324931
Ni     -7.3325197051    -0.0170402777     8.1126387479
Ni      1.2464024912     2.1247128612     8.0108908490
Ni      8.6358271367     2.1456038293     7.9403410390
Ni     -1.2126402148    -2.1288995913     8.0006786497
Ni     -8.5750885210    -2.1492342855     7.9879836465
Ni      2.4602295739     0.0041677321     8.0281426386
Ni     -4.8855313148    -0.0290954971     7.9747388558
Ni      3.6618468405     2.1622378444     7.9878082315
Ni     -3.6601513227     2.1003290733     8.1704311561
Ni      1.2306615653    -2.1029830127     8.0125632300
Ni     -6.1096840727    -2.1301064961     8.0040179756
Ni      4.9023623510    -0.0219610132     8.1449263043
Ni     -2.4174392960    -0.0266025101     7.9828944038
Ni      6.1660128095     2.1996475065     8.0167464791
Ni     -1.1882809324     2.1171076573     8.0090078140
Ni      3.6989681594    -2.1049474222     7.9978525713
Ni     -3.6654836003    -2.1395713645     8.0186035576
O       6.1814274865     0.8671543057     9.3848012474
H      10.7570728139     2.8623158158    10.5931950623
H       7.0390842227     2.0905676248    10.8397417850
H       1.7569545646    -4.9607726946    11.2446400934
C       6.4051185143     1.1822169727    10.7700245873
O       7.7177614015    -0.8045624644    10.9955766499
H      -7.0484580109    -0.8372031750     9.9059619470
C       7.1289602603     0.1602642178    11.5809228407
H       8.5222388677     4.2793296983    11.8261777504
C       8.6223848860     4.3942677250    12.9213707119
H       4.1038874395    -1.3678097341    13.2789233370
H       9.5594949181     4.9292094318    13.1292401855
O       8.5597973666     3.1137195027    13.5633514837
H       9.4265665093     2.9165686983    13.9483158010
O      -3.8014671470     1.9572455630    10.2743098101
H      -2.8843917203     1.7529948151    10.5446632325
88
Step 5 | NEB Image 5 | Cartesian Angstrom
Ni      1.2285271350     0.7092904720     2.0000000000
Ni     -6.1433728650     0.7092904720     2.0000000000
Ni      2.4570542700     2.8371618880     2.0000000000
Ni     -4.9148457300     2.8371618880     2.0000000000
Ni      0.0000000000    -1.4185809440     2.0000000000
Ni     -7.3719000000    -1.4185809440     2.0000000000
Ni      3.6855814050     0.7092904720     2.0000000000
Ni     -3.6863185950     0.7092904720     2.0000000000
Ni      4.9141085400     2.8371618880     2.0000000000
Ni     -2.4577914600     2.8371618880     2.0000000000
Ni      2.4570542700    -1.4185809440     2.0000000000
Ni     -4.9148457300    -1.4185809440     2.0000000000
Ni      6.1433728650     0.7092904720     2.0000000000
Ni     -1.2285271350     0.7092904720     2.0000000000
Ni      7.3719000000     2.8371618880     2.0000000000
Ni      0.0000000000     2.8371618880     2.0000000000
Ni      4.9148457300    -1.4185809440     2.0000000000
Ni     -2.4570542700    -1.4185809440     2.0000000000
Ni      0.0464326620    -0.0306468460     3.9976675890
Ni     -7.3257303870    -0.0255862300     3.9933782980
Ni      1.2739848450     2.0960038070     3.9979157030
Ni     -6.1026021170     2.1049500680     4.0019149180
Ni     -1.1827110610    -2.1546561820     3.9989053170
Ni     -8.5597082650    -2.1592869340     3.9982394010
Ni      2.5024778430    -0.0256743600     4.0031952220
Ni     -4.8641413240    -0.0227350050     3.9956475690
Ni      3.7346756480     2.0985190290     4.0083618800
Ni     -3.6458198020     2.0991473590     4.0056686860
Ni      1.2703768650    -2.1597674920     4.0015811390
Ni     -6.0933336510    -2.1603781540     3.9902680500
Ni      4.9590538200    -0.0289845540     4.0074783820
Ni     -2.4167678920    -0.0248088220     4.0022401470
Ni      6.1885777810     2.1026461420     4.0098077600
Ni     -1.1844811720     2.0985803670     3.9964394390
Ni      3.7245308300    -2.1560713310     3.9888953010
Ni     -3.6351397940    -2.1574140910     3.9933365850
Ni      1.2278611130     0.7073057200     6.0134419810
Ni     -6.1428898530     0.6957346210     6.0102358510
Ni      2.4563605190     2.8356121920     5.9987058000
Ni     -4.8924583120     2.8187736320     6.0264580820
Ni      0.0002252210    -1.4241376010     6.0155868270
Ni     -7.3667991100    -1.4101212980     5.9895528060
Ni      3.6921281460     0.7008202940     6.0360645010
Ni     -3.6779272240     0.7256007260     6.0512861550
Ni      4.9267336850     2.8309168990     6.0432780270
Ni     -2.4664659500     2.8157315660     6.0151173370
Ni      2.4509011280    -1.4197685090     6.0062316800
Ni     -4.8985683740    -1.4191884620     5.9881596610
Ni      6.1372839650     0.7115480370     6.0073921100
Ni     -1.2256557510     0.7019370040     6.0032560690
Ni      7.3730564330     2.8242126570     6.0269074010
Ni     -0.0034566730     2.8405670140     6.0010880700
Ni      4.9162369820    -1.4189308570     6.0083232610
Ni     -2.4596272260    -1.4182314770     6.0084483810
Ni      0.0277268390    -0.0168450280     8.0180888710
Ni     -7.3091221710    -0.0327920680     8.0371701400
Ni      1.2611452740     2.1078740620     8.0062525300
Ni      8.6667549770     2.1138793650     7.9801313330
Ni     -1.1942402360    -2.1496555940     8.0109921590
Ni     -8.5668484660    -2.1735761150     7.9430911750
Ni      2.4712577410    -0.0190631580     8.0243063390
Ni     -4.8670711400    -0.0431110720     7.9967287920
Ni      3.6750137580     2.1321536040     7.9940007810
Ni     -3.6274773380     2.0999917070     8.2089215290
Ni      1.2517815200    -2.1329879940     8.0267060850
Ni     -6.0785108950    -2.1534189890     7.9361595560
Ni      4.9123316280    -0.0512787390     8.0829089500
Ni     -2.4007725170    -0.0429334740     8.0081832520
Ni      6.1908597070     2.1505617180     8.1094472440
Ni     -1.1654360560     2.0989982700     7.9806126390
Ni      3.7077660390    -2.1419918620     7.9975968800
Ni     -3.6463297530    -2.1524111230     8.0158878220
O       6.1707187590     0.6663307040     9.3727337630
H      11.2555922500     3.1706166680    10.5266232770
H       7.1149227860     1.0824741990    11.1550798120
H       1.6297081310    -5.3793991980    11.2177269450
C       6.2238707100     0.5353136510    10.8108846880
O       7.5718415080    -1.5277099790    10.9241884940
H      -6.8828388710    -1.2337967880    10.0124245870
C       6.2850334910    -0.9302036460    11.2182633770
H       9.1791669060     4.9099545600    10.6626973770
C       9.7467965870     5.2786349730    12.7161077750
H       5.0959169980    -0.6608682970    12.9933131080
H      10.5457770910     5.8077082870    13.2666670860
O       9.6783811350     3.9068622240    13.1006105230
H      10.5447055700     3.5019751520    12.9206205020
O      -3.5153567700     2.2005093110    10.2599052050
H      -2.6227032800     1.8412518110    10.4321503050
