88
Step 1 | NEB Image 1 | Cartesian Angstrom
Ni      1.2285271350     0.7092904720     2.0000000000
Ni     -6.1433728650     0.7092904720     2.0000000000
Ni      2.4570542700     2.8371618880     2.0000000000
Ni     -4.9148457300     2.8371618880     2.0000000000
Ni      0.0000000000    -1.4185809440     2.0000000000
Ni     -7.3719000000    -1.4185809440     2.0000000000
Ni      3.6855814050     0.7092904720     2.0000000000
Ni     -3.6863185950     0.7092904720     2.0000000000
Ni      4.9141085400     2.8371618880     2.0000000000
Ni     -2.4577914600     2.8371618880     2.0000000000
Ni      2.4570542700    -1.4185809440     2.0000000000
Ni     -4.9148457300    -1.4185809440     2.0000000000
Ni      6.1433728650     0.7092904720     2.0000000000
Ni     -1.2285271350     0.7092904720     2.0000000000
Ni      7.3719000000     2.8371618880     2.0000000000
Ni      0.0000000000     2.8371618880     2.0000000000
Ni      4.9148457300    -1.4185809440     2.0000000000
Ni     -2.4570542700    -1.4185809440     2.0000000000
Ni      0.0345187234    -0.0219895959     3.9906686506
Ni     -7.3332872529    -0.0205271350     3.9970929970
Ni      1.2574298371     2.1090479016     3.9981086770
Ni     -6.1061214153     2.1042281316     4.0017605185
Ni     -1.1958375155    -2.1495425789     3.9888614873
Ni     -8.5615731291    -2.1597422030     3.9935633301
Ni      2.4909200515    -0.0209290578     3.9889124626
Ni     -4.8775455868    -0.0288695998     4.0155932973
Ni      3.7235299523     2.1102350339     3.9932622384
Ni     -3.6483031855     2.1055811522     4.0174271749
Ni      1.2597529797    -2.1544756242     3.9969618463
Ni     -6.1074652262    -2.1506208434     4.0019689283
Ni      4.9550771908    -0.0234645643     3.9935565644
Ni     -2.4269867653    -0.0199772708     3.9982338911
Ni      6.1741097051     2.1083418571     4.0046158614
Ni     -1.1996729370     2.1123145435     4.0000024585
Ni      3.7197951829    -2.1539414756     3.9921760547
Ni     -3.6589301935    -2.1514998115     3.9994955107
Ni      1.2136841869     0.7163863979     5.9963073096
Ni     -6.1473437226     0.7096773911     6.0218176054
Ni      2.4453295017     2.8415084524     5.9971730433
Ni     -4.9231971923     2.8360653972     6.0327934449
Ni     -0.0226348385    -1.4110330430     6.0020236029
Ni     -7.3908667378    -1.4145678834     5.9981301391
Ni      3.6669417345     0.7157583701     5.9869138182
Ni     -3.7108784987     0.7190435175     6.0328517480
Ni      4.9057976617     2.8388244163     6.0411982092
Ni     -2.4814248435     2.8298458387     6.0521186228
Ni      2.4355069788    -1.4085502466     5.9888639843
Ni     -4.9252928465    -1.4026264080     6.0548563839
Ni      6.1341025786     0.7315238745     6.0218817427
Ni     -1.2402669783     0.7221835538     5.9926808095
Ni      7.3408175190     2.8291688103     6.0248565089
Ni     -0.0225097209     2.8466795557     6.0142376281
Ni      4.9088271165    -1.4251457534     5.9900387779
Ni     -2.4790699264    -1.4211153466     5.9913638200
Ni      0.0337137405    -0.0099863123     8.0038502320
Ni     -7.3606520147    -0.0334139511     7.9835827732
Ni      1.2525382386     2.1076756093     8.0014158677
Ni      8.5596645315     2.1514300915     7.9633346422
Ni     -1.1983605499    -2.1613845897     8.0018652759
Ni     -8.5927669864    -2.1264268734     8.0165035337
Ni      2.4708324722    -0.0109047600     8.0065027389
Ni     -4.8995212632    -0.0584838282     8.1493062015
Ni      3.6789469906     2.1047412898     7.9888648741
Ni     -3.6333178494     2.1270714900     8.1546283531
Ni      1.2394335961    -2.1164979174     7.9892760222
Ni     -6.1305722611    -2.1461024656     7.9989212299
Ni      4.9150163145    -0.0283439881     7.9490640309
Ni     -2.3653823178    -0.0601929248     7.9425724452
Ni      6.1349712758     2.1197335004     8.1598232492
Ni     -1.1861990586     2.1067384809     8.0263285947
Ni      3.6953023012    -2.1157302873     7.9694462946
Ni     -3.6468332403    -2.1628724713     8.0264725749
O       5.9486020032     1.9536774433    10.1568983318
H       6.2023593986     1.0444615420    10.4395396161
H       7.6485803319     2.9982816350    10.7947394844
H       2.3841835216    -2.5662265370    10.9995346326
C       6.5922936452     2.8570131008    11.0871865803
O       6.8828593053     0.8516013498    12.3925733789
H      -6.8879959571     0.8254517200    12.3248078773
C       6.4620997723     2.2299052156    12.4710261049
H       5.3979785171     2.1706601767    12.7461907790
C       7.1981974178     3.0342299686    13.5247288963
H       3.2389656514    -2.2859498111    13.4051121917
H       8.2901195875     2.9478942375    13.3576433856
O       6.8260697992     2.5426661176    14.8120038538
H       7.2522042786     3.0948827032    15.4870039972
O      -4.3927237137     1.0982075682     9.5865509607
H      -3.6717371060     0.6667680985    10.0888232085
88
Step 2 | NEB Image 2 | Cartesian Angstrom
Ni      1.2285271350     0.7092904720     2.0000000000
Ni     -6.1433728650     0.7092904720     2.0000000000
Ni      2.4570542700     2.8371618880     2.0000000000
Ni     -4.9148457300     2.8371618880     2.0000000000
Ni      0.0000000000    -1.4185809440     2.0000000000
Ni     -7.3719000000    -1.4185809440     2.0000000000
Ni      3.6855814050     0.7092904720     2.0000000000
Ni     -3.6863185950     0.7092904720     2.0000000000
Ni      4.9141085400     2.8371618880     2.0000000000
Ni     -2.4577914600     2.8371618880     2.0000000000
Ni      2.4570542700    -1.4185809440     2.0000000000
Ni     -4.9148457300    -1.4185809440     2.0000000000
Ni      6.1433728650     0.7092904720     2.0000000000
Ni     -1.2285271350     0.7092904720     2.0000000000
Ni      7.3719000000     2.8371618880     2.0000000000
Ni      0.0000000000     2.8371618880     2.0000000000
Ni      4.9148457300    -1.4185809440     2.0000000000
Ni     -2.4570542700    -1.4185809440     2.0000000000
Ni      0.0422428502    -0.0228234885     3.9924449043
Ni     -7.3148256796    -0.0141507490     4.0064347207
Ni      1.2645662317     2.1098361715     3.9976857041
Ni     -6.1000860570     2.1086135025     4.0305723753
Ni     -1.1882608486    -2.1484013924     3.9895519456
Ni     -8.5506158202    -2.1583442151     4.0026029587
Ni      2.5015990898    -0.0243859691     3.9934538590
Ni     -4.8753612972    -0.0176467905     4.0286244397
Ni      3.7335416382     2.1079012685     3.9963436185
Ni     -3.6405270233     2.1115088944     4.0210927858
Ni      1.2701445845    -2.1544123402     3.9996841205
Ni     -6.0967654700    -2.1458330779     4.0072672009
Ni      4.9701000043    -0.0251839993     3.9980166336
Ni     -2.4221609242    -0.0160117248     3.9996879808
Ni      6.1881028415     2.1093429534     4.0075657556
Ni     -1.1934804780     2.1140380655     4.0006307809
Ni      3.7312001522    -2.1598143960     4.0006609364
Ni     -3.6536439054    -2.1429254044     4.0022791201
Ni      1.2267172968     0.7176566865     5.9959745887
Ni     -6.1123509035     0.7425512618     6.0926985521
Ni      2.4556704038     2.8439696033     5.9917658468
Ni     -4.9109675597     2.8314101412     6.0589586276
Ni     -0.0056917876    -1.4126785138     6.0040060956
Ni     -7.3677042522    -1.4032615251     6.0060330756
Ni      3.6819417582     0.7145246887     5.9898241986
Ni     -3.6887158715     0.7267909356     6.0441842681
Ni      4.9242892667     2.8359456190     6.0434791680
Ni     -2.4656392726     2.8453460400     6.0567334251
Ni      2.4511999751    -1.4139773564     6.0015559454
Ni     -4.9078024546    -1.3780345146     6.0659035947
Ni      6.1566928448     0.7234354714     6.0189942438
Ni     -1.2256330344     0.7250291042     5.9940863505
Ni      7.3602455376     2.8267043258     6.0695503142
Ni     -0.0098757992     2.8571355061     6.0075991022
Ni      4.9190942724    -1.4244332480     5.9954052884
Ni     -2.4608163822    -1.4145152957     5.9940468390
Ni      0.0502037020    -0.0124337163     8.0029587237
Ni     -7.3057749401    -0.0308744670     7.9908600181
Ni      1.2637485878     2.1163196148     7.9975849248
Ni      8.5788204493     2.2220445418     8.1367347901
Ni     -1.1836458681    -2.1550129797     8.0025417178
Ni     -8.5485936395    -2.0942499585     7.9939058801
Ni      2.4720475400     0.0002571877     8.0076545701
Ni     -4.8151900444    -0.0189886282     8.2335248490
Ni      3.6789878181     2.1179298179     7.9851369333
Ni     -3.5711401566     2.1434564417     8.1439744877
Ni      1.2498302974    -2.1268117661     8.0099352899
Ni     -6.0798451597    -2.1199260531     8.0134810675
Ni      4.9149585018    -0.0193170587     7.9618319894
Ni     -2.3440579812    -0.0519792876     7.9574012471
Ni      6.1240236114     2.0919178208     8.1388107006
Ni     -1.1529583953     2.1156350964     8.0164584667
Ni      3.6816187099    -2.0787429960     7.9945773262
Ni     -3.6259645405    -2.1501265772     8.0282939300
O       6.1842101635     1.5719527731    10.0634244564
H       9.0677557448     2.3429134969     9.7656867704
H       8.2687669977     2.6114187566     9.7195943963
H       1.8173558710    -3.1158982053    10.9315949420
C       6.1082748988     2.3572858462    11.0289849073
O       7.3652359005     0.7304805698    12.2560699983
H      -7.5022648160     0.3912456466    11.3392212769
C       6.7529695426     2.0012634236    12.3285402982
H       5.9061438392     2.0218353136    13.0516727609
C       7.6499183155     3.1111127730    12.9735905688
H       3.5118130914    -2.2701079825    12.8414553791
H       8.6469325712     3.1197899627    12.5063841527
O       7.7201732908     2.7920433326    14.3683252359
H       8.3242834103     3.4123445000    14.8118104053
O      -4.1146020070     1.1356520132     9.6852935630
H      -3.3598704036     0.8584939864    10.2426312445
88
Step 3 | NEB Image 3 | Cartesian Angstrom
Ni      1.2285271350     0.7092904720     2.0000000000
Ni     -6.1433728650     0.7092904720     2.0000000000
Ni      2.4570542700     2.8371618880     2.0000000000
Ni     -4.9148457300     2.8371618880     2.0000000000
Ni      0.0000000000    -1.4185809440     2.0000000000
Ni     -7.3719000000    -1.4185809440     2.0000000000
Ni      3.6855814050     0.7092904720     2.0000000000
Ni     -3.6863185950     0.7092904720     2.0000000000
Ni      4.9141085400     2.8371618880     2.0000000000
Ni     -2.4577914600     2.8371618880     2.0000000000
Ni      2.4570542700    -1.4185809440     2.0000000000
Ni     -4.9148457300    -1.4185809440     2.0000000000
Ni      6.1433728650     0.7092904720     2.0000000000
Ni     -1.2285271350     0.7092904720     2.0000000000
Ni      7.3719000000     2.8371618880     2.0000000000
Ni      0.0000000000     2.8371618880     2.0000000000
Ni      4.9148457300    -1.4185809440     2.0000000000
Ni     -2.4570542700    -1.4185809440     2.0000000000
Ni      0.0344473602    -0.0155291337     3.9966739129
Ni     -7.3355934833    -0.0221004827     3.9993279445
Ni      1.2551846781     2.1081926121     3.9975554122
Ni     -6.0990803749     2.1113046498     3.9961605211
Ni     -1.1937026181    -2.1454243951     3.9953532517
Ni     -8.5665679286    -2.1404243567     4.0102623073
Ni      2.4943520089    -0.0103467374     4.0024208752
Ni     -4.8759583624    -0.0221620057     3.9983403700
Ni      3.7182537791     2.1044119523     3.9981831912
Ni     -3.6502169227     2.1140819029     4.0112008892
Ni      1.2662284079    -2.1438201092     3.9919356625
Ni     -6.1124171907    -2.1526520642     4.0069743865
Ni      4.9495208187    -0.0165464188     4.0112192889
Ni     -2.4246830358    -0.0181367554     3.9969138597
Ni      6.1828524768     2.1086803304     3.9971000057
Ni     -1.2031155694     2.1142185826     4.0044711014
Ni      3.7253860915    -2.1357995086     3.9856931404
Ni     -3.6520408753    -2.1518871331     3.9955199330
Ni      1.2156298282     0.7217132597     6.0148374099
Ni     -6.1680842210     0.7144412541     6.0059393955
Ni      2.4320507527     2.8493539028     5.9914432092
Ni     -4.9041509542     2.8520702391     6.0255050969
Ni     -0.0240239214    -1.4006633089     6.0022559795
Ni     -7.3719637897    -1.3878144958     6.0396991773
Ni      3.6869332765     0.7150350800     6.0480553309
Ni     -3.7024785063     0.7381479831     6.0231716969
Ni      4.8916655689     2.8590611692     5.9918595605
Ni     -2.4899921722     2.8363781281     6.0700374092
Ni      2.4387634058    -1.3979274638     6.0001917719
Ni     -4.9252980463    -1.4193768435     6.0058230568
Ni      6.1290126187     0.7161367748     6.0089063567
Ni     -1.2451376771     0.7247983759     6.0031732587
Ni      7.3663372652     2.8650030849     5.9775227654
Ni     -0.0256274694     2.8466237190     6.0153351209
Ni      4.9143463500    -1.3863759006     6.0376525702
Ni     -2.4860978624    -1.4072733740     6.0017979101
Ni      0.0049729097     0.0040060627     8.0106954676
Ni     -7.3371458900    -0.0032539840     8.1239315972
Ni      1.2400989835     2.1242036683     8.0130087756
Ni      8.6217972421     2.1510320737     7.9254685737
Ni     -1.2210769998    -2.1270053305     7.9981143423
Ni     -8.5776667109    -2.1404161432     8.0027025548
Ni      2.4544444630     0.0031656653     8.0279061007
Ni     -4.8923314506    -0.0301581864     7.9684513164
Ni      3.6510887885     2.1685457006     7.9740084233
Ni     -3.6694240320     2.1031550381     8.1815668698
Ni      1.2237402515    -2.1027359209     8.0005957256
Ni     -6.1207330403    -2.1255676118     8.0303592200
Ni      4.8928765077    -0.0170240470     8.1648467821
Ni     -2.4254161929    -0.0227339764     7.9804894072
Ni      6.1598546397     2.1929447010     7.9559637999
Ni     -1.1975738454     2.1158683558     8.0269371047
Ni      3.6930690089    -2.1001281264     7.9903083081
Ni     -3.6718041090    -2.1410849613     8.0210266987
O       6.1184745889     0.9313382455     9.3913886066
H      10.3890789919     2.6892184407    10.6148902439
H       6.8394690071     2.4745326321    10.5843436574
H       1.4856997818    -4.3990111049    10.9280161428
C       6.1706187049     1.5926616055    10.6796249709
O       7.1598402505    -0.3811657581    11.5054505519
H      -7.6021625310    -0.5947372701    10.5097045141
C       6.6846117140     0.7820785915    11.8149304788
H       6.6058656333     3.4083313688    12.9855658962
C       7.5724134864     3.7058912229    13.4120519278
H       3.9183135670    -1.5798568202    13.4998725707
H       8.3671414848     3.3857538945    12.7093762046
O       7.6818976610     3.0561391455    14.6788359606
H       8.3039548323     3.5568832010    15.2294716567
O      -4.0362978818     1.8378390380    10.2576681161
H      -3.2038340376     1.6245063990    10.7200092634
88
Step 4 | NEB Image 4 | Cartesian Angstrom
Ni      1.2285271350     0.7092904720     2.0000000000
Ni     -6.1433728650     0.7092904720     2.0000000000
Ni      2.4570542700     2.8371618880     2.0000000000
Ni     -4.9148457300     2.8371618880     2.0000000000
Ni      0.0000000000    -1.4185809440     2.0000000000
Ni     -7.3719000000    -1.4185809440     2.0000000000
Ni      3.6855814050     0.7092904720     2.0000000000
Ni     -3.6863185950     0.7092904720     2.0000000000
Ni      4.9141085400     2.8371618880     2.0000000000
Ni     -2.4577914600     2.8371618880     2.0000000000
Ni      2.4570542700    -1.4185809440     2.0000000000
Ni     -4.9148457300    -1.4185809440     2.0000000000
Ni      6.1433728650     0.7092904720     2.0000000000
Ni     -1.2285271350     0.7092904720     2.0000000000
Ni      7.3719000000     2.8371618880     2.0000000000
Ni      0.0000000000     2.8371618880     2.0000000000
Ni      4.9148457300    -1.4185809440     2.0000000000
Ni     -2.4570542700    -1.4185809440     2.0000000000
Ni      0.0368458371    -0.0142326562     3.9988032970
Ni     -7.3375835622    -0.0120626021     4.0008491837
Ni      1.2624898507     2.1113803504     3.9983939003
Ni     -6.1058105887     2.1175835818     3.9999424188
Ni     -1.1918804985    -2.1405428243     3.9985861071
Ni     -8.5683234281    -2.1407635666     4.0029113924
Ni      2.4970305843    -0.0099244225     4.0039961333
Ni     -4.8764629297    -0.0124029375     3.9965876890
Ni      3.7237382584     2.1106306506     4.0067764445
Ni     -3.6518355789     2.1160769040     4.0083572253
Ni      1.2647396061    -2.1448972882     4.0003416467
Ni     -6.1078442551    -2.1457493037     3.9973215745
Ni      4.9521381053    -0.0115459531     4.0127455270
Ni     -2.4255852090    -0.0122829421     3.9996582605
Ni      6.1799333924     2.1141199211     4.0078689755
Ni     -1.1974073872     2.1161386697     3.9989840401
Ni      3.7200699508    -2.1385614420     3.9915989736
Ni     -3.6472476469    -2.1446380844     3.9922676877
Ni      1.2138006289     0.7297060125     6.0133740285
Ni     -6.1657097726     0.7184305185     6.0132009880
Ni      2.4395426309     2.8559701443     5.9989981498
Ni     -4.9074095174     2.8503791698     6.0250975801
Ni     -0.0185888478    -1.3979722152     6.0101907717
Ni     -7.3787432162    -1.3821122263     6.0112296348
Ni      3.6837439859     0.7228680304     6.0489549864
Ni     -3.6996387721     0.7481419473     6.0380811566
Ni      4.9033948730     2.8577860116     6.0285113748
Ni     -2.4854722152     2.8482240022     6.0396238797
Ni      2.4351391942    -1.3935269628     6.0054325471
Ni     -4.9196349589    -1.4048244762     5.9956168434
Ni      6.1283183128     0.7302441270     6.0301717171
Ni     -1.2449087287     0.7296789986     6.0009724045
Ni      7.3595867047     2.8569959931     6.0088103246
Ni     -0.0200791307     2.8599253536     6.0046808121
Ni      4.9041050725    -1.3860952761     6.0228848967
Ni     -2.4799805024    -1.3978932712     6.0047301051
Ni      0.0039010134     0.0135558740     8.0131130113
Ni     -7.3245042657    -0.0197867887     8.1300217887
Ni      1.2389204706     2.1344181985     8.0093729705
Ni      8.6325795519     2.1523647386     7.9537471817
Ni     -1.2178484613    -2.1197143313     8.0052427866
Ni     -8.5918979483    -2.1385866931     7.9647808074
Ni      2.4506626094     0.0123245486     8.0272317318
Ni     -4.8827619126    -0.0130088785     7.9851111463
Ni      3.6549567622     2.1664980308     7.9961268922
Ni     -3.6616462676     2.1215990365     8.1792757908
Ni      1.2254491273    -2.0986924044     8.0200114414
Ni     -6.1153549332    -2.1133011736     7.9926036409
Ni      4.8944698393    -0.0161928741     8.1303189021
Ni     -2.4229018676    -0.0139729991     7.9945235809
Ni      6.1647917143     2.1991349695     8.0632932746
Ni     -1.1917425919     2.1288634527     7.9967546463
Ni      3.6870859289    -2.1006653537     7.9962054070
Ni     -3.6698425042    -2.1279681269     8.0159039252
O       6.1668120891     0.8102068246     9.4019143995
H      11.0163898923     3.0741048615    10.5677540142
H       6.9198382274     1.8567462350    11.0418402321
H       1.6799564873    -5.3640352541    11.2995256548
C       6.3491670465     0.9350807384    10.8154979053
O       7.7925061337    -1.0039719461    10.8775634372
H      -6.8910464984    -0.9419914210     9.5977593874
C       7.1303881348    -0.1533169373    11.4921962326
H       8.1604672280     4.2871500953    11.7900649914
C       8.3945163960     4.3131884467    12.8631351476
H       3.8904272324    -1.5458504605    13.3836512103
H       9.3287965578     4.8840576158    13.0012714874
O       8.5224891226     2.9511016712    13.2864919952
H       8.8018129221     2.9454173072    14.2167249266
O      -3.6999237656     2.1402463505    10.2764152957
H      -2.8075585864     1.8171831367    10.5111408169
88
Step 5 | NEB Image 5 | Cartesian Angstrom
Ni      1.2285271350     0.7092904720     2.0000000000
Ni     -6.1433728650     0.7092904720     2.0000000000
Ni      2.4570542700     2.8371618880     2.0000000000
Ni     -4.9148457300     2.8371618880     2.0000000000
Ni      0.0000000000    -1.4185809440     2.0000000000
Ni     -7.3719000000    -1.4185809440     2.0000000000
Ni      3.6855814050     0.7092904720     2.0000000000
Ni     -3.6863185950     0.7092904720     2.0000000000
Ni      4.9141085400     2.8371618880     2.0000000000
Ni     -2.4577914600     2.8371618880     2.0000000000
Ni      2.4570542700    -1.4185809440     2.0000000000
Ni     -4.9148457300    -1.4185809440     2.0000000000
Ni      6.1433728650     0.7092904720     2.0000000000
Ni     -1.2285271350     0.7092904720     2.0000000000
Ni      7.3719000000     2.8371618880     2.0000000000
Ni      0.0000000000     2.8371618880     2.0000000000
Ni      4.9148457300    -1.4185809440     2.0000000000
Ni     -2.4570542700    -1.4185809440     2.0000000000
Ni      0.0464326620    -0.0306468460     3.9976675890
Ni     -7.3257303870    -0.0255862300     3.9933782980
Ni      1.2739848450     2.0960038070     3.9979157030
Ni     -6.1026021170     2.1049500680     4.0019149180
Ni     -1.1827110610    -2.1546561820     3.9989053170
Ni     -8.5597082650    -2.1592869340     3.9982394010
Ni      2.5024778430    -0.0256743600     4.0031952220
Ni     -4.8641413240    -0.0227350050     3.9956475690
Ni      3.7346756480     2.0985190290     4.0083618800
Ni     -3.6458198020     2.0991473590     4.0056686860
Ni      1.2703768650    -2.1597674920     4.0015811390
Ni     -6.0933336510    -2.1603781540     3.9902680500
Ni      4.9590538200    -0.0289845540     4.0074783820
Ni     -2.4167678920    -0.0248088220     4.0022401470
Ni      6.1885777810     2.1026461420     4.0098077600
Ni     -1.1844811720     2.0985803670     3.9964394390
Ni      3.7245308300    -2.1560713310     3.9888953010
Ni     -3.6351397940    -2.1574140910     3.9933365850
Ni      1.2278611130     0.7073057200     6.0134419810
Ni     -6.1428898530     0.6957346210     6.0102358510
Ni      2.4563605190     2.8356121920     5.9987058000
Ni     -4.8924583120     2.8187736320     6.0264580820
Ni      0.0002252210    -1.4241376010     6.0155868270
Ni     -7.3667991100    -1.4101212980     5.9895528060
Ni      3.6921281460     0.7008202940     6.0360645010
Ni     -3.6779272240     0.7256007260     6.0512861550
Ni      4.9267336850     2.8309168990     6.0432780270
Ni     -2.4664659500     2.8157315660     6.0151173370
Ni      2.4509011280    -1.4197685090     6.0062316800
Ni     -4.8985683740    -1.4191884620     5.9881596610
Ni      6.1372839650     0.7115480370     6.0073921100
Ni     -1.2256557510     0.7019370040     6.0032560690
Ni      7.3730564330     2.8242126570     6.0269074010
Ni     -0.0034566730     2.8405670140     6.0010880700
Ni      4.9162369820    -1.4189308570     6.0083232610
Ni     -2.4596272260    -1.4182314770     6.0084483810
Ni      0.0277268390    -0.0168450280     8.0180888710
Ni     -7.3091221710    -0.0327920680     8.0371701400
Ni      1.2611452740     2.1078740620     8.0062525300
Ni      8.6667549770     2.1138793650     7.9801313330
Ni     -1.1942402360    -2.1496555940     8.0109921590
Ni     -8.5668484660    -2.1735761150     7.9430911750
Ni      2.4712577410    -0.0190631580     8.0243063390
Ni     -4.8670711400    -0.0431110720     7.9967287920
Ni      3.6750137580     2.1321536040     7.9940007810
Ni     -3.6274773380     2.0999917070     8.2089215290
Ni      1.2517815200    -2.1329879940     8.0267060850
Ni     -6.0785108950    -2.1534189890     7.9361595560
Ni      4.9123316280    -0.0512787390     8.0829089500
Ni     -2.4007725170    -0.0429334740     8.0081832520
Ni      6.1908597070     2.1505617180     8.1094472440
Ni     -1.1654360560     2.0989982700     7.9806126390
Ni      3.7077660390    -2.1419918620     7.9975968800
Ni     -3.6463297530    -2.1524111230     8.0158878220
O       6.1707187590     0.6663307040     9.3727337630
H      11.2555922500     3.1706166680    10.5266232770
H       7.1149227860     1.0824741990    11.1550798120
H       1.6297081310    -5.3793991980    11.2177269450
C       6.2238707100     0.5353136510    10.8108846880
O       7.5718415080    -1.5277099790    10.9241884940
H      -6.8828388710    -1.2337967880    10.0124245870
C       6.2850334910    -0.9302036460    11.2182633770
H       9.1791669060     4.9099545600    10.6626973770
C       9.7467965870     5.2786349730    12.7161077750
H       5.0959169980    -0.6608682970    12.9933131080
H      10.5457770910     5.8077082870    13.2666670860
O       9.6783811350     3.9068622240    13.1006105230
H      10.5447055700     3.5019751520    12.9206205020
O      -3.5153567700     2.2005093110    10.2599052050
H      -2.6227032800     1.8412518110    10.4321503050
