88
Step 1 | NEB Image 1 | Cartesian Angstrom
Ni      1.2285271350     0.7092904720     2.0000000000
Ni     -6.1433728650     0.7092904720     2.0000000000
Ni      2.4570542700     2.8371618880     2.0000000000
Ni     -4.9148457300     2.8371618880     2.0000000000
Ni      0.0000000000    -1.4185809440     2.0000000000
Ni     -7.3719000000    -1.4185809440     2.0000000000
Ni      3.6855814050     0.7092904720     2.0000000000
Ni     -3.6863185950     0.7092904720     2.0000000000
Ni      4.9141085400     2.8371618880     2.0000000000
Ni     -2.4577914600     2.8371618880     2.0000000000
Ni      2.4570542700    -1.4185809440     2.0000000000
Ni     -4.9148457300    -1.4185809440     2.0000000000
Ni      6.1433728650     0.7092904720     2.0000000000
Ni     -1.2285271350     0.7092904720     2.0000000000
Ni      7.3719000000     2.8371618880     2.0000000000
Ni      0.0000000000     2.8371618880     2.0000000000
Ni      4.9148457300    -1.4185809440     2.0000000000
Ni     -2.4570542700    -1.4185809440     2.0000000000
Ni      0.0345187234    -0.0219895959     3.9906686506
Ni     -7.3332872529    -0.0205271350     3.9970929970
Ni      1.2574298371     2.1090479016     3.9981086770
Ni     -6.1061214153     2.1042281316     4.0017605185
Ni     -1.1958375155    -2.1495425789     3.9888614873
Ni     -8.5615731291    -2.1597422030     3.9935633301
Ni      2.4909200515    -0.0209290578     3.9889124626
Ni     -4.8775455868    -0.0288695998     4.0155932973
Ni      3.7235299523     2.1102350339     3.9932622384
Ni     -3.6483031855     2.1055811522     4.0174271749
Ni      1.2597529797    -2.1544756242     3.9969618463
Ni     -6.1074652262    -2.1506208434     4.0019689283
Ni      4.9550771908    -0.0234645643     3.9935565644
Ni     -2.4269867653    -0.0199772708     3.9982338911
Ni      6.1741097051     2.1083418571     4.0046158614
Ni     -1.1996729370     2.1123145435     4.0000024585
Ni      3.7197951829    -2.1539414756     3.9921760547
Ni     -3.6589301935    -2.1514998115     3.9994955107
Ni      1.2136841869     0.7163863979     5.9963073096
Ni     -6.1473437226     0.7096773911     6.0218176054
Ni      2.4453295017     2.8415084524     5.9971730433
Ni     -4.9231971923     2.8360653972     6.0327934449
Ni     -0.0226348385    -1.4110330430     6.0020236029
Ni     -7.3908667378    -1.4145678834     5.9981301391
Ni      3.6669417345     0.7157583701     5.9869138182
Ni     -3.7108784987     0.7190435175     6.0328517480
Ni      4.9057976617     2.8388244163     6.0411982092
Ni     -2.4814248435     2.8298458387     6.0521186228
Ni      2.4355069788    -1.4085502466     5.9888639843
Ni     -4.9252928465    -1.4026264080     6.0548563839
Ni      6.1341025786     0.7315238745     6.0218817427
Ni     -1.2402669783     0.7221835538     5.9926808095
Ni      7.3408175190     2.8291688103     6.0248565089
Ni     -0.0225097209     2.8466795557     6.0142376281
Ni      4.9088271165    -1.4251457534     5.9900387779
Ni     -2.4790699264    -1.4211153466     5.9913638200
Ni      0.0337137405    -0.0099863123     8.0038502320
Ni     -7.3606520147    -0.0334139511     7.9835827732
Ni      1.2525382386     2.1076756093     8.0014158677
Ni      8.5596645315     2.1514300915     7.9633346422
Ni     -1.1983605499    -2.1613845897     8.0018652759
Ni     -8.5927669864    -2.1264268734     8.0165035337
Ni      2.4708324722    -0.0109047600     8.0065027389
Ni     -4.8995212632    -0.0584838282     8.1493062015
Ni      3.6789469906     2.1047412898     7.9888648741
Ni     -3.6333178494     2.1270714900     8.1546283531
Ni      1.2394335961    -2.1164979174     7.9892760222
Ni     -6.1305722611    -2.1461024656     7.9989212299
Ni      4.9150163145    -0.0283439881     7.9490640309
Ni     -2.3653823178    -0.0601929248     7.9425724452
Ni      6.1349712758     2.1197335004     8.1598232492
Ni     -1.1861990586     2.1067384809     8.0263285947
Ni      3.6953023012    -2.1157302873     7.9694462946
Ni     -3.6468332403    -2.1628724713     8.0264725749
O       5.9486020032     1.9536774433    10.1568983318
H       6.2023593986     1.0444615420    10.4395396161
H       7.6485803319     2.9982816350    10.7947394844
H       2.3841835216    -2.5662265370    10.9995346326
C       6.5922936452     2.8570131008    11.0871865803
O       6.8828593053     0.8516013498    12.3925733789
H      -6.8879959571     0.8254517200    12.3248078773
C       6.4620997723     2.2299052156    12.4710261049
H       5.3979785171     2.1706601767    12.7461907790
C       7.1981974178     3.0342299686    13.5247288963
H       3.2389656514    -2.2859498111    13.4051121917
H       8.2901195875     2.9478942375    13.3576433856
O       6.8260697992     2.5426661176    14.8120038538
H       7.2522042786     3.0948827032    15.4870039972
O      -4.3927237137     1.0982075682     9.5865509607
H      -3.6717371060     0.6667680985    10.0888232085
88
Step 2 | NEB Image 2 | Cartesian Angstrom
Ni      1.2285271350     0.7092904720     2.0000000000
Ni     -6.1433728650     0.7092904720     2.0000000000
Ni      2.4570542700     2.8371618880     2.0000000000
Ni     -4.9148457300     2.8371618880     2.0000000000
Ni      0.0000000000    -1.4185809440     2.0000000000
Ni     -7.3719000000    -1.4185809440     2.0000000000
Ni      3.6855814050     0.7092904720     2.0000000000
Ni     -3.6863185950     0.7092904720     2.0000000000
Ni      4.9141085400     2.8371618880     2.0000000000
Ni     -2.4577914600     2.8371618880     2.0000000000
Ni      2.4570542700    -1.4185809440     2.0000000000
Ni     -4.9148457300    -1.4185809440     2.0000000000
Ni      6.1433728650     0.7092904720     2.0000000000
Ni     -1.2285271350     0.7092904720     2.0000000000
Ni      7.3719000000     2.8371618880     2.0000000000
Ni      0.0000000000     2.8371618880     2.0000000000
Ni      4.9148457300    -1.4185809440     2.0000000000
Ni     -2.4570542700    -1.4185809440     2.0000000000
Ni      0.0365150990    -0.0147740882     3.9923163795
Ni     -7.3212642385    -0.0069062127     4.0068036601
Ni      1.2590132257     2.1179542149     3.9961358717
Ni     -6.1057891500     2.1163587115     4.0285569497
Ni     -1.1928706923    -2.1397693216     3.9890409133
Ni     -8.5573300987    -2.1497789479     4.0038566042
Ni      2.4950190748    -0.0159902102     3.9925011535
Ni     -4.8800941113    -0.0092967427     4.0264086282
Ni      3.7265573969     2.1153695311     3.9957679823
Ni     -3.6459327010     2.1203104105     4.0187055457
Ni      1.2636399351    -2.1460092978     3.9997928793
Ni     -6.1030976997    -2.1362080317     4.0066075306
Ni      4.9630006393    -0.0177888538     3.9985775524
Ni     -2.4276098478    -0.0067207119     3.9993247291
Ni      6.1809469833     2.1174721962     4.0054114767
Ni     -1.1983034425     2.1231146962     3.9984905923
Ni      3.7246039053    -2.1520522665     4.0008842379
Ni     -3.6580024447    -2.1342822251     4.0006535843
Ni      1.2183052031     0.7306590084     5.9955012248
Ni     -6.1218500110     0.7530191072     6.0916689462
Ni      2.4458625344     2.8573323332     5.9899951621
Ni     -4.9234362504     2.8431532903     6.0589880122
Ni     -0.0146041719    -1.3988333250     6.0059487701
Ni     -7.3789780612    -1.3924294989     6.0091216815
Ni      3.6726206236     0.7260609418     5.9907162321
Ni     -3.6994612888     0.7406569887     6.0429518144
Ni      4.9135270851     2.8504923875     6.0407270569
Ni     -2.4730848190     2.8595105688     6.0502340916
Ni      2.4411364674    -1.4017230397     6.0009485191
Ni     -4.9155823596    -1.3658055061     6.0617333251
Ni      6.1443821276     0.7355344439     6.0148749049
Ni     -1.2342158954     0.7392718230     5.9922005953
Ni      7.3533033431     2.8333014216     6.0703420991
Ni     -0.0168640907     2.8704046807     6.0049074693
Ni      4.9082748348    -1.4127209854     5.9983811715
Ni     -2.4688816608    -1.4014821696     5.9918297411
Ni      0.0370537690     0.0057136327     8.0028159186
Ni     -7.3199085860    -0.0144917997     7.9879101840
Ni      1.2502930879     2.1318160568     7.9973674717
Ni      8.5712669910     2.2254895238     8.1708874855
Ni     -1.1957552734    -2.1391716756     8.0027037965
Ni     -8.5643360967    -2.0835149190     8.0041671553
Ni      2.4593161082     0.0126326038     8.0065544876
Ni     -4.8164814944     0.0009862667     8.2444894135
Ni      3.6628647233     2.1332593159     7.9805878986
Ni     -3.5850876734     2.1702270822     8.1339076100
Ni      1.2371666300    -2.1117590727     8.0142703227
Ni     -6.0873927119    -2.0993868067     8.0093702315
Ni      4.9022683662    -0.0092766789     7.9635311266
Ni     -2.3541521761    -0.0361660068     7.9522987745
Ni      6.1073988408     2.1142523593     8.1331803443
Ni     -1.1653043520     2.1355235555     8.0112053900
Ni      3.6703699331    -2.0756019949     7.9902463074
Ni     -3.6370822432    -2.1329457793     8.0265933676
O       6.1226287243     1.4560249653    10.0344169348
H       9.0468847790     2.6467040909     9.6956970693
H       8.2658740020     2.2570140654     9.7735432955
H       1.5185007968    -3.4736973462    11.0992952312
C       5.9450260681     2.1014310243    11.0852919684
O       7.3569963581     0.4977118530    12.1550890411
H      -7.4963738612     0.2168997489    11.2137937638
C       6.6791993662     1.7295945718    12.3327915783
H       5.9031535449     1.6954735193    13.1282805736
C       7.5358512915     2.9254948654    12.9405585259
H       3.4021202918    -2.4734178382    12.6977610134
H       8.5466412604     2.8969447698    12.5142819441
O       7.5686448234     2.7620320933    14.3665429062
H       8.2125251671     3.3891423539    14.7443694464
O      -4.0685632537     1.1711883296     9.6786211224
H      -3.2606767097     0.9287298375    10.1753461486
88
Step 3 | NEB Image 3 | Cartesian Angstrom
Ni      1.2285271350     0.7092904720     2.0000000000
Ni     -6.1433728650     0.7092904720     2.0000000000
Ni      2.4570542700     2.8371618880     2.0000000000
Ni     -4.9148457300     2.8371618880     2.0000000000
Ni      0.0000000000    -1.4185809440     2.0000000000
Ni     -7.3719000000    -1.4185809440     2.0000000000
Ni      3.6855814050     0.7092904720     2.0000000000
Ni     -3.6863185950     0.7092904720     2.0000000000
Ni      4.9141085400     2.8371618880     2.0000000000
Ni     -2.4577914600     2.8371618880     2.0000000000
Ni      2.4570542700    -1.4185809440     2.0000000000
Ni     -4.9148457300    -1.4185809440     2.0000000000
Ni      6.1433728650     0.7092904720     2.0000000000
Ni     -1.2285271350     0.7092904720     2.0000000000
Ni      7.3719000000     2.8371618880     2.0000000000
Ni      0.0000000000     2.8371618880     2.0000000000
Ni      4.9148457300    -1.4185809440     2.0000000000
Ni     -2.4570542700    -1.4185809440     2.0000000000
Ni      0.0290301155    -0.0086100860     3.9967210818
Ni     -7.3415957951    -0.0137641733     4.0000475114
Ni      1.2514652859     2.1152956112     3.9967011897
Ni     -6.1056192902     2.1184213161     3.9974012476
Ni     -1.1988192731    -2.1372258756     3.9956486107
Ni     -8.5716184068    -2.1352104153     4.0083968883
Ni      2.4892556715    -0.0046677973     4.0021644260
Ni     -4.8818630673    -0.0135587975     3.9976758090
Ni      3.7145726354     2.1124866382     3.9991656813
Ni     -3.6560544664     2.1205371418     4.0100214664
Ni      1.2601160007    -2.1381873864     3.9941058858
Ni     -6.1166874438    -2.1442292895     4.0041149182
Ni      4.9456795837    -0.0096201305     4.0110671399
Ni     -2.4306364887    -0.0100099503     3.9967486023
Ni      6.1772421526     2.1155528957     4.0003489526
Ni     -1.2069345843     2.1211496459     4.0017533736
Ni      3.7185964854    -2.1312913187     3.9856612514
Ni     -3.6562694011    -2.1432709717     3.9940458065
Ni      1.2042814237     0.7342393348     6.0136645344
Ni     -6.1794115511     0.7249357487     6.0088298254
Ni      2.4240172028     2.8615173184     5.9909819707
Ni     -4.9148741824     2.8603440592     6.0266488147
Ni     -0.0323370496    -1.3893418704     6.0044148684
Ni     -7.3847868227    -1.3754528677     6.0332924268
Ni      3.6746158674     0.7273804398     6.0436010966
Ni     -3.7126767289     0.7499255751     6.0268432159
Ni      4.8855812162     2.8692164897     6.0013643610
Ni     -2.4986551624     2.8509684440     6.0583309901
Ni      2.4277934400    -1.3870918373     6.0014587573
Ni     -4.9340885318    -1.4058848713     6.0033494161
Ni      6.1181267552     0.7321596294     6.0148476966
Ni     -1.2562641240     0.7365192802     6.0020467205
Ni      7.3554972605     2.8722555755     5.9852738288
Ni     -0.0338365092     2.8608177175     6.0110147396
Ni      4.9007810631    -1.3788495818     6.0302323371
Ni     -2.4946849965    -1.3943884912     6.0019533639
Ni     -0.0114587656     0.0212351692     8.0108711925
Ni     -7.3533006652     0.0049711685     8.1301941656
Ni      1.2251742537     2.1412784924     8.0104031987
Ni      8.6116709190     2.1611307746     7.9355252757
Ni     -1.2350418278    -2.1122562103     7.9984596170
Ni     -8.5934008123    -2.1280773778     7.9926192331
Ni      2.4367619235     0.0197565661     8.0259288190
Ni     -4.9089293868    -0.0138298247     7.9734102828
Ni      3.6367344690     2.1816170807     7.9747024030
Ni     -3.6814886674     2.1174806147     8.1734818195
Ni      1.2085484483    -2.0859949238     8.0074524808
Ni     -6.1340426802    -2.1100614197     8.0202987616
Ni      4.8758609926    -0.0095790249     8.1391715268
Ni     -2.4404155046    -0.0086158059     7.9839488185
Ni      6.1509352268     2.2195055705     7.9896752457
Ni     -1.2104555478     2.1331832078     8.0154047358
Ni      3.6774308861    -2.0888405192     7.9917408380
Ni     -3.6872306901    -2.1239183346     8.0202269817
O       6.0803610650     0.9179085200     9.3694342307
H      10.5708013569     2.8686742677    10.5659247608
H       6.7391232558     2.2309719859    10.8406525889
H       1.3864339908    -4.7187324712    11.0267568760
C       6.0861245495     1.3401296500    10.7442765539
O       7.1393773144    -0.7201003341    11.2530714315
H      -7.5453761706    -0.7823161346    10.2149719415
C       6.5943291642     0.3446044855    11.7328062705
H       6.4715833121     3.2410286008    13.2002317877
C       7.4574587776     3.6021693082    13.5161909236
H       3.8153750576    -1.6937980519    13.3406072237
H       8.2219091239     3.1059430445    12.8913834270
O       7.5949016543     3.2647651387    14.8953042633
H       8.4116427592     3.6702789977    15.2277073030
O      -3.9036755647     1.9764372328    10.2717933428
H      -3.0068139292     1.8307989539    10.6301236283
88
Step 4 | NEB Image 4 | Cartesian Angstrom
Ni      1.2285271350     0.7092904720     2.0000000000
Ni     -6.1433728650     0.7092904720     2.0000000000
Ni      2.4570542700     2.8371618880     2.0000000000
Ni     -4.9148457300     2.8371618880     2.0000000000
Ni      0.0000000000    -1.4185809440     2.0000000000
Ni     -7.3719000000    -1.4185809440     2.0000000000
Ni      3.6855814050     0.7092904720     2.0000000000
Ni     -3.6863185950     0.7092904720     2.0000000000
Ni      4.9141085400     2.8371618880     2.0000000000
Ni     -2.4577914600     2.8371618880     2.0000000000
Ni      2.4570542700    -1.4185809440     2.0000000000
Ni     -4.9148457300    -1.4185809440     2.0000000000
Ni      6.1433728650     0.7092904720     2.0000000000
Ni     -1.2285271350     0.7092904720     2.0000000000
Ni      7.3719000000     2.8371618880     2.0000000000
Ni      0.0000000000     2.8371618880     2.0000000000
Ni      4.9148457300    -1.4185809440     2.0000000000
Ni     -2.4570542700    -1.4185809440     2.0000000000
Ni      0.0338601106    -0.0249131037     4.0015457714
Ni     -7.3400052531    -0.0224829008     4.0056681573
Ni      1.2653303909     2.1014403823     3.9952371963
Ni     -6.1075945297     2.1020312409     4.0050536971
Ni     -1.1940986904    -2.1499201376     4.0009124095
Ni     -8.5638483756    -2.1522563125     4.0060235434
Ni      2.4984339889    -0.0167226405     4.0043456187
Ni     -4.8810043817    -0.0215194665     4.0081322668
Ni      3.7255833248     2.1066782639     4.0096464173
Ni     -3.6503125158     2.1056207351     4.0076038250
Ni      1.2668170674    -2.1549932502     4.0028052612
Ni     -6.1050440347    -2.1533818213     3.9998877944
Ni      4.9539328011    -0.0186527463     4.0135228449
Ni     -2.4275848586    -0.0254873148     3.9953046354
Ni      6.1815207236     2.1028854474     4.0108627289
Ni     -1.1989184134     2.1047066613     4.0018610801
Ni      3.7210130541    -2.1475546876     3.9912274815
Ni     -3.6508770346    -2.1511420090     3.9956311408
Ni      1.2117429534     0.7148159665     6.0122175921
Ni     -6.1663350511     0.6973384854     6.0268321322
Ni      2.4420758347     2.8412850703     6.0017358367
Ni     -4.9135126143     2.8264287731     6.0216484759
Ni     -0.0149685035    -1.4174176488     6.0108874450
Ni     -7.3824843832    -1.4003119455     6.0216284194
Ni      3.6851464807     0.7088113686     6.0495125768
Ni     -3.6875698635     0.7299164317     6.0170082070
Ni      4.9120364335     2.8371617092     6.0356466790
Ni     -2.4877646051     2.8447248902     6.0304330699
Ni      2.4351915483    -1.4043948822     6.0073159250
Ni     -4.9238075557    -1.4221410829     6.0124977920
Ni      6.1320207468     0.7107522215     6.0394318065
Ni     -1.2537727320     0.7148931038     6.0021380822
Ni      7.3592533874     2.8408262387     6.0122223237
Ni     -0.0155861542     2.8434743465     5.9953625733
Ni      4.8993996811    -1.4031167975     6.0177342975
Ni     -2.4824164676    -1.4129047813     6.0093326159
Ni      0.0015185097    -0.0106387614     8.0082773121
Ni     -7.3349246632    -0.0148256850     8.1141606753
Ni      1.2356585619     2.1120225658     8.0069993321
Ni      8.6294754146     2.1372520900     7.9711029039
Ni     -1.2177936098    -2.1411743578     8.0071785030
Ni     -8.6050375983    -2.1632434336     7.9572780747
Ni      2.4441628170    -0.0081899156     8.0295920658
Ni     -4.8083600212     0.0160487085     7.9811709905
Ni      3.6549081900     2.1418069312     7.9986406407
Ni     -3.6544140269     2.1057458886     8.1363535221
Ni      1.2271028847    -2.1263529650     8.0230766340
Ni     -6.1156567582    -2.1600052153     8.0112613442
Ni      4.8878606392    -0.0496412326     8.1274988254
Ni     -2.4129405022    -0.0418908707     8.0027639108
Ni      6.1617666609     2.1667738370     8.0761360767
Ni     -1.1857698003     2.1069681538     7.9841874029
Ni      3.6759434484    -2.1294239300     7.9973811529
Ni     -3.6635786282    -2.1597533661     8.0199362129
O       6.1185278207     0.7572054214     9.4428862401
H      11.2309614759     3.1645563379    10.4474680094
H       6.8801159609     1.8293177624    11.0676875769
H       1.5981822828    -5.3259834949    11.3264466829
C       6.2687254379     0.9347651496    10.8487927004
O       7.5301661689    -1.1829908166    11.1935519058
H      -5.9463501082    -0.7280824914     8.8443226635
C       6.9794193011    -0.1958614748    11.5514030649
H       8.0510089243     4.3935902857    11.7259044624
C       8.2233724814     4.3151299464    12.8085131164
H       3.6803280862    -1.6337353179    13.3489060666
H       9.1260397407     4.9043431186    13.0534743626
O       8.3814248697     2.9185420366    13.0861243514
H       8.5919488230     2.8050376095    14.0277125601
O      -3.6211250689     2.2093972763    10.2470874255
H      -2.7526236506     1.8002642594    10.4359036472
88
Step 5 | NEB Image 5 | Cartesian Angstrom
Ni      1.2285271350     0.7092904720     2.0000000000
Ni     -6.1433728650     0.7092904720     2.0000000000
Ni      2.4570542700     2.8371618880     2.0000000000
Ni     -4.9148457300     2.8371618880     2.0000000000
Ni      0.0000000000    -1.4185809440     2.0000000000
Ni     -7.3719000000    -1.4185809440     2.0000000000
Ni      3.6855814050     0.7092904720     2.0000000000
Ni     -3.6863185950     0.7092904720     2.0000000000
Ni      4.9141085400     2.8371618880     2.0000000000
Ni     -2.4577914600     2.8371618880     2.0000000000
Ni      2.4570542700    -1.4185809440     2.0000000000
Ni     -4.9148457300    -1.4185809440     2.0000000000
Ni      6.1433728650     0.7092904720     2.0000000000
Ni     -1.2285271350     0.7092904720     2.0000000000
Ni      7.3719000000     2.8371618880     2.0000000000
Ni      0.0000000000     2.8371618880     2.0000000000
Ni      4.9148457300    -1.4185809440     2.0000000000
Ni     -2.4570542700    -1.4185809440     2.0000000000
Ni      0.0464326620    -0.0306468460     3.9976675890
Ni     -7.3257303870    -0.0255862300     3.9933782980
Ni      1.2739848450     2.0960038070     3.9979157030
Ni     -6.1026021170     2.1049500680     4.0019149180
Ni     -1.1827110610    -2.1546561820     3.9989053170
Ni     -8.5597082650    -2.1592869340     3.9982394010
Ni      2.5024778430    -0.0256743600     4.0031952220
Ni     -4.8641413240    -0.0227350050     3.9956475690
Ni      3.7346756480     2.0985190290     4.0083618800
Ni     -3.6458198020     2.0991473590     4.0056686860
Ni      1.2703768650    -2.1597674920     4.0015811390
Ni     -6.0933336510    -2.1603781540     3.9902680500
Ni      4.9590538200    -0.0289845540     4.0074783820
Ni     -2.4167678920    -0.0248088220     4.0022401470
Ni      6.1885777810     2.1026461420     4.0098077600
Ni     -1.1844811720     2.0985803670     3.9964394390
Ni      3.7245308300    -2.1560713310     3.9888953010
Ni     -3.6351397940    -2.1574140910     3.9933365850
Ni      1.2278611130     0.7073057200     6.0134419810
Ni     -6.1428898530     0.6957346210     6.0102358510
Ni      2.4563605190     2.8356121920     5.9987058000
Ni     -4.8924583120     2.8187736320     6.0264580820
Ni      0.0002252210    -1.4241376010     6.0155868270
Ni     -7.3667991100    -1.4101212980     5.9895528060
Ni      3.6921281460     0.7008202940     6.0360645010
Ni     -3.6779272240     0.7256007260     6.0512861550
Ni      4.9267336850     2.8309168990     6.0432780270
Ni     -2.4664659500     2.8157315660     6.0151173370
Ni      2.4509011280    -1.4197685090     6.0062316800
Ni     -4.8985683740    -1.4191884620     5.9881596610
Ni      6.1372839650     0.7115480370     6.0073921100
Ni     -1.2256557510     0.7019370040     6.0032560690
Ni      7.3730564330     2.8242126570     6.0269074010
Ni     -0.0034566730     2.8405670140     6.0010880700
Ni      4.9162369820    -1.4189308570     6.0083232610
Ni     -2.4596272260    -1.4182314770     6.0084483810
Ni      0.0277268390    -0.0168450280     8.0180888710
Ni     -7.3091221710    -0.0327920680     8.0371701400
Ni      1.2611452740     2.1078740620     8.0062525300
Ni      8.6667549770     2.1138793650     7.9801313330
Ni     -1.1942402360    -2.1496555940     8.0109921590
Ni     -8.5668484660    -2.1735761150     7.9430911750
Ni      2.4712577410    -0.0190631580     8.0243063390
Ni     -4.8670711400    -0.0431110720     7.9967287920
Ni      3.6750137580     2.1321536040     7.9940007810
Ni     -3.6274773380     2.0999917070     8.2089215290
Ni      1.2517815200    -2.1329879940     8.0267060850
Ni     -6.0785108950    -2.1534189890     7.9361595560
Ni      4.9123316280    -0.0512787390     8.0829089500
Ni     -2.4007725170    -0.0429334740     8.0081832520
Ni      6.1908597070     2.1505617180     8.1094472440
Ni     -1.1654360560     2.0989982700     7.9806126390
Ni      3.7077660390    -2.1419918620     7.9975968800
Ni     -3.6463297530    -2.1524111230     8.0158878220
O       6.1707187590     0.6663307040     9.3727337630
H      11.2555922500     3.1706166680    10.5266232770
H       7.1149227860     1.0824741990    11.1550798120
H       1.6297081310    -5.3793991980    11.2177269450
C       6.2238707100     0.5353136510    10.8108846880
O       7.5718415080    -1.5277099790    10.9241884940
H      -6.8828388710    -1.2337967880    10.0124245870
C       6.2850334910    -0.9302036460    11.2182633770
H       9.1791669060     4.9099545600    10.6626973770
C       9.7467965870     5.2786349730    12.7161077750
H       5.0959169980    -0.6608682970    12.9933131080
H      10.5457770910     5.8077082870    13.2666670860
O       9.6783811350     3.9068622240    13.1006105230
H      10.5447055700     3.5019751520    12.9206205020
O      -3.5153567700     2.2005093110    10.2599052050
H      -2.6227032800     1.8412518110    10.4321503050
