88
Step 1 | NEB Image 1 | Cartesian Angstrom
Ni      1.2285271350     0.7092904720     2.0000000000
Ni     -6.1433728650     0.7092904720     2.0000000000
Ni      2.4570542700     2.8371618880     2.0000000000
Ni     -4.9148457300     2.8371618880     2.0000000000
Ni      0.0000000000    -1.4185809440     2.0000000000
Ni     -7.3719000000    -1.4185809440     2.0000000000
Ni      3.6855814050     0.7092904720     2.0000000000
Ni     -3.6863185950     0.7092904720     2.0000000000
Ni      4.9141085400     2.8371618880     2.0000000000
Ni     -2.4577914600     2.8371618880     2.0000000000
Ni      2.4570542700    -1.4185809440     2.0000000000
Ni     -4.9148457300    -1.4185809440     2.0000000000
Ni      6.1433728650     0.7092904720     2.0000000000
Ni     -1.2285271350     0.7092904720     2.0000000000
Ni      7.3719000000     2.8371618880     2.0000000000
Ni      0.0000000000     2.8371618880     2.0000000000
Ni      4.9148457300    -1.4185809440     2.0000000000
Ni     -2.4570542700    -1.4185809440     2.0000000000
Ni      0.0345187234    -0.0219895959     3.9906686506
Ni     -7.3332872529    -0.0205271350     3.9970929970
Ni      1.2574298371     2.1090479016     3.9981086770
Ni     -6.1061214153     2.1042281316     4.0017605185
Ni     -1.1958375155    -2.1495425789     3.9888614873
Ni     -8.5615731291    -2.1597422030     3.9935633301
Ni      2.4909200515    -0.0209290578     3.9889124626
Ni     -4.8775455868    -0.0288695998     4.0155932973
Ni      3.7235299523     2.1102350339     3.9932622384
Ni     -3.6483031855     2.1055811522     4.0174271749
Ni      1.2597529797    -2.1544756242     3.9969618463
Ni     -6.1074652262    -2.1506208434     4.0019689283
Ni      4.9550771908    -0.0234645643     3.9935565644
Ni     -2.4269867653    -0.0199772708     3.9982338911
Ni      6.1741097051     2.1083418571     4.0046158614
Ni     -1.1996729370     2.1123145435     4.0000024585
Ni      3.7197951829    -2.1539414756     3.9921760547
Ni     -3.6589301935    -2.1514998115     3.9994955107
Ni      1.2136841869     0.7163863979     5.9963073096
Ni     -6.1473437226     0.7096773911     6.0218176054
Ni      2.4453295017     2.8415084524     5.9971730433
Ni     -4.9231971923     2.8360653972     6.0327934449
Ni     -0.0226348385    -1.4110330430     6.0020236029
Ni     -7.3908667378    -1.4145678834     5.9981301391
Ni      3.6669417345     0.7157583701     5.9869138182
Ni     -3.7108784987     0.7190435175     6.0328517480
Ni      4.9057976617     2.8388244163     6.0411982092
Ni     -2.4814248435     2.8298458387     6.0521186228
Ni      2.4355069788    -1.4085502466     5.9888639843
Ni     -4.9252928465    -1.4026264080     6.0548563839
Ni      6.1341025786     0.7315238745     6.0218817427
Ni     -1.2402669783     0.7221835538     5.9926808095
Ni      7.3408175190     2.8291688103     6.0248565089
Ni     -0.0225097209     2.8466795557     6.0142376281
Ni      4.9088271165    -1.4251457534     5.9900387779
Ni     -2.4790699264    -1.4211153466     5.9913638200
Ni      0.0337137405    -0.0099863123     8.0038502320
Ni     -7.3606520147    -0.0334139511     7.9835827732
Ni      1.2525382386     2.1076756093     8.0014158677
Ni      8.5596645315     2.1514300915     7.9633346422
Ni     -1.1983605499    -2.1613845897     8.0018652759
Ni     -8.5927669864    -2.1264268734     8.0165035337
Ni      2.4708324722    -0.0109047600     8.0065027389
Ni     -4.8995212632    -0.0584838282     8.1493062015
Ni      3.6789469906     2.1047412898     7.9888648741
Ni     -3.6333178494     2.1270714900     8.1546283531
Ni      1.2394335961    -2.1164979174     7.9892760222
Ni     -6.1305722611    -2.1461024656     7.9989212299
Ni      4.9150163145    -0.0283439881     7.9490640309
Ni     -2.3653823178    -0.0601929248     7.9425724452
Ni      6.1349712758     2.1197335004     8.1598232492
Ni     -1.1861990586     2.1067384809     8.0263285947
Ni      3.6953023012    -2.1157302873     7.9694462946
Ni     -3.6468332403    -2.1628724713     8.0264725749
O       5.9486020032     1.9536774433    10.1568983318
H       6.2023593986     1.0444615420    10.4395396161
H       7.6485803319     2.9982816350    10.7947394844
H       2.3841835216    -2.5662265370    10.9995346326
C       6.5922936452     2.8570131008    11.0871865803
O       6.8828593053     0.8516013498    12.3925733789
H      -6.8879959571     0.8254517200    12.3248078773
C       6.4620997723     2.2299052156    12.4710261049
H       5.3979785171     2.1706601767    12.7461907790
C       7.1981974178     3.0342299686    13.5247288963
H       3.2389656514    -2.2859498111    13.4051121917
H       8.2901195875     2.9478942375    13.3576433856
O       6.8260697992     2.5426661176    14.8120038538
H       7.2522042786     3.0948827032    15.4870039972
O      -4.3927237137     1.0982075682     9.5865509607
H      -3.6717371060     0.6667680985    10.0888232085
88
Step 2 | NEB Image 2 | Cartesian Angstrom
Ni      1.2285271350     0.7092904720     2.0000000000
Ni     -6.1433728650     0.7092904720     2.0000000000
Ni      2.4570542700     2.8371618880     2.0000000000
Ni     -4.9148457300     2.8371618880     2.0000000000
Ni      0.0000000000    -1.4185809440     2.0000000000
Ni     -7.3719000000    -1.4185809440     2.0000000000
Ni      3.6855814050     0.7092904720     2.0000000000
Ni     -3.6863185950     0.7092904720     2.0000000000
Ni      4.9141085400     2.8371618880     2.0000000000
Ni     -2.4577914600     2.8371618880     2.0000000000
Ni      2.4570542700    -1.4185809440     2.0000000000
Ni     -4.9148457300    -1.4185809440     2.0000000000
Ni      6.1433728650     0.7092904720     2.0000000000
Ni     -1.2285271350     0.7092904720     2.0000000000
Ni      7.3719000000     2.8371618880     2.0000000000
Ni      0.0000000000     2.8371618880     2.0000000000
Ni      4.9148457300    -1.4185809440     2.0000000000
Ni     -2.4570542700    -1.4185809440     2.0000000000
Ni      0.0453804114    -0.0259943752     3.9916840478
Ni     -7.3148120501    -0.0166620777     4.0075782968
Ni      1.2672422238     2.1065388388     3.9973635932
Ni     -6.0989433996     2.1054384303     4.0306013707
Ni     -1.1858359442    -2.1522006303     3.9886534010
Ni     -8.5493462503    -2.1627126725     4.0031539798
Ni      2.5050618897    -0.0268504816     3.9932911104
Ni     -4.8758543338    -0.0218818795     4.0260131873
Ni      3.7364475425     2.1054184028     3.9968565092
Ni     -3.6402376078     2.1082748865     4.0197691645
Ni      1.2719725615    -2.1574552027     3.9987535854
Ni     -6.0967760863    -2.1496036168     4.0051671358
Ni      4.9721640311    -0.0265839638     3.9975050896
Ni     -2.4201748403    -0.0201067661     3.9968558545
Ni      6.1911466150     2.1078282086     4.0110716450
Ni     -1.1920982218     2.1106175705     3.9986831256
Ni      3.7327966907    -2.1644255578     4.0008452196
Ni     -3.6525522252    -2.1473125494     3.9999582980
Ni      1.2305826896     0.7117027267     5.9954983401
Ni     -6.1110010256     0.7401753795     6.0943782168
Ni      2.4600538725     2.8380202531     5.9921370722
Ni     -4.9124280726     2.8229423778     6.0642904716
Ni     -0.0034498820    -1.4176311857     6.0021993122
Ni     -7.3651744691    -1.4080942268     6.0055249996
Ni      3.6858639101     0.7107414768     5.9917217047
Ni     -3.6867781427     0.7190913188     6.0356899543
Ni      4.9299043853     2.8319157423     6.0461422991
Ni     -2.4652917036     2.8378137473     6.0537376428
Ni      2.4554359731    -1.4197683933     5.9989498691
Ni     -4.9077009163    -1.3869515021     6.0604880465
Ni      6.1588106510     0.7210804347     6.0232138599
Ni     -1.2227736401     0.7193589058     5.9897557603
Ni      7.3706792275     2.8177675559     6.0824884903
Ni     -0.0069482042     2.8486524478     6.0051862515
Ni      4.9216405266    -1.4260207089     5.9903968367
Ni     -2.4597042036    -1.4225018534     5.9891318842
Ni      0.0527414601    -0.0181034243     8.0011840467
Ni     -7.3049410091    -0.0318863474     7.9911461802
Ni      1.2677513716     2.1091027850     7.9975953157
Ni      8.5852168668     2.2220740404     8.1798844063
Ni     -1.1811554943    -2.1617371172     7.9997914368
Ni     -8.5479689483    -2.0992876365     7.9860257679
Ni      2.4771374724    -0.0061095164     8.0072179675
Ni     -4.8233244495    -0.0297521376     8.2092153397
Ni      3.6847198691     2.1124899237     7.9876518231
Ni     -3.5688871974     2.1266112810     8.1391010767
Ni      1.2531064743    -2.1278084498     8.0066711347
Ni     -6.0810301547    -2.1328040538     8.0090241524
Ni      4.9208975798    -0.0216189643     7.9663063156
Ni     -2.3416305721    -0.0619135853     7.9479925157
Ni      6.1327067088     2.0949523438     8.1475095011
Ni     -1.1510626185     2.1061831424     8.0157343055
Ni      3.6904041899    -2.0824300569     7.9907627840
Ni     -3.6248136327    -2.1598144958     8.0223259428
O       6.2117690170     1.6424763454    10.0651978977
H       9.0603614188     2.2921132934     9.7998621072
H       8.3436813967     2.7422347322     9.7454410739
H       1.8818591048    -3.0317155185    10.9430001168
C       6.1351214598     2.4170189324    11.0380680880
O       7.3439280615     0.7528703252    12.2686723859
H      -7.4811916786     0.4346064811    11.3395769046
C       6.7497028071     2.0327897289    12.3426092017
H       5.9008366157     2.0612598692    13.0614911762
C       7.6532333806     3.1356174058    12.9916751666
H       3.5204874063    -2.2420482402    12.8632266740
H       8.6464670525     3.1390477509    12.5177950759
O       7.7255289735     2.8156455346    14.3850793760
H       8.3670922548     3.4048021278    14.8184004581
O      -4.1356169628     1.1037163684     9.6673817194
H      -3.3923495432     0.7793483073    10.2140359638
88
Step 3 | NEB Image 3 | Cartesian Angstrom
Ni      1.2285271350     0.7092904720     2.0000000000
Ni     -6.1433728650     0.7092904720     2.0000000000
Ni      2.4570542700     2.8371618880     2.0000000000
Ni     -4.9148457300     2.8371618880     2.0000000000
Ni      0.0000000000    -1.4185809440     2.0000000000
Ni     -7.3719000000    -1.4185809440     2.0000000000
Ni      3.6855814050     0.7092904720     2.0000000000
Ni     -3.6863185950     0.7092904720     2.0000000000
Ni      4.9141085400     2.8371618880     2.0000000000
Ni     -2.4577914600     2.8371618880     2.0000000000
Ni      2.4570542700    -1.4185809440     2.0000000000
Ni     -4.9148457300    -1.4185809440     2.0000000000
Ni      6.1433728650     0.7092904720     2.0000000000
Ni     -1.2285271350     0.7092904720     2.0000000000
Ni      7.3719000000     2.8371618880     2.0000000000
Ni      0.0000000000     2.8371618880     2.0000000000
Ni      4.9148457300    -1.4185809440     2.0000000000
Ni     -2.4570542700    -1.4185809440     2.0000000000
Ni      0.0346144610    -0.0170497084     3.9971307204
Ni     -7.3357078899    -0.0240437127     4.0009425215
Ni      1.2551737179     2.1069943004     3.9979516887
Ni     -6.0998323090     2.1092039616     3.9966152155
Ni     -1.1940262464    -2.1466750370     3.9958002153
Ni     -8.5666950682    -2.1412484824     4.0105755560
Ni      2.4942650582    -0.0123096407     4.0026718153
Ni     -4.8761512735    -0.0235646725     3.9987815487
Ni      3.7177828643     2.1030882640     3.9986454169
Ni     -3.6503196939     2.1130322736     4.0107986102
Ni      1.2658539321    -2.1458062857     3.9926446174
Ni     -6.1130309605    -2.1537813841     4.0082598760
Ni      4.9497385753    -0.0177157992     4.0115726036
Ni     -2.4245456395    -0.0192132734     3.9971176393
Ni      6.1820726812     2.1061660029     3.9979535265
Ni     -1.2032725627     2.1132564061     4.0049588916
Ni      3.7247848310    -2.1378599599     3.9864099518
Ni     -3.6524094548    -2.1529359707     3.9957375526
Ni      1.2152223865     0.7199843761     6.0147921663
Ni     -6.1682233735     0.7111928329     6.0078119256
Ni      2.4315321891     2.8473252049     5.9925056903
Ni     -4.9057990761     2.8510817558     6.0239536015
Ni     -0.0249697238    -1.4030544927     6.0029810196
Ni     -7.3724453007    -1.3892460284     6.0442866148
Ni      3.6871003811     0.7132567071     6.0477932102
Ni     -3.7033378352     0.7366641232     6.0225639966
Ni      4.8910831743     2.8562187353     5.9934265607
Ni     -2.4914968218     2.8345947859     6.0717319164
Ni      2.4371674164    -1.3999320915     6.0014429561
Ni     -4.9260060352    -1.4219058561     6.0069043639
Ni      6.1307758730     0.7124417865     6.0130875192
Ni     -1.2452981867     0.7231104631     6.0033255344
Ni      7.3642175477     2.8629357702     5.9776479416
Ni     -0.0265111617     2.8447666199     6.0158060819
Ni      4.9123901213    -1.3875231566     6.0376367566
Ni     -2.4870290018    -1.4091569323     6.0021669921
Ni      0.0065110076     0.0003375016     8.0105285974
Ni     -7.3271618332    -0.0080483065     8.1392186485
Ni      1.2393365976     2.1208663708     8.0131991355
Ni      8.6207570726     2.1497021546     7.9225484505
Ni     -1.2216935241    -2.1301204292     7.9988439203
Ni     -8.5803661423    -2.1413725608     8.0024315512
Ni      2.4582391107     0.0013571567     8.0269721984
Ni     -4.8885668506    -0.0345365291     7.9688661257
Ni      3.6516065656     2.1653502136     7.9761928102
Ni     -3.6706370833     2.1011754904     8.1811910318
Ni      1.2239554246    -2.1060085887     8.0013919407
Ni     -6.1201359634    -2.1301685177     8.0339237646
Ni      4.9014311582    -0.0131934341     8.1642866230
Ni     -2.4246534380    -0.0252541105     7.9797432740
Ni      6.1591962468     2.1895889839     7.9560571580
Ni     -1.1983275744     2.1120335833     8.0282145624
Ni      3.6943124741    -2.1003234463     7.9916753180
Ni     -3.6715568868    -2.1451065149     8.0222791007
O       6.1471122324     0.9307065695     9.3999387128
H      10.3426575624     2.6459575089    10.6294826623
H       6.8956181609     2.4867075217    10.5704206103
H       1.5163046806    -4.3144405043    10.8714009183
C       6.1920936267     1.6304858123    10.6702282243
O       7.1747277555    -0.3125372120    11.5741941777
H      -7.5656455776    -0.5525290018    10.5873331242
C       6.6708288792     0.8501858186    11.8410802915
H       6.6275142439     3.4109262463    12.9484883531
C       7.5881982008     3.7025287468    13.3907546261
H       3.9244730324    -1.5866737076    13.5092839925
H       8.3894045227     3.4094632667    12.6841600991
O       7.7023393405     3.0149669486    14.6367109154
H       8.2623800522     3.5412607755    15.2280251312
O      -4.0622601542     1.8103333554    10.2550280441
H      -3.2418330399     1.5898572892    10.7347201441
88
Step 4 | NEB Image 4 | Cartesian Angstrom
Ni      1.2285271350     0.7092904720     2.0000000000
Ni     -6.1433728650     0.7092904720     2.0000000000
Ni      2.4570542700     2.8371618880     2.0000000000
Ni     -4.9148457300     2.8371618880     2.0000000000
Ni      0.0000000000    -1.4185809440     2.0000000000
Ni     -7.3719000000    -1.4185809440     2.0000000000
Ni      3.6855814050     0.7092904720     2.0000000000
Ni     -3.6863185950     0.7092904720     2.0000000000
Ni      4.9141085400     2.8371618880     2.0000000000
Ni     -2.4577914600     2.8371618880     2.0000000000
Ni      2.4570542700    -1.4185809440     2.0000000000
Ni     -4.9148457300    -1.4185809440     2.0000000000
Ni      6.1433728650     0.7092904720     2.0000000000
Ni     -1.2285271350     0.7092904720     2.0000000000
Ni      7.3719000000     2.8371618880     2.0000000000
Ni      0.0000000000     2.8371618880     2.0000000000
Ni      4.9148457300    -1.4185809440     2.0000000000
Ni     -2.4570542700    -1.4185809440     2.0000000000
Ni      0.0362158339    -0.0139140753     3.9984688466
Ni     -7.3380552508    -0.0121846128     4.0002422829
Ni      1.2614388428     2.1117226820     3.9982847032
Ni     -6.1063312664     2.1178313407     3.9995996556
Ni     -1.1925043096    -2.1403976379     3.9982665428
Ni     -8.5690039704    -2.1403718610     4.0030082536
Ni      2.4961433389    -0.0094908199     4.0037231769
Ni     -4.8769305599    -0.0126350030     3.9963487027
Ni      3.7227899751     2.1108235234     4.0062317842
Ni     -3.6525818625     2.1162186280     4.0081687266
Ni      1.2641390003    -2.1442605559     3.9997424668
Ni     -6.1085207888    -2.1458018560     3.9973320233
Ni      4.9511609542    -0.0114882902     4.0123872774
Ni     -2.4259886327    -0.0123224712     3.9993045754
Ni      6.1794671167     2.1145743514     4.0072003235
Ni     -1.1980934648     2.1163631215     3.9991360810
Ni      3.7196914295    -2.1380757948     3.9911693967
Ni     -3.6479274462    -2.1447599541     3.9926464055
Ni      1.2131914581     0.7298856980     6.0133511665
Ni     -6.1661404140     0.7191293575     6.0120202393
Ni      2.4383838787     2.8561182795     5.9986364398
Ni     -4.9084143281     2.8507767903     6.0247632167
Ni     -0.0195308423    -1.3975992159     6.0097973035
Ni     -7.3793875154    -1.3822202819     6.0116736517
Ni      3.6830183208     0.7230622995     6.0486614153
Ni     -3.7003760410     0.7479889317     6.0367756856
Ni      4.9019350252     2.8586241532     6.0267128476
Ni     -2.4868707437     2.8468315567     6.0393101673
Ni      2.4346971183    -1.3931899757     6.0051257408
Ni     -4.9204344585    -1.4047338874     5.9956500359
Ni      6.1263305886     0.7309889290     6.0266836422
Ni     -1.2455524018     0.7296527536     6.0008423030
Ni      7.3591508619     2.8578669053     6.0078036771
Ni     -0.0212354405     2.8597064163     6.0056472809
Ni      4.9037315025    -1.3855315905     6.0232626977
Ni     -2.4810138427    -1.3980607288     6.0046279013
Ni      0.0030759360     0.0136497601     8.0129028742
Ni     -7.3288954934    -0.0142298548     8.1150140040
Ni      1.2382240839     2.1343758663     8.0096800397
Ni      8.6321263153     2.1525944130     7.9533209272
Ni     -1.2188728598    -2.1196463128     8.0049623216
Ni     -8.5903965727    -2.1381415773     7.9658073203
Ni      2.4504780763     0.0124551254     8.0271130016
Ni     -4.8856652282    -0.0145211621     7.9841096301
Ni      3.6541196645     2.1670481818     7.9950184858
Ni     -3.6640301905     2.1211910998     8.1797993468
Ni      1.2248793742    -2.0981999125     8.0191461410
Ni     -6.1143898649    -2.1164545434     7.9870820812
Ni      4.8945835891    -0.0163510513     8.1320415093
Ni     -2.4242776282    -0.0139350503     7.9935934203
Ni      6.1633137516     2.2001134482     8.0593895958
Ni     -1.1934871805     2.1280359875     7.9982465378
Ni      3.6871089263    -2.0999378003     7.9961476296
Ni     -3.6709891894    -2.1280862596     8.0169205607
O       6.1698660902     0.8152711642     9.3968769821
H      10.9811087033     3.0587615572    10.5701502954
H       6.9332330462     1.8818612066    11.0210461599
H       1.6866546644    -5.3154909342    11.2938682485
C       6.3554351839     0.9590708602    10.8124927154
O       7.7946869879    -0.9728033205    10.8726952961
H      -6.9021659210    -0.9092621089     9.6972258522
C       7.1269193404    -0.1176753452    11.5094044267
H       8.1884358288     4.2709298934    11.8003684509
C       8.4009784693     4.3099463366    12.8785783596
H       3.8963746553    -1.5237985866    13.3733705805
H       9.3431171263     4.8640527131    13.0270311773
O       8.4926325611     2.9534246637    13.3306641089
H       8.8769115930     2.9567148122    14.2231783461
O      -3.7171104388     2.1262370312    10.2772443300
H      -2.8210873468     1.8173936543    10.5172604631
88
Step 5 | NEB Image 5 | Cartesian Angstrom
Ni      1.2285271350     0.7092904720     2.0000000000
Ni     -6.1433728650     0.7092904720     2.0000000000
Ni      2.4570542700     2.8371618880     2.0000000000
Ni     -4.9148457300     2.8371618880     2.0000000000
Ni      0.0000000000    -1.4185809440     2.0000000000
Ni     -7.3719000000    -1.4185809440     2.0000000000
Ni      3.6855814050     0.7092904720     2.0000000000
Ni     -3.6863185950     0.7092904720     2.0000000000
Ni      4.9141085400     2.8371618880     2.0000000000
Ni     -2.4577914600     2.8371618880     2.0000000000
Ni      2.4570542700    -1.4185809440     2.0000000000
Ni     -4.9148457300    -1.4185809440     2.0000000000
Ni      6.1433728650     0.7092904720     2.0000000000
Ni     -1.2285271350     0.7092904720     2.0000000000
Ni      7.3719000000     2.8371618880     2.0000000000
Ni      0.0000000000     2.8371618880     2.0000000000
Ni      4.9148457300    -1.4185809440     2.0000000000
Ni     -2.4570542700    -1.4185809440     2.0000000000
Ni      0.0464326620    -0.0306468460     3.9976675890
Ni     -7.3257303870    -0.0255862300     3.9933782980
Ni      1.2739848450     2.0960038070     3.9979157030
Ni     -6.1026021170     2.1049500680     4.0019149180
Ni     -1.1827110610    -2.1546561820     3.9989053170
Ni     -8.5597082650    -2.1592869340     3.9982394010
Ni      2.5024778430    -0.0256743600     4.0031952220
Ni     -4.8641413240    -0.0227350050     3.9956475690
Ni      3.7346756480     2.0985190290     4.0083618800
Ni     -3.6458198020     2.0991473590     4.0056686860
Ni      1.2703768650    -2.1597674920     4.0015811390
Ni     -6.0933336510    -2.1603781540     3.9902680500
Ni      4.9590538200    -0.0289845540     4.0074783820
Ni     -2.4167678920    -0.0248088220     4.0022401470
Ni      6.1885777810     2.1026461420     4.0098077600
Ni     -1.1844811720     2.0985803670     3.9964394390
Ni      3.7245308300    -2.1560713310     3.9888953010
Ni     -3.6351397940    -2.1574140910     3.9933365850
Ni      1.2278611130     0.7073057200     6.0134419810
Ni     -6.1428898530     0.6957346210     6.0102358510
Ni      2.4563605190     2.8356121920     5.9987058000
Ni     -4.8924583120     2.8187736320     6.0264580820
Ni      0.0002252210    -1.4241376010     6.0155868270
Ni     -7.3667991100    -1.4101212980     5.9895528060
Ni      3.6921281460     0.7008202940     6.0360645010
Ni     -3.6779272240     0.7256007260     6.0512861550
Ni      4.9267336850     2.8309168990     6.0432780270
Ni     -2.4664659500     2.8157315660     6.0151173370
Ni      2.4509011280    -1.4197685090     6.0062316800
Ni     -4.8985683740    -1.4191884620     5.9881596610
Ni      6.1372839650     0.7115480370     6.0073921100
Ni     -1.2256557510     0.7019370040     6.0032560690
Ni      7.3730564330     2.8242126570     6.0269074010
Ni     -0.0034566730     2.8405670140     6.0010880700
Ni      4.9162369820    -1.4189308570     6.0083232610
Ni     -2.4596272260    -1.4182314770     6.0084483810
Ni      0.0277268390    -0.0168450280     8.0180888710
Ni     -7.3091221710    -0.0327920680     8.0371701400
Ni      1.2611452740     2.1078740620     8.0062525300
Ni      8.6667549770     2.1138793650     7.9801313330
Ni     -1.1942402360    -2.1496555940     8.0109921590
Ni     -8.5668484660    -2.1735761150     7.9430911750
Ni      2.4712577410    -0.0190631580     8.0243063390
Ni     -4.8670711400    -0.0431110720     7.9967287920
Ni      3.6750137580     2.1321536040     7.9940007810
Ni     -3.6274773380     2.0999917070     8.2089215290
Ni      1.2517815200    -2.1329879940     8.0267060850
Ni     -6.0785108950    -2.1534189890     7.9361595560
Ni      4.9123316280    -0.0512787390     8.0829089500
Ni     -2.4007725170    -0.0429334740     8.0081832520
Ni      6.1908597070     2.1505617180     8.1094472440
Ni     -1.1654360560     2.0989982700     7.9806126390
Ni      3.7077660390    -2.1419918620     7.9975968800
Ni     -3.6463297530    -2.1524111230     8.0158878220
O       6.1707187590     0.6663307040     9.3727337630
H      11.2555922500     3.1706166680    10.5266232770
H       7.1149227860     1.0824741990    11.1550798120
H       1.6297081310    -5.3793991980    11.2177269450
C       6.2238707100     0.5353136510    10.8108846880
O       7.5718415080    -1.5277099790    10.9241884940
H      -6.8828388710    -1.2337967880    10.0124245870
C       6.2850334910    -0.9302036460    11.2182633770
H       9.1791669060     4.9099545600    10.6626973770
C       9.7467965870     5.2786349730    12.7161077750
H       5.0959169980    -0.6608682970    12.9933131080
H      10.5457770910     5.8077082870    13.2666670860
O       9.6783811350     3.9068622240    13.1006105230
H      10.5447055700     3.5019751520    12.9206205020
O      -3.5153567700     2.2005093110    10.2599052050
H      -2.6227032800     1.8412518110    10.4321503050
