88
Step 1 | NEB Image 1 | Cartesian Angstrom
Ni      1.2285271350     0.7092904720     2.0000000000
Ni     -6.1433728650     0.7092904720     2.0000000000
Ni      2.4570542700     2.8371618880     2.0000000000
Ni     -4.9148457300     2.8371618880     2.0000000000
Ni      0.0000000000    -1.4185809440     2.0000000000
Ni     -7.3719000000    -1.4185809440     2.0000000000
Ni      3.6855814050     0.7092904720     2.0000000000
Ni     -3.6863185950     0.7092904720     2.0000000000
Ni      4.9141085400     2.8371618880     2.0000000000
Ni     -2.4577914600     2.8371618880     2.0000000000
Ni      2.4570542700    -1.4185809440     2.0000000000
Ni     -4.9148457300    -1.4185809440     2.0000000000
Ni      6.1433728650     0.7092904720     2.0000000000
Ni     -1.2285271350     0.7092904720     2.0000000000
Ni      7.3719000000     2.8371618880     2.0000000000
Ni      0.0000000000     2.8371618880     2.0000000000
Ni      4.9148457300    -1.4185809440     2.0000000000
Ni     -2.4570542700    -1.4185809440     2.0000000000
Ni      0.0345187234    -0.0219895959     3.9906686506
Ni     -7.3332872529    -0.0205271350     3.9970929970
Ni      1.2574298371     2.1090479016     3.9981086770
Ni     -6.1061214153     2.1042281316     4.0017605185
Ni     -1.1958375155    -2.1495425789     3.9888614873
Ni     -8.5615731291    -2.1597422030     3.9935633301
Ni      2.4909200515    -0.0209290578     3.9889124626
Ni     -4.8775455868    -0.0288695998     4.0155932973
Ni      3.7235299523     2.1102350339     3.9932622384
Ni     -3.6483031855     2.1055811522     4.0174271749
Ni      1.2597529797    -2.1544756242     3.9969618463
Ni     -6.1074652262    -2.1506208434     4.0019689283
Ni      4.9550771908    -0.0234645643     3.9935565644
Ni     -2.4269867653    -0.0199772708     3.9982338911
Ni      6.1741097051     2.1083418571     4.0046158614
Ni     -1.1996729370     2.1123145435     4.0000024585
Ni      3.7197951829    -2.1539414756     3.9921760547
Ni     -3.6589301935    -2.1514998115     3.9994955107
Ni      1.2136841869     0.7163863979     5.9963073096
Ni     -6.1473437226     0.7096773911     6.0218176054
Ni      2.4453295017     2.8415084524     5.9971730433
Ni     -4.9231971923     2.8360653972     6.0327934449
Ni     -0.0226348385    -1.4110330430     6.0020236029
Ni     -7.3908667378    -1.4145678834     5.9981301391
Ni      3.6669417345     0.7157583701     5.9869138182
Ni     -3.7108784987     0.7190435175     6.0328517480
Ni      4.9057976617     2.8388244163     6.0411982092
Ni     -2.4814248435     2.8298458387     6.0521186228
Ni      2.4355069788    -1.4085502466     5.9888639843
Ni     -4.9252928465    -1.4026264080     6.0548563839
Ni      6.1341025786     0.7315238745     6.0218817427
Ni     -1.2402669783     0.7221835538     5.9926808095
Ni      7.3408175190     2.8291688103     6.0248565089
Ni     -0.0225097209     2.8466795557     6.0142376281
Ni      4.9088271165    -1.4251457534     5.9900387779
Ni     -2.4790699264    -1.4211153466     5.9913638200
Ni      0.0337137405    -0.0099863123     8.0038502320
Ni     -7.3606520147    -0.0334139511     7.9835827732
Ni      1.2525382386     2.1076756093     8.0014158677
Ni      8.5596645315     2.1514300915     7.9633346422
Ni     -1.1983605499    -2.1613845897     8.0018652759
Ni     -8.5927669864    -2.1264268734     8.0165035337
Ni      2.4708324722    -0.0109047600     8.0065027389
Ni     -4.8995212632    -0.0584838282     8.1493062015
Ni      3.6789469906     2.1047412898     7.9888648741
Ni     -3.6333178494     2.1270714900     8.1546283531
Ni      1.2394335961    -2.1164979174     7.9892760222
Ni     -6.1305722611    -2.1461024656     7.9989212299
Ni      4.9150163145    -0.0283439881     7.9490640309
Ni     -2.3653823178    -0.0601929248     7.9425724452
Ni      6.1349712758     2.1197335004     8.1598232492
Ni     -1.1861990586     2.1067384809     8.0263285947
Ni      3.6953023012    -2.1157302873     7.9694462946
Ni     -3.6468332403    -2.1628724713     8.0264725749
O       5.9486020032     1.9536774433    10.1568983318
H       6.2023593986     1.0444615420    10.4395396161
H       7.6485803319     2.9982816350    10.7947394844
H       2.3841835216    -2.5662265370    10.9995346326
C       6.5922936452     2.8570131008    11.0871865803
O       6.8828593053     0.8516013498    12.3925733789
H      -6.8879959571     0.8254517200    12.3248078773
C       6.4620997723     2.2299052156    12.4710261049
H       5.3979785171     2.1706601767    12.7461907790
C       7.1981974178     3.0342299686    13.5247288963
H       3.2389656514    -2.2859498111    13.4051121917
H       8.2901195875     2.9478942375    13.3576433856
O       6.8260697992     2.5426661176    14.8120038538
H       7.2522042786     3.0948827032    15.4870039972
O      -4.3927237137     1.0982075682     9.5865509607
H      -3.6717371060     0.6667680985    10.0888232085
88
Step 2 | NEB Image 2 | Cartesian Angstrom
Ni      1.2285271350     0.7092904720     2.0000000000
Ni     -6.1433728650     0.7092904720     2.0000000000
Ni      2.4570542700     2.8371618880     2.0000000000
Ni     -4.9148457300     2.8371618880     2.0000000000
Ni      0.0000000000    -1.4185809440     2.0000000000
Ni     -7.3719000000    -1.4185809440     2.0000000000
Ni      3.6855814050     0.7092904720     2.0000000000
Ni     -3.6863185950     0.7092904720     2.0000000000
Ni      4.9141085400     2.8371618880     2.0000000000
Ni     -2.4577914600     2.8371618880     2.0000000000
Ni      2.4570542700    -1.4185809440     2.0000000000
Ni     -4.9148457300    -1.4185809440     2.0000000000
Ni      6.1433728650     0.7092904720     2.0000000000
Ni     -1.2285271350     0.7092904720     2.0000000000
Ni      7.3719000000     2.8371618880     2.0000000000
Ni      0.0000000000     2.8371618880     2.0000000000
Ni      4.9148457300    -1.4185809440     2.0000000000
Ni     -2.4570542700    -1.4185809440     2.0000000000
Ni      0.0381458159    -0.0156446195     3.9917874751
Ni     -7.3192062412    -0.0069448265     4.0057668957
Ni      1.2606260844     2.1175781584     3.9960420591
Ni     -6.1045938794     2.1161912519     4.0286686940
Ni     -1.1917662047    -2.1404007024     3.9885387032
Ni     -8.5552354078    -2.1506060569     4.0018785658
Ni      2.4963428770    -0.0171498865     3.9914879601
Ni     -4.8785001788    -0.0096819669     4.0267349402
Ni      3.7283850301     2.1151753718     3.9953170434
Ni     -3.6437863746     2.1194851416     4.0185910376
Ni      1.2646631738    -2.1473268837     3.9998250171
Ni     -6.1010181681    -2.1365674059     4.0056661045
Ni      4.9648711648    -0.0185616769     3.9970886215
Ni     -2.4256908077    -0.0074817268     3.9992112119
Ni      6.1820688203     2.1169772713     4.0054090725
Ni     -1.1965556562     2.1226732527     3.9982075313
Ni      3.7257291130    -2.1534162594     4.0001230910
Ni     -3.6567666617    -2.1344886762     4.0006198441
Ni      1.2206776666     0.7297643723     5.9939431221
Ni     -6.1182169961     0.7523358688     6.0900815027
Ni      2.4493610472     2.8562595564     5.9898603137
Ni     -4.9200002034     2.8423488038     6.0565581237
Ni     -0.0120887362    -1.4001836828     6.0054209133
Ni     -7.3759040173    -1.3935674279     6.0056289631
Ni      3.6743795921     0.7249890771     5.9870002823
Ni     -3.6958881540     0.7394277908     6.0417101022
Ni      4.9169026918     2.8478968010     6.0431977962
Ni     -2.4701723962     2.8589181773     6.0495400236
Ni      2.4432617800    -1.4035253064     5.9994897397
Ni     -4.9125764768    -1.3668739878     6.0620920582
Ni      6.1477702812     0.7348399301     6.0139788724
Ni     -1.2306839815     0.7389045941     5.9908096165
Ni      7.3538200984     2.8316322048     6.0704277201
Ni     -0.0140220786     2.8697483290     6.0044344357
Ni      4.9108561238    -1.4154773828     5.9945056713
Ni     -2.4659276920    -1.4028821029     5.9911447407
Ni      0.0429350046     0.0031814716     8.0020838835
Ni     -7.3190168887    -0.0162130225     7.9837482974
Ni      1.2554548217     2.1290892627     7.9961923123
Ni      8.5711748290     2.2235972669     8.1477784593
Ni     -1.1902143414    -2.1423028029     8.0030716832
Ni     -8.5596221808    -2.0841683371     8.0003564085
Ni      2.4634508098     0.0104350234     8.0045019465
Ni     -4.8179622992    -0.0100377525     8.2392411392
Ni      3.6671195402     2.1285696752     7.9814485229
Ni     -3.5806201868     2.1651345932     8.1339122817
Ni      1.2418804868    -2.1145211759     8.0135329328
Ni     -6.0847989608    -2.1033629251     8.0081452355
Ni      4.9062016585    -0.0112691728     7.9559415250
Ni     -2.3462714824    -0.0397383703     7.9491459150
Ni      6.1079288659     2.1087843205     8.1430790755
Ni     -1.1610545147     2.1329093642     8.0117984694
Ni      3.6726968619    -2.0755139383     7.9873199156
Ni     -3.6308528987    -2.1369874850     8.0265069964
O       6.1198337477     1.5092448756    10.0578088903
H       9.0462036768     2.6323731838     9.6637811311
H       8.2621613607     2.2587587075     9.7355695110
H       1.5997840792    -3.3360059109    11.0791905419
C       5.9690184496     2.1876149245    11.0901179058
O       7.3741006894     0.5802993344    12.1906563040
H      -7.4897688726     0.2790472350    11.2609993721
C       6.6813020359     1.8022767297    12.3460497348
H       5.8889114058     1.7324239511    13.1225718507
C       7.5494904051     2.9654786260    12.9334086070
H       3.4110628708    -2.4343880411    12.7041605302
H       8.5500099906     2.9291965302    12.4769004457
O       7.6088480812     2.7724869730    14.3508950350
H       8.2510704676     3.3976445824    14.7299614852
O      -4.0825559184     1.1313389960     9.6566190289
H      -3.2863171854     0.8550237793    10.1533693800
88
Step 3 | NEB Image 3 | Cartesian Angstrom
Ni      1.2285271350     0.7092904720     2.0000000000
Ni     -6.1433728650     0.7092904720     2.0000000000
Ni      2.4570542700     2.8371618880     2.0000000000
Ni     -4.9148457300     2.8371618880     2.0000000000
Ni      0.0000000000    -1.4185809440     2.0000000000
Ni     -7.3719000000    -1.4185809440     2.0000000000
Ni      3.6855814050     0.7092904720     2.0000000000
Ni     -3.6863185950     0.7092904720     2.0000000000
Ni      4.9141085400     2.8371618880     2.0000000000
Ni     -2.4577914600     2.8371618880     2.0000000000
Ni      2.4570542700    -1.4185809440     2.0000000000
Ni     -4.9148457300    -1.4185809440     2.0000000000
Ni      6.1433728650     0.7092904720     2.0000000000
Ni     -1.2285271350     0.7092904720     2.0000000000
Ni      7.3719000000     2.8371618880     2.0000000000
Ni      0.0000000000     2.8371618880     2.0000000000
Ni      4.9148457300    -1.4185809440     2.0000000000
Ni     -2.4570542700    -1.4185809440     2.0000000000
Ni      0.0301618513    -0.0094961297     3.9965521621
Ni     -7.3402670484    -0.0147957976     4.0000549951
Ni      1.2522301770     2.1144825794     3.9966303449
Ni     -6.1043440463     2.1174550618     3.9976144510
Ni     -1.1976959243    -2.1383951407     3.9951005767
Ni     -8.5705046321    -2.1357352698     4.0088881184
Ni      2.4903383010    -0.0054600242     4.0016860517
Ni     -4.8809695158    -0.0147154497     3.9979715715
Ni      3.7155419483     2.1111815729     3.9984918587
Ni     -3.6549046237     2.1200753720     4.0104584994
Ni      1.2614204934    -2.1389329311     3.9934675170
Ni     -6.1158772398    -2.1451916185     4.0050263265
Ni      4.9465804377    -0.0109696395     4.0108894374
Ni     -2.4292966899    -0.0111060287     3.9963914772
Ni      6.1784848010     2.1146948302     3.9995924892
Ni     -1.2062597809     2.1205269455     4.0023479363
Ni      3.7201786250    -2.1319668215     3.9859335017
Ni     -3.6556871959    -2.1443380546     3.9944366188
Ni      1.2064154192     0.7325741505     6.0134284367
Ni     -6.1772347613     0.7240915201     6.0095402055
Ni      2.4256582424     2.8598871532     5.9903460297
Ni     -4.9136908580     2.8599583456     6.0267444685
Ni     -0.0305793819    -1.3907851841     6.0039128929
Ni     -7.3826248369    -1.3769308099     6.0353447702
Ni      3.6768558156     0.7253983574     6.0435890781
Ni     -3.7109899018     0.7476466143     6.0243493564
Ni      4.8866468304     2.8678309600     5.9991510537
Ni     -2.4973018104     2.8493559831     6.0615615016
Ni      2.4298745794    -1.3887667933     6.0009815897
Ni     -4.9327176614    -1.4073599262     6.0047341170
Ni      6.1199796628     0.7295473392     6.0135300356
Ni     -1.2540053470     0.7355264264     6.0020351261
Ni      7.3572357143     2.8716450815     5.9844881137
Ni     -0.0324887006     2.8590686679     6.0118368964
Ni      4.9032939891    -1.3793529546     6.0328319692
Ni     -2.4928693516    -1.3964700264     6.0012403710
Ni     -0.0081230229     0.0187619396     8.0105861962
Ni     -7.3522455362     0.0066411674     8.1280753349
Ni      1.2276867541     2.1389104055     8.0103058362
Ni      8.6116623957     2.1614484175     7.9346883697
Ni     -1.2325247976    -2.1145325803     7.9978707009
Ni     -8.5900266123    -2.1284037796     7.9969632029
Ni      2.4400969458     0.0171101146     8.0254819853
Ni     -4.9064147300    -0.0162167263     7.9732204515
Ni      3.6387085511     2.1797215970     7.9730724747
Ni     -3.6791324776     2.1149939092     8.1679493342
Ni      1.2114076446    -2.0886425997     8.0059103216
Ni     -6.1324006559    -2.1108528840     8.0243815998
Ni      4.8793312318    -0.0089365614     8.1457993882
Ni     -2.4368373727    -0.0109116694     7.9809564396
Ni      6.1525351046     2.2139993087     7.9822266036
Ni     -1.2082156473     2.1314947825     8.0185656407
Ni      3.6803208072    -2.0893454951     7.9920508120
Ni     -3.6843989606    -2.1260781078     8.0207641660
O       6.0799331399     0.9315076805     9.3820882130
H      10.4926803972     2.8007972726    10.5513091153
H       6.7763208873     2.3125658419    10.7673552654
H       1.4057590613    -4.5780635462    10.9951076839
C       6.0954710189     1.4371760048    10.7320417325
O       7.1278653376    -0.5956362626    11.3492325047
H      -7.5834178871    -0.7027658255    10.3249657449
C       6.5934523232     0.4988313684    11.7776927816
H       6.4667612836     3.2496537289    13.1916208747
C       7.4550550690     3.6050586386    13.5113763262
H       3.8194600227    -1.6853321229    13.3672221509
H       8.2159482209     3.1250891549    12.8662302811
O       7.5936952885     3.2282745932    14.8813909229
H       8.3918209595     3.6500424415    15.2383218162
O      -3.9533262273     1.9193275555    10.2513076844
H      -3.0699947795     1.7713687681    10.6407623370
88
Step 4 | NEB Image 4 | Cartesian Angstrom
Ni      1.2285271350     0.7092904720     2.0000000000
Ni     -6.1433728650     0.7092904720     2.0000000000
Ni      2.4570542700     2.8371618880     2.0000000000
Ni     -4.9148457300     2.8371618880     2.0000000000
Ni      0.0000000000    -1.4185809440     2.0000000000
Ni     -7.3719000000    -1.4185809440     2.0000000000
Ni      3.6855814050     0.7092904720     2.0000000000
Ni     -3.6863185950     0.7092904720     2.0000000000
Ni      4.9141085400     2.8371618880     2.0000000000
Ni     -2.4577914600     2.8371618880     2.0000000000
Ni      2.4570542700    -1.4185809440     2.0000000000
Ni     -4.9148457300    -1.4185809440     2.0000000000
Ni      6.1433728650     0.7092904720     2.0000000000
Ni     -1.2285271350     0.7092904720     2.0000000000
Ni      7.3719000000     2.8371618880     2.0000000000
Ni      0.0000000000     2.8371618880     2.0000000000
Ni      4.9148457300    -1.4185809440     2.0000000000
Ni     -2.4570542700    -1.4185809440     2.0000000000
Ni      0.0397702871    -0.0212083044     3.9998269894
Ni     -7.3373139037    -0.0166123186     4.0029507413
Ni      1.2684088945     2.1051413262     3.9970214232
Ni     -6.1057457944     2.1105505673     4.0017711401
Ni     -1.1878868919    -2.1459208032     3.9990155171
Ni     -8.5624181278    -2.1456570458     4.0047575638
Ni      2.5010429941    -0.0139505438     4.0048744893
Ni     -4.8768867781    -0.0158347396     3.9985087404
Ni      3.7279992010     2.1073071335     4.0087088229
Ni     -3.6512045842     2.1082450109     4.0050261631
Ni      1.2701122889    -2.1511013704     4.0025782141
Ni     -6.1044900243    -2.1501979378     3.9974062533
Ni      4.9556453009    -0.0164381181     4.0122879680
Ni     -2.4254085661    -0.0175499663     3.9998442352
Ni      6.1831769349     2.1086080367     4.0088218202
Ni     -1.1928322838     2.1084502569     3.9957952618
Ni      3.7233675243    -2.1420893180     3.9920414336
Ni     -3.6444247824    -2.1487254335     3.9908781159
Ni      1.2175740276     0.7219420832     6.0125685420
Ni     -6.1622936460     0.7068131710     6.0195484729
Ni      2.4462044886     2.8477644810     6.0003685031
Ni     -4.9035784245     2.8389600907     6.0215797311
Ni     -0.0107720949    -1.4087016593     6.0108290911
Ni     -7.3763297020    -1.3910331026     6.0153731637
Ni      3.6889644493     0.7143345443     6.0494507051
Ni     -3.7032525344     0.7294144728     6.0455523417
Ni      4.9136579881     2.8461382277     6.0341422558
Ni     -2.4778596543     2.8301551460     6.0146413264
Ni      2.4402529431    -1.3998291963     6.0076429344
Ni     -4.9135895060    -1.4136635801     5.9937759564
Ni      6.1335508581     0.7222525658     6.0343333502
Ni     -1.2442813274     0.7189249303     5.9992441836
Ni      7.3634479681     2.8493328979     6.0115355502
Ni     -0.0135498977     2.8505719462     5.9982957489
Ni      4.9082074178    -1.3963096187     6.0233152514
Ni     -2.4732612694    -1.4081183281     6.0030982247
Ni      0.0111233269    -0.0016166001     8.0105319814
Ni     -7.3549324405    -0.0042255648     8.1105515847
Ni      1.2464301941     2.1224760247     8.0088586197
Ni      8.6399037655     2.1382652356     7.9608393076
Ni     -1.2086769261    -2.1316451807     8.0050200293
Ni     -8.5987397634    -2.1573443542     7.9629845519
Ni      2.4518390207     0.0019822960     8.0295359721
Ni     -4.8899998210    -0.0380580224     8.0149333058
Ni      3.6629371557     2.1521467818     7.9995527404
Ni     -3.6634004481     2.0962006360     8.1499147696
Ni      1.2348762435    -2.1149692358     8.0236612040
Ni     -6.0965716268    -2.1817070466     7.9709173965
Ni      4.8905364636    -0.0319999918     8.1273004148
Ni     -2.4160638494    -0.0349636902     7.9963805418
Ni      6.1692647295     2.1806530043     8.0709991832
Ni     -1.1793922981     2.1072946997     7.9871645090
Ni      3.6861236789    -2.1166675860     7.9986330660
Ni     -3.6566384900    -2.1461414445     8.0119289203
O       6.1289397193     0.7786549343     9.4431817800
H      11.1856158991     3.1420028602    10.4655490621
H       6.8702178491     1.8613314909    11.0653810662
H       1.6037429658    -5.3239184540    11.3211114153
C       6.2781887914     0.9546499317    10.8500477634
O       7.5809629165    -1.1333943323    11.2523185870
H      -6.4106823898    -0.9824851060     8.9852794064
C       7.0044818029    -0.1497815362    11.5707031059
H       8.0385851527     4.3333070442    11.7566779830
C       8.2529522943     4.3000084254    12.8335951963
H       3.7360465106    -1.6028633389    13.3755429320
H       9.1764232596     4.8741325803    13.0230561938
O       8.4014572064     2.9182964215    13.1797767453
H       8.6429461373     2.8640102026    14.1190367798
O      -3.6453806953     2.1876801856    10.2554718901
H      -2.7720227715     1.7947268435    10.4554459965
88
Step 5 | NEB Image 5 | Cartesian Angstrom
Ni      1.2285271350     0.7092904720     2.0000000000
Ni     -6.1433728650     0.7092904720     2.0000000000
Ni      2.4570542700     2.8371618880     2.0000000000
Ni     -4.9148457300     2.8371618880     2.0000000000
Ni      0.0000000000    -1.4185809440     2.0000000000
Ni     -7.3719000000    -1.4185809440     2.0000000000
Ni      3.6855814050     0.7092904720     2.0000000000
Ni     -3.6863185950     0.7092904720     2.0000000000
Ni      4.9141085400     2.8371618880     2.0000000000
Ni     -2.4577914600     2.8371618880     2.0000000000
Ni      2.4570542700    -1.4185809440     2.0000000000
Ni     -4.9148457300    -1.4185809440     2.0000000000
Ni      6.1433728650     0.7092904720     2.0000000000
Ni     -1.2285271350     0.7092904720     2.0000000000
Ni      7.3719000000     2.8371618880     2.0000000000
Ni      0.0000000000     2.8371618880     2.0000000000
Ni      4.9148457300    -1.4185809440     2.0000000000
Ni     -2.4570542700    -1.4185809440     2.0000000000
Ni      0.0464326620    -0.0306468460     3.9976675890
Ni     -7.3257303870    -0.0255862300     3.9933782980
Ni      1.2739848450     2.0960038070     3.9979157030
Ni     -6.1026021170     2.1049500680     4.0019149180
Ni     -1.1827110610    -2.1546561820     3.9989053170
Ni     -8.5597082650    -2.1592869340     3.9982394010
Ni      2.5024778430    -0.0256743600     4.0031952220
Ni     -4.8641413240    -0.0227350050     3.9956475690
Ni      3.7346756480     2.0985190290     4.0083618800
Ni     -3.6458198020     2.0991473590     4.0056686860
Ni      1.2703768650    -2.1597674920     4.0015811390
Ni     -6.0933336510    -2.1603781540     3.9902680500
Ni      4.9590538200    -0.0289845540     4.0074783820
Ni     -2.4167678920    -0.0248088220     4.0022401470
Ni      6.1885777810     2.1026461420     4.0098077600
Ni     -1.1844811720     2.0985803670     3.9964394390
Ni      3.7245308300    -2.1560713310     3.9888953010
Ni     -3.6351397940    -2.1574140910     3.9933365850
Ni      1.2278611130     0.7073057200     6.0134419810
Ni     -6.1428898530     0.6957346210     6.0102358510
Ni      2.4563605190     2.8356121920     5.9987058000
Ni     -4.8924583120     2.8187736320     6.0264580820
Ni      0.0002252210    -1.4241376010     6.0155868270
Ni     -7.3667991100    -1.4101212980     5.9895528060
Ni      3.6921281460     0.7008202940     6.0360645010
Ni     -3.6779272240     0.7256007260     6.0512861550
Ni      4.9267336850     2.8309168990     6.0432780270
Ni     -2.4664659500     2.8157315660     6.0151173370
Ni      2.4509011280    -1.4197685090     6.0062316800
Ni     -4.8985683740    -1.4191884620     5.9881596610
Ni      6.1372839650     0.7115480370     6.0073921100
Ni     -1.2256557510     0.7019370040     6.0032560690
Ni      7.3730564330     2.8242126570     6.0269074010
Ni     -0.0034566730     2.8405670140     6.0010880700
Ni      4.9162369820    -1.4189308570     6.0083232610
Ni     -2.4596272260    -1.4182314770     6.0084483810
Ni      0.0277268390    -0.0168450280     8.0180888710
Ni     -7.3091221710    -0.0327920680     8.0371701400
Ni      1.2611452740     2.1078740620     8.0062525300
Ni      8.6667549770     2.1138793650     7.9801313330
Ni     -1.1942402360    -2.1496555940     8.0109921590
Ni     -8.5668484660    -2.1735761150     7.9430911750
Ni      2.4712577410    -0.0190631580     8.0243063390
Ni     -4.8670711400    -0.0431110720     7.9967287920
Ni      3.6750137580     2.1321536040     7.9940007810
Ni     -3.6274773380     2.0999917070     8.2089215290
Ni      1.2517815200    -2.1329879940     8.0267060850
Ni     -6.0785108950    -2.1534189890     7.9361595560
Ni      4.9123316280    -0.0512787390     8.0829089500
Ni     -2.4007725170    -0.0429334740     8.0081832520
Ni      6.1908597070     2.1505617180     8.1094472440
Ni     -1.1654360560     2.0989982700     7.9806126390
Ni      3.7077660390    -2.1419918620     7.9975968800
Ni     -3.6463297530    -2.1524111230     8.0158878220
O       6.1707187590     0.6663307040     9.3727337630
H      11.2555922500     3.1706166680    10.5266232770
H       7.1149227860     1.0824741990    11.1550798120
H       1.6297081310    -5.3793991980    11.2177269450
C       6.2238707100     0.5353136510    10.8108846880
O       7.5718415080    -1.5277099790    10.9241884940
H      -6.8828388710    -1.2337967880    10.0124245870
C       6.2850334910    -0.9302036460    11.2182633770
H       9.1791669060     4.9099545600    10.6626973770
C       9.7467965870     5.2786349730    12.7161077750
H       5.0959169980    -0.6608682970    12.9933131080
H      10.5457770910     5.8077082870    13.2666670860
O       9.6783811350     3.9068622240    13.1006105230
H      10.5447055700     3.5019751520    12.9206205020
O      -3.5153567700     2.2005093110    10.2599052050
H      -2.6227032800     1.8412518110    10.4321503050
