88
Step 1 | NEB Image 1 | Cartesian Angstrom
Ni      1.2285271350     0.7092904720     2.0000000000
Ni     -6.1433728650     0.7092904720     2.0000000000
Ni      2.4570542700     2.8371618880     2.0000000000
Ni     -4.9148457300     2.8371618880     2.0000000000
Ni      0.0000000000    -1.4185809440     2.0000000000
Ni     -7.3719000000    -1.4185809440     2.0000000000
Ni      3.6855814050     0.7092904720     2.0000000000
Ni     -3.6863185950     0.7092904720     2.0000000000
Ni      4.9141085400     2.8371618880     2.0000000000
Ni     -2.4577914600     2.8371618880     2.0000000000
Ni      2.4570542700    -1.4185809440     2.0000000000
Ni     -4.9148457300    -1.4185809440     2.0000000000
Ni      6.1433728650     0.7092904720     2.0000000000
Ni     -1.2285271350     0.7092904720     2.0000000000
Ni      7.3719000000     2.8371618880     2.0000000000
Ni      0.0000000000     2.8371618880     2.0000000000
Ni      4.9148457300    -1.4185809440     2.0000000000
Ni     -2.4570542700    -1.4185809440     2.0000000000
Ni      0.0345187234    -0.0219895959     3.9906686506
Ni     -7.3332872529    -0.0205271350     3.9970929970
Ni      1.2574298371     2.1090479016     3.9981086770
Ni     -6.1061214153     2.1042281316     4.0017605185
Ni     -1.1958375155    -2.1495425789     3.9888614873
Ni     -8.5615731291    -2.1597422030     3.9935633301
Ni      2.4909200515    -0.0209290578     3.9889124626
Ni     -4.8775455868    -0.0288695998     4.0155932973
Ni      3.7235299523     2.1102350339     3.9932622384
Ni     -3.6483031855     2.1055811522     4.0174271749
Ni      1.2597529797    -2.1544756242     3.9969618463
Ni     -6.1074652262    -2.1506208434     4.0019689283
Ni      4.9550771908    -0.0234645643     3.9935565644
Ni     -2.4269867653    -0.0199772708     3.9982338911
Ni      6.1741097051     2.1083418571     4.0046158614
Ni     -1.1996729370     2.1123145435     4.0000024585
Ni      3.7197951829    -2.1539414756     3.9921760547
Ni     -3.6589301935    -2.1514998115     3.9994955107
Ni      1.2136841869     0.7163863979     5.9963073096
Ni     -6.1473437226     0.7096773911     6.0218176054
Ni      2.4453295017     2.8415084524     5.9971730433
Ni     -4.9231971923     2.8360653972     6.0327934449
Ni     -0.0226348385    -1.4110330430     6.0020236029
Ni     -7.3908667378    -1.4145678834     5.9981301391
Ni      3.6669417345     0.7157583701     5.9869138182
Ni     -3.7108784987     0.7190435175     6.0328517480
Ni      4.9057976617     2.8388244163     6.0411982092
Ni     -2.4814248435     2.8298458387     6.0521186228
Ni      2.4355069788    -1.4085502466     5.9888639843
Ni     -4.9252928465    -1.4026264080     6.0548563839
Ni      6.1341025786     0.7315238745     6.0218817427
Ni     -1.2402669783     0.7221835538     5.9926808095
Ni      7.3408175190     2.8291688103     6.0248565089
Ni     -0.0225097209     2.8466795557     6.0142376281
Ni      4.9088271165    -1.4251457534     5.9900387779
Ni     -2.4790699264    -1.4211153466     5.9913638200
Ni      0.0337137405    -0.0099863123     8.0038502320
Ni     -7.3606520147    -0.0334139511     7.9835827732
Ni      1.2525382386     2.1076756093     8.0014158677
Ni      8.5596645315     2.1514300915     7.9633346422
Ni     -1.1983605499    -2.1613845897     8.0018652759
Ni     -8.5927669864    -2.1264268734     8.0165035337
Ni      2.4708324722    -0.0109047600     8.0065027389
Ni     -4.8995212632    -0.0584838282     8.1493062015
Ni      3.6789469906     2.1047412898     7.9888648741
Ni     -3.6333178494     2.1270714900     8.1546283531
Ni      1.2394335961    -2.1164979174     7.9892760222
Ni     -6.1305722611    -2.1461024656     7.9989212299
Ni      4.9150163145    -0.0283439881     7.9490640309
Ni     -2.3653823178    -0.0601929248     7.9425724452
Ni      6.1349712758     2.1197335004     8.1598232492
Ni     -1.1861990586     2.1067384809     8.0263285947
Ni      3.6953023012    -2.1157302873     7.9694462946
Ni     -3.6468332403    -2.1628724713     8.0264725749
O       5.9486020032     1.9536774433    10.1568983318
H       6.2023593986     1.0444615420    10.4395396161
H       7.6485803319     2.9982816350    10.7947394844
H       2.3841835216    -2.5662265370    10.9995346326
C       6.5922936452     2.8570131008    11.0871865803
O       6.8828593053     0.8516013498    12.3925733789
H      -6.8879959571     0.8254517200    12.3248078773
C       6.4620997723     2.2299052156    12.4710261049
H       5.3979785171     2.1706601767    12.7461907790
C       7.1981974178     3.0342299686    13.5247288963
H       3.2389656514    -2.2859498111    13.4051121917
H       8.2901195875     2.9478942375    13.3576433856
O       6.8260697992     2.5426661176    14.8120038538
H       7.2522042786     3.0948827032    15.4870039972
O      -4.3927237137     1.0982075682     9.5865509607
H      -3.6717371060     0.6667680985    10.0888232085
88
Step 2 | NEB Image 2 | Cartesian Angstrom
Ni      1.2285271350     0.7092904720     2.0000000000
Ni     -6.1433728650     0.7092904720     2.0000000000
Ni      2.4570542700     2.8371618880     2.0000000000
Ni     -4.9148457300     2.8371618880     2.0000000000
Ni      0.0000000000    -1.4185809440     2.0000000000
Ni     -7.3719000000    -1.4185809440     2.0000000000
Ni      3.6855814050     0.7092904720     2.0000000000
Ni     -3.6863185950     0.7092904720     2.0000000000
Ni      4.9141085400     2.8371618880     2.0000000000
Ni     -2.4577914600     2.8371618880     2.0000000000
Ni      2.4570542700    -1.4185809440     2.0000000000
Ni     -4.9148457300    -1.4185809440     2.0000000000
Ni      6.1433728650     0.7092904720     2.0000000000
Ni     -1.2285271350     0.7092904720     2.0000000000
Ni      7.3719000000     2.8371618880     2.0000000000
Ni      0.0000000000     2.8371618880     2.0000000000
Ni      4.9148457300    -1.4185809440     2.0000000000
Ni     -2.4570542700    -1.4185809440     2.0000000000
Ni      0.0386440354    -0.0149597352     3.9920606101
Ni     -7.3194753776    -0.0063733824     4.0048607407
Ni      1.2615762924     2.1179478156     3.9971317659
Ni     -6.1042505278     2.1158592277     4.0305009511
Ni     -1.1918122033    -2.1400109310     3.9889982742
Ni     -8.5552997529    -2.1506783720     4.0007954569
Ni      2.4969259593    -0.0176545526     3.9920019997
Ni     -4.8787852554    -0.0094124264     4.0261901528
Ni      3.7291848508     2.1155492290     3.9959114177
Ni     -3.6440184089     2.1199566721     4.0189225108
Ni      1.2642748679    -2.1469148276     3.9988397312
Ni     -6.1009461235    -2.1366153778     4.0042844716
Ni      4.9645062757    -0.0180924750     3.9959350632
Ni     -2.4251195281    -0.0071959368     3.9983167921
Ni      6.1829480351     2.1171225654     4.0059159800
Ni     -1.1964142487     2.1230927348     3.9986131185
Ni      3.7260517901    -2.1545555959     3.9995690952
Ni     -3.6568673434    -2.1341329819     4.0009444289
Ni      1.2210999609     0.7289769801     5.9942934294
Ni     -6.1175482408     0.7512527435     6.0914486926
Ni      2.4503786857     2.8565386154     5.9909469859
Ni     -4.9199921743     2.8417818459     6.0572458125
Ni     -0.0113883580    -1.4003231099     6.0056490333
Ni     -7.3754964345    -1.3933213902     6.0036074803
Ni      3.6740839250     0.7248832227     5.9870270817
Ni     -3.6945600560     0.7387914923     6.0402026602
Ni      4.9178711611     2.8473501579     6.0423515916
Ni     -2.4703033091     2.8593009408     6.0501100254
Ni      2.4440710332    -1.4054210478     5.9986419412
Ni     -4.9123758305    -1.3675293186     6.0617807969
Ni      6.1477711128     0.7334964057     6.0138736071
Ni     -1.2300561577     0.7390757009     5.9911306316
Ni      7.3547724295     2.8308653580     6.0725636391
Ni     -0.0135911141     2.8697022372     6.0054389311
Ni      4.9106701378    -1.4150149848     5.9925176517
Ni     -2.4654556908    -1.4027571804     5.9913565598
Ni      0.0440257337     0.0021017760     8.0027829262
Ni     -7.3188140957    -0.0168062513     7.9848252865
Ni      1.2583935353     2.1269110516     7.9964196405
Ni      8.5677088387     2.2279461558     8.1502676674
Ni     -1.1892428702    -2.1435133707     8.0035413089
Ni     -8.5586886847    -2.0838129541     7.9973316888
Ni      2.4646277351     0.0090658430     8.0036525340
Ni     -4.8182779453    -0.0086194488     8.2373544895
Ni      3.6698443480     2.1276157244     7.9815921150
Ni     -3.5816524479     2.1640473239     8.1334136588
Ni      1.2430169608    -2.1153931791     8.0130998758
Ni     -6.0849152922    -2.1036586960     8.0078575462
Ni      4.9066063945    -0.0111354671     7.9571097567
Ni     -2.3458096890    -0.0402637870     7.9494005713
Ni      6.1082303742     2.1085566135     8.1410808059
Ni     -1.1602594866     2.1320866195     8.0121109986
Ni      3.6741638195    -2.0726773266     7.9884121604
Ni     -3.6301426493    -2.1376931809     8.0266658249
O       6.1196023390     1.5107410086    10.0550479277
H       9.0535823057     2.6112277465     9.6709611041
H       8.2507326198     2.2806207837     9.7380620484
H       1.6178431754    -3.3205705566    11.0704128354
C       5.9775935265     2.1966129951    11.0839454972
O       7.3736039956     0.5878567742    12.1896976304
H      -7.4893074414     0.2797966820    11.2615169077
C       6.6870330820     1.8144921842    12.3412212035
H       5.8951039367     1.7549815595    13.1191876369
C       7.5558993309     2.9787029540    12.9335353954
H       3.4191346158    -2.4175768661    12.7154414746
H       8.5541220834     2.9430050287    12.4731445849
O       7.6166498899     2.7816056111    14.3508830646
H       8.2618319689     3.4033304661    14.7310565064
O      -4.0827842594     1.1330136225     9.6583542358
H      -3.2886467601     0.8555440766    10.1578232176
88
Step 3 | NEB Image 3 | Cartesian Angstrom
Ni      1.2285271350     0.7092904720     2.0000000000
Ni     -6.1433728650     0.7092904720     2.0000000000
Ni      2.4570542700     2.8371618880     2.0000000000
Ni     -4.9148457300     2.8371618880     2.0000000000
Ni      0.0000000000    -1.4185809440     2.0000000000
Ni     -7.3719000000    -1.4185809440     2.0000000000
Ni      3.6855814050     0.7092904720     2.0000000000
Ni     -3.6863185950     0.7092904720     2.0000000000
Ni      4.9141085400     2.8371618880     2.0000000000
Ni     -2.4577914600     2.8371618880     2.0000000000
Ni      2.4570542700    -1.4185809440     2.0000000000
Ni     -4.9148457300    -1.4185809440     2.0000000000
Ni      6.1433728650     0.7092904720     2.0000000000
Ni     -1.2285271350     0.7092904720     2.0000000000
Ni      7.3719000000     2.8371618880     2.0000000000
Ni      0.0000000000     2.8371618880     2.0000000000
Ni      4.9148457300    -1.4185809440     2.0000000000
Ni     -2.4570542700    -1.4185809440     2.0000000000
Ni      0.0308407148    -0.0100040947     3.9964555704
Ni     -7.3401183704    -0.0153276165     3.9998961547
Ni      1.2528407130     2.1139903848     3.9966462490
Ni     -6.1040704999     2.1171318131     3.9974209818
Ni     -1.1969614294    -2.1389558859     3.9947975263
Ni     -8.5703035169    -2.1361450001     4.0087708592
Ni      2.4906814069    -0.0059121070     4.0014838875
Ni     -4.8804973988    -0.0151868245     3.9978448818
Ni      3.7159338099     2.1106399916     3.9981268636
Ni     -3.6543490050     2.1197649794     4.0105940938
Ni      1.2619657544    -2.1395325779     3.9931528306
Ni     -6.1153716365    -2.1456283776     4.0050071624
Ni      4.9467975760    -0.0113531018     4.0107633639
Ni     -2.4285414447    -0.0114968624     3.9963951774
Ni      6.1788173101     2.1141846779     3.9994412203
Ni     -1.2055248843     2.1200636093     4.0025607159
Ni      3.7203844987    -2.1322274631     3.9857529958
Ni     -3.6549911542    -2.1447622799     3.9945028953
Ni      1.2070201815     0.7318933178     6.0134081995
Ni     -6.1766375563     0.7234886918     6.0088865908
Ni      2.4261935818     2.8592380917     5.9902040663
Ni     -4.9130933036     2.8593466771     6.0268386647
Ni     -0.0299622750    -1.3915103924     6.0034119894
Ni     -7.3820158810    -1.3778931072     6.0355950037
Ni      3.6773016844     0.7247608453     6.0432710995
Ni     -3.7102685789     0.7470974103     6.0240740119
Ni      4.8867252589     2.8671707660     5.9983771217
Ni     -2.4966123572     2.8485683041     6.0622312294
Ni      2.4302689026    -1.3893371856     6.0006195699
Ni     -4.9321427003    -1.4079718729     6.0049452572
Ni      6.1204987515     0.7285833966     6.0132671057
Ni     -1.2531228962     0.7348829178     6.0022074302
Ni      7.3576640700     2.8713321278     5.9838481312
Ni     -0.0316786680     2.8584128054     6.0120062284
Ni      4.9038653310    -1.3797609915     6.0329483130
Ni     -2.4920396949    -1.3971019608     6.0010216586
Ni     -0.0069554079     0.0173992876     8.0105170375
Ni     -7.3516972637     0.0059251817     8.1273396879
Ni      1.2284599034     2.1376629220     8.0104452389
Ni      8.6118716084     2.1607836631     7.9340262754
Ni     -1.2315358493    -2.1156587848     7.9975825533
Ni     -8.5898928433    -2.1289304405     7.9976599563
Ni      2.4415232245     0.0162348630     8.0254462805
Ni     -4.9053939456    -0.0171081443     7.9728161615
Ni      3.6393425740     2.1786492027     7.9728994329
Ni     -3.6783923736     2.1142884942     8.1692088768
Ni      1.2121002462    -2.0893566620     8.0054754091
Ni     -6.1319071424    -2.1118747042     8.0249791334
Ni      4.8810664010    -0.0085924004     8.1473221323
Ni     -2.4359020050    -0.0117917365     7.9804928436
Ni      6.1530661822     2.2140087852     7.9799844882
Ni     -1.2073703879     2.1302942470     8.0189438587
Ni      3.6811915233    -2.0890330245     7.9919613667
Ni     -3.6833666816    -2.1272137891     8.0205060313
O       6.0803362820     0.9348860327     9.3827330679
H      10.4859716031     2.7923911394    10.5531769109
H       6.7821554340     2.3244915264    10.7540349906
H       1.4079602503    -4.5622002512    10.9911640998
C       6.0975422160     1.4514917644    10.7293994148
O       7.1297755212    -0.5755150186    11.3619758400
H      -7.5853213445    -0.6892753629    10.3397462142
C       6.5964547946     0.5227224911    11.7827102116
H       6.4778039976     3.2673638811    13.1765084858
C       7.4647569549     3.6202048417    13.5045578942
H       3.8317208647    -1.6675454306    13.3803842316
H       8.2280546937     3.1541235100    12.8508529140
O       7.5969697505     3.2193140764    14.8687887802
H       8.3910205822     3.6369350696    15.2391993054
O      -3.9599139257     1.9119503305    10.2501282123
H      -3.0799051967     1.7578919702    10.6445489967
88
Step 4 | NEB Image 4 | Cartesian Angstrom
Ni      1.2285271350     0.7092904720     2.0000000000
Ni     -6.1433728650     0.7092904720     2.0000000000
Ni      2.4570542700     2.8371618880     2.0000000000
Ni     -4.9148457300     2.8371618880     2.0000000000
Ni      0.0000000000    -1.4185809440     2.0000000000
Ni     -7.3719000000    -1.4185809440     2.0000000000
Ni      3.6855814050     0.7092904720     2.0000000000
Ni     -3.6863185950     0.7092904720     2.0000000000
Ni      4.9141085400     2.8371618880     2.0000000000
Ni     -2.4577914600     2.8371618880     2.0000000000
Ni      2.4570542700    -1.4185809440     2.0000000000
Ni     -4.9148457300    -1.4185809440     2.0000000000
Ni      6.1433728650     0.7092904720     2.0000000000
Ni     -1.2285271350     0.7092904720     2.0000000000
Ni      7.3719000000     2.8371618880     2.0000000000
Ni      0.0000000000     2.8371618880     2.0000000000
Ni      4.9148457300    -1.4185809440     2.0000000000
Ni     -2.4570542700    -1.4185809440     2.0000000000
Ni      0.0425753006    -0.0193996124     3.9958581492
Ni     -7.3368875095    -0.0134245433     3.9997456661
Ni      1.2686168713     2.1077789116     3.9990207299
Ni     -6.1066773371     2.1138195881     4.0010855082
Ni     -1.1859408382    -2.1449397297     3.9953331238
Ni     -8.5657378668    -2.1449797049     4.0032313227
Ni      2.5010000852    -0.0146799505     4.0043107534
Ni     -4.8748431375    -0.0165484677     3.9907129027
Ni      3.7296662226     2.1053684885     4.0086577884
Ni     -3.6546244191     2.1079533794     3.9977473945
Ni      1.2673870944    -2.1491655098     4.0002394959
Ni     -6.1052925078    -2.1512590417     3.9944431011
Ni      4.9535907598    -0.0180484087     4.0121145190
Ni     -2.4240924905    -0.0154739569     4.0005794741
Ni      6.1818722960     2.1128986048     4.0057588299
Ni     -1.1887651379     2.1089120210     3.9887383479
Ni      3.7233604615    -2.1433809785     3.9951483648
Ni     -3.6428543569    -2.1499407370     3.9892718841
Ni      1.2185872236     0.7237397313     6.0122357201
Ni     -6.1604639852     0.7117011545     6.0123850732
Ni      2.4449786310     2.8485039182     5.9966611384
Ni     -4.8979890409     2.8445307484     6.0248513256
Ni     -0.0129901550    -1.4053376741     6.0095883150
Ni     -7.3730342073    -1.3914087338     6.0030609264
Ni      3.6865568764     0.7152960192     6.0507603259
Ni     -3.7025422708     0.7329419432     6.0441318798
Ni      4.9105431806     2.8529458813     6.0334089371
Ni     -2.4715699245     2.8234324150     6.0076653992
Ni      2.4394010743    -1.4003897997     6.0051231838
Ni     -4.9086035532    -1.4085818185     5.9851969041
Ni      6.1277433235     0.7290733479     6.0249517298
Ni     -1.2383494243     0.7150598033     5.9941054818
Ni      7.3644543816     2.8488864180     6.0145817369
Ni     -0.0184750647     2.8535570298     6.0059115885
Ni      4.9109832578    -1.3931801665     6.0296075892
Ni     -2.4704484211    -1.4104549247     5.9984480116
Ni      0.0151707008    -0.0022834083     8.0140874338
Ni     -7.3493521680    -0.0101003144     8.0998802176
Ni      1.2503451059     2.1223548752     8.0108878559
Ni      8.6400092778     2.1432694415     7.9594498992
Ni     -1.2052188391    -2.1313122709     8.0078947422
Ni     -8.5858585835    -2.1547343092     7.9706340031
Ni      2.4541162310     0.0036975015     8.0284143567
Ni     -4.8804863261    -0.0322760024     8.0044314348
Ni      3.6653524545     2.1557961266     7.9968261301
Ni     -3.6609828996     2.1047036933     8.1540851402
Ni      1.2323723204    -2.1090824117     8.0232477158
Ni     -6.0848001915    -2.1643972226     7.9637257547
Ni      4.8922062308    -0.0241115327     8.1287650001
Ni     -2.4140238467    -0.0318606173     7.9944023519
Ni      6.1677464000     2.1802105131     8.0752071200
Ni     -1.1801816222     2.1036439360     7.9842680697
Ni      3.6877114265    -2.1118146452     7.9961292737
Ni     -3.6468226732    -2.1436751284     8.0141080936
O       6.1384945710     0.7754135503     9.4484370136
H      11.1750303495     3.1368051277    10.4693662482
H       6.8686172277     1.8662738295    11.0662128888
H       1.6104732441    -5.3348871701    11.3243714160
C       6.2850718921     0.9542056162    10.8520149193
O       7.5983564571    -1.1295950691    11.2471933738
H      -6.5611727157    -1.0592656012     9.0312683981
C       7.0179943580    -0.1468040534    11.5794294856
H       8.0476623861     4.3299360557    11.7585854422
C       8.2702723125     4.3022645137    12.8341011468
H       3.7558170164    -1.5947373053    13.3749868189
H       9.1963708458     4.8745902737    13.0171758135
O       8.4198960075     2.9225504807    13.1883651931
H       8.6583929650     2.8750916086    14.1287422133
O      -3.6500978483     2.1824408763    10.2578168373
H      -2.7751083965     1.7937773232    10.4588581338
88
Step 5 | NEB Image 5 | Cartesian Angstrom
Ni      1.2285271350     0.7092904720     2.0000000000
Ni     -6.1433728650     0.7092904720     2.0000000000
Ni      2.4570542700     2.8371618880     2.0000000000
Ni     -4.9148457300     2.8371618880     2.0000000000
Ni      0.0000000000    -1.4185809440     2.0000000000
Ni     -7.3719000000    -1.4185809440     2.0000000000
Ni      3.6855814050     0.7092904720     2.0000000000
Ni     -3.6863185950     0.7092904720     2.0000000000
Ni      4.9141085400     2.8371618880     2.0000000000
Ni     -2.4577914600     2.8371618880     2.0000000000
Ni      2.4570542700    -1.4185809440     2.0000000000
Ni     -4.9148457300    -1.4185809440     2.0000000000
Ni      6.1433728650     0.7092904720     2.0000000000
Ni     -1.2285271350     0.7092904720     2.0000000000
Ni      7.3719000000     2.8371618880     2.0000000000
Ni      0.0000000000     2.8371618880     2.0000000000
Ni      4.9148457300    -1.4185809440     2.0000000000
Ni     -2.4570542700    -1.4185809440     2.0000000000
Ni      0.0464326620    -0.0306468460     3.9976675890
Ni     -7.3257303870    -0.0255862300     3.9933782980
Ni      1.2739848450     2.0960038070     3.9979157030
Ni     -6.1026021170     2.1049500680     4.0019149180
Ni     -1.1827110610    -2.1546561820     3.9989053170
Ni     -8.5597082650    -2.1592869340     3.9982394010
Ni      2.5024778430    -0.0256743600     4.0031952220
Ni     -4.8641413240    -0.0227350050     3.9956475690
Ni      3.7346756480     2.0985190290     4.0083618800
Ni     -3.6458198020     2.0991473590     4.0056686860
Ni      1.2703768650    -2.1597674920     4.0015811390
Ni     -6.0933336510    -2.1603781540     3.9902680500
Ni      4.9590538200    -0.0289845540     4.0074783820
Ni     -2.4167678920    -0.0248088220     4.0022401470
Ni      6.1885777810     2.1026461420     4.0098077600
Ni     -1.1844811720     2.0985803670     3.9964394390
Ni      3.7245308300    -2.1560713310     3.9888953010
Ni     -3.6351397940    -2.1574140910     3.9933365850
Ni      1.2278611130     0.7073057200     6.0134419810
Ni     -6.1428898530     0.6957346210     6.0102358510
Ni      2.4563605190     2.8356121920     5.9987058000
Ni     -4.8924583120     2.8187736320     6.0264580820
Ni      0.0002252210    -1.4241376010     6.0155868270
Ni     -7.3667991100    -1.4101212980     5.9895528060
Ni      3.6921281460     0.7008202940     6.0360645010
Ni     -3.6779272240     0.7256007260     6.0512861550
Ni      4.9267336850     2.8309168990     6.0432780270
Ni     -2.4664659500     2.8157315660     6.0151173370
Ni      2.4509011280    -1.4197685090     6.0062316800
Ni     -4.8985683740    -1.4191884620     5.9881596610
Ni      6.1372839650     0.7115480370     6.0073921100
Ni     -1.2256557510     0.7019370040     6.0032560690
Ni      7.3730564330     2.8242126570     6.0269074010
Ni     -0.0034566730     2.8405670140     6.0010880700
Ni      4.9162369820    -1.4189308570     6.0083232610
Ni     -2.4596272260    -1.4182314770     6.0084483810
Ni      0.0277268390    -0.0168450280     8.0180888710
Ni     -7.3091221710    -0.0327920680     8.0371701400
Ni      1.2611452740     2.1078740620     8.0062525300
Ni      8.6667549770     2.1138793650     7.9801313330
Ni     -1.1942402360    -2.1496555940     8.0109921590
Ni     -8.5668484660    -2.1735761150     7.9430911750
Ni      2.4712577410    -0.0190631580     8.0243063390
Ni     -4.8670711400    -0.0431110720     7.9967287920
Ni      3.6750137580     2.1321536040     7.9940007810
Ni     -3.6274773380     2.0999917070     8.2089215290
Ni      1.2517815200    -2.1329879940     8.0267060850
Ni     -6.0785108950    -2.1534189890     7.9361595560
Ni      4.9123316280    -0.0512787390     8.0829089500
Ni     -2.4007725170    -0.0429334740     8.0081832520
Ni      6.1908597070     2.1505617180     8.1094472440
Ni     -1.1654360560     2.0989982700     7.9806126390
Ni      3.7077660390    -2.1419918620     7.9975968800
Ni     -3.6463297530    -2.1524111230     8.0158878220
O       6.1707187590     0.6663307040     9.3727337630
H      11.2555922500     3.1706166680    10.5266232770
H       7.1149227860     1.0824741990    11.1550798120
H       1.6297081310    -5.3793991980    11.2177269450
C       6.2238707100     0.5353136510    10.8108846880
O       7.5718415080    -1.5277099790    10.9241884940
H      -6.8828388710    -1.2337967880    10.0124245870
C       6.2850334910    -0.9302036460    11.2182633770
H       9.1791669060     4.9099545600    10.6626973770
C       9.7467965870     5.2786349730    12.7161077750
H       5.0959169980    -0.6608682970    12.9933131080
H      10.5457770910     5.8077082870    13.2666670860
O       9.6783811350     3.9068622240    13.1006105230
H      10.5447055700     3.5019751520    12.9206205020
O      -3.5153567700     2.2005093110    10.2599052050
H      -2.6227032800     1.8412518110    10.4321503050
