88
Step 1 | NEB Image 1 | Cartesian Angstrom
Ni      1.2285271350     0.7092904720     2.0000000000
Ni     -6.1433728650     0.7092904720     2.0000000000
Ni      2.4570542700     2.8371618880     2.0000000000
Ni     -4.9148457300     2.8371618880     2.0000000000
Ni      0.0000000000    -1.4185809440     2.0000000000
Ni     -7.3719000000    -1.4185809440     2.0000000000
Ni      3.6855814050     0.7092904720     2.0000000000
Ni     -3.6863185950     0.7092904720     2.0000000000
Ni      4.9141085400     2.8371618880     2.0000000000
Ni     -2.4577914600     2.8371618880     2.0000000000
Ni      2.4570542700    -1.4185809440     2.0000000000
Ni     -4.9148457300    -1.4185809440     2.0000000000
Ni      6.1433728650     0.7092904720     2.0000000000
Ni     -1.2285271350     0.7092904720     2.0000000000
Ni      7.3719000000     2.8371618880     2.0000000000
Ni      0.0000000000     2.8371618880     2.0000000000
Ni      4.9148457300    -1.4185809440     2.0000000000
Ni     -2.4570542700    -1.4185809440     2.0000000000
Ni      0.0345187234    -0.0219895959     3.9906686506
Ni     -7.3332872529    -0.0205271350     3.9970929970
Ni      1.2574298371     2.1090479016     3.9981086770
Ni     -6.1061214153     2.1042281316     4.0017605185
Ni     -1.1958375155    -2.1495425789     3.9888614873
Ni     -8.5615731291    -2.1597422030     3.9935633301
Ni      2.4909200515    -0.0209290578     3.9889124626
Ni     -4.8775455868    -0.0288695998     4.0155932973
Ni      3.7235299523     2.1102350339     3.9932622384
Ni     -3.6483031855     2.1055811522     4.0174271749
Ni      1.2597529797    -2.1544756242     3.9969618463
Ni     -6.1074652262    -2.1506208434     4.0019689283
Ni      4.9550771908    -0.0234645643     3.9935565644
Ni     -2.4269867653    -0.0199772708     3.9982338911
Ni      6.1741097051     2.1083418571     4.0046158614
Ni     -1.1996729370     2.1123145435     4.0000024585
Ni      3.7197951829    -2.1539414756     3.9921760547
Ni     -3.6589301935    -2.1514998115     3.9994955107
Ni      1.2136841869     0.7163863979     5.9963073096
Ni     -6.1473437226     0.7096773911     6.0218176054
Ni      2.4453295017     2.8415084524     5.9971730433
Ni     -4.9231971923     2.8360653972     6.0327934449
Ni     -0.0226348385    -1.4110330430     6.0020236029
Ni     -7.3908667378    -1.4145678834     5.9981301391
Ni      3.6669417345     0.7157583701     5.9869138182
Ni     -3.7108784987     0.7190435175     6.0328517480
Ni      4.9057976617     2.8388244163     6.0411982092
Ni     -2.4814248435     2.8298458387     6.0521186228
Ni      2.4355069788    -1.4085502466     5.9888639843
Ni     -4.9252928465    -1.4026264080     6.0548563839
Ni      6.1341025786     0.7315238745     6.0218817427
Ni     -1.2402669783     0.7221835538     5.9926808095
Ni      7.3408175190     2.8291688103     6.0248565089
Ni     -0.0225097209     2.8466795557     6.0142376281
Ni      4.9088271165    -1.4251457534     5.9900387779
Ni     -2.4790699264    -1.4211153466     5.9913638200
Ni      0.0337137405    -0.0099863123     8.0038502320
Ni     -7.3606520147    -0.0334139511     7.9835827732
Ni      1.2525382386     2.1076756093     8.0014158677
Ni      8.5596645315     2.1514300915     7.9633346422
Ni     -1.1983605499    -2.1613845897     8.0018652759
Ni     -8.5927669864    -2.1264268734     8.0165035337
Ni      2.4708324722    -0.0109047600     8.0065027389
Ni     -4.8995212632    -0.0584838282     8.1493062015
Ni      3.6789469906     2.1047412898     7.9888648741
Ni     -3.6333178494     2.1270714900     8.1546283531
Ni      1.2394335961    -2.1164979174     7.9892760222
Ni     -6.1305722611    -2.1461024656     7.9989212299
Ni      4.9150163145    -0.0283439881     7.9490640309
Ni     -2.3653823178    -0.0601929248     7.9425724452
Ni      6.1349712758     2.1197335004     8.1598232492
Ni     -1.1861990586     2.1067384809     8.0263285947
Ni      3.6953023012    -2.1157302873     7.9694462946
Ni     -3.6468332403    -2.1628724713     8.0264725749
O       5.9486020032     1.9536774433    10.1568983318
H       6.2023593986     1.0444615420    10.4395396161
H       7.6485803319     2.9982816350    10.7947394844
H       2.3841835216    -2.5662265370    10.9995346326
C       6.5922936452     2.8570131008    11.0871865803
O       6.8828593053     0.8516013498    12.3925733789
H      -6.8879959571     0.8254517200    12.3248078773
C       6.4620997723     2.2299052156    12.4710261049
H       5.3979785171     2.1706601767    12.7461907790
C       7.1981974178     3.0342299686    13.5247288963
H       3.2389656514    -2.2859498111    13.4051121917
H       8.2901195875     2.9478942375    13.3576433856
O       6.8260697992     2.5426661176    14.8120038538
H       7.2522042786     3.0948827032    15.4870039972
O      -4.3927237137     1.0982075682     9.5865509607
H      -3.6717371060     0.6667680985    10.0888232085
88
Step 2 | NEB Image 2 | Cartesian Angstrom
Ni      1.2285271350     0.7092904720     2.0000000000
Ni     -6.1433728650     0.7092904720     2.0000000000
Ni      2.4570542700     2.8371618880     2.0000000000
Ni     -4.9148457300     2.8371618880     2.0000000000
Ni      0.0000000000    -1.4185809440     2.0000000000
Ni     -7.3719000000    -1.4185809440     2.0000000000
Ni      3.6855814050     0.7092904720     2.0000000000
Ni     -3.6863185950     0.7092904720     2.0000000000
Ni      4.9141085400     2.8371618880     2.0000000000
Ni     -2.4577914600     2.8371618880     2.0000000000
Ni      2.4570542700    -1.4185809440     2.0000000000
Ni     -4.9148457300    -1.4185809440     2.0000000000
Ni      6.1433728650     0.7092904720     2.0000000000
Ni     -1.2285271350     0.7092904720     2.0000000000
Ni      7.3719000000     2.8371618880     2.0000000000
Ni      0.0000000000     2.8371618880     2.0000000000
Ni      4.9148457300    -1.4185809440     2.0000000000
Ni     -2.4570542700    -1.4185809440     2.0000000000
Ni      0.0375953534    -0.0150948776     3.9939953428
Ni     -7.3181264003    -0.0080226172     4.0044291975
Ni      1.2603157213     2.1182051842     3.9980134321
Ni     -6.1030734313     2.1154850234     4.0247618784
Ni     -1.1923670057    -2.1397107073     3.9906612023
Ni     -8.5535817140    -2.1499965167     4.0004388901
Ni      2.4945815560    -0.0166642462     3.9921708278
Ni     -4.8756138776    -0.0097380834     4.0289561039
Ni      3.7270073662     2.1151068811     3.9957673239
Ni     -3.6408250824     2.1190844298     4.0204941016
Ni      1.2640119960    -2.1473128053     3.9995390001
Ni     -6.0976720581    -2.1369728841     4.0083505343
Ni      4.9635204768    -0.0188248700     3.9961488310
Ni     -2.4243166169    -0.0071153115     4.0026832287
Ni      6.1813798368     2.1154754059     4.0024132123
Ni     -1.1947294719     2.1224298980     4.0014433561
Ni      3.7255549745    -2.1523689545     3.9983202540
Ni     -3.6550216172    -2.1336931492     4.0043314113
Ni      1.2201293016     0.7307270252     5.9971349190
Ni     -6.1167967647     0.7508395766     6.0866455573
Ni      2.4492241353     2.8571954293     5.9923716182
Ni     -4.9177157663     2.8419581078     6.0507017042
Ni     -0.0114380641    -1.4002309321     6.0072858225
Ni     -7.3724697977    -1.3952151790     6.0058571584
Ni      3.6738806119     0.7235421923     5.9875135103
Ni     -3.6934759627     0.7399152923     6.0498910602
Ni      4.9165113962     2.8459522880     6.0400118502
Ni     -2.4674641312     2.8598817768     6.0553285817
Ni      2.4425563134    -1.4040646932     5.9990937755
Ni     -4.9095322349    -1.3633100873     6.0701751487
Ni      6.1483758815     0.7306052440     6.0113673408
Ni     -1.2304765914     0.7393922836     5.9982833502
Ni      7.3527936161     2.8318684343     6.0589633754
Ni     -0.0134250993     2.8728569680     6.0099464229
Ni      4.9117837517    -1.4172087131     5.9933948746
Ni     -2.4639818817    -1.3996718532     5.9991013569
Ni      0.0466334891    -0.0001603562     8.0063184590
Ni     -7.3098616008    -0.0219075735     7.9827574728
Ni      1.2591048494     2.1275911700     7.9992016169
Ni      8.5764047246     2.2205683231     8.1306635246
Ni     -1.1868008307    -2.1433557419     8.0075411886
Ni     -8.5555396329    -2.0877277631     7.9941774901
Ni      2.4657370191     0.0049650257     8.0054141813
Ni     -4.8058308450    -0.0009901157     8.2563630160
Ni      3.6706627826     2.1249771313     7.9816428461
Ni     -3.5769459454     2.1698551884     8.1332678501
Ni      1.2445160441    -2.1216410843     8.0129548410
Ni     -6.0772065634    -2.1006559520     8.0158786136
Ni      4.9072855966    -0.0170961691     7.9554282562
Ni     -2.3443426472    -0.0363534581     7.9648490704
Ni      6.1141289639     2.0958010456     8.1277705159
Ni     -1.1558456945     2.1331665875     8.0170290765
Ni      3.6737705144    -2.0824936061     7.9849561291
Ni     -3.6262309949    -2.1344231845     8.0356157540
O       6.1253281935     1.4733864113    10.0587928987
H       9.0506499163     2.4760433051     9.7021127893
H       8.1995169225     2.3688878570     9.7047149393
H       1.6983913085    -3.2639349543    10.9707506282
C       6.0371254592     2.2395936341    11.0384442054
O       7.4034313196     0.6601187509    12.2148866323
H      -7.5213666951     0.2941272099    11.3185516738
C       6.7360113784     1.9010842723    12.3153401879
H       5.9129063860     1.8814940557    13.0658877815
C       7.6122966259     3.0411164231    12.9330355287
H       3.4695354342    -2.3483721143    12.7633191699
H       8.6110160700     3.0355364035    12.4695119446
O       7.6792023505     2.7697037322    14.3385847447
H       8.2575279138     3.4239337049    14.7674078355
O      -4.0919985208     1.1843560108     9.6858700939
H      -3.3066659972     0.9601304629    10.2242171406
88
Step 3 | NEB Image 3 | Cartesian Angstrom
Ni      1.2285271350     0.7092904720     2.0000000000
Ni     -6.1433728650     0.7092904720     2.0000000000
Ni      2.4570542700     2.8371618880     2.0000000000
Ni     -4.9148457300     2.8371618880     2.0000000000
Ni      0.0000000000    -1.4185809440     2.0000000000
Ni     -7.3719000000    -1.4185809440     2.0000000000
Ni      3.6855814050     0.7092904720     2.0000000000
Ni     -3.6863185950     0.7092904720     2.0000000000
Ni      4.9141085400     2.8371618880     2.0000000000
Ni     -2.4577914600     2.8371618880     2.0000000000
Ni      2.4570542700    -1.4185809440     2.0000000000
Ni     -4.9148457300    -1.4185809440     2.0000000000
Ni      6.1433728650     0.7092904720     2.0000000000
Ni     -1.2285271350     0.7092904720     2.0000000000
Ni      7.3719000000     2.8371618880     2.0000000000
Ni      0.0000000000     2.8371618880     2.0000000000
Ni      4.9148457300    -1.4185809440     2.0000000000
Ni     -2.4570542700    -1.4185809440     2.0000000000
Ni      0.0339928899    -0.0115299242     3.9964231278
Ni     -7.3358050300    -0.0183983715     3.9972071872
Ni      1.2557008150     2.1119581325     3.9968175740
Ni     -6.0992775297     2.1153276724     3.9960743021
Ni     -1.1931909725    -2.1411724213     3.9945091605
Ni     -8.5668259989    -2.1386857925     4.0089594967
Ni      2.4934609679    -0.0071943403     4.0015036160
Ni     -4.8758483734    -0.0178743681     3.9974243426
Ni      3.7192644594     2.1078274510     3.9974028362
Ni     -3.6503401147     2.1174461243     4.0113420596
Ni      1.2657300201    -2.1407036839     3.9918860913
Ni     -6.1113374637    -2.1490308452     4.0050332872
Ni      4.9491518651    -0.0146506642     4.0096317050
Ni     -2.4246726438    -0.0137264083     3.9965854183
Ni      6.1831620226     2.1125824678     3.9967030839
Ni     -1.2023028659     2.1177690273     4.0034529954
Ni      3.7245311753    -2.1334401006     3.9851528161
Ni     -3.6510797322    -2.1475978597     3.9946857650
Ni      1.2131068604     0.7278229914     6.0145064986
Ni     -6.1709511054     0.7203941848     6.0043654219
Ni      2.4314428724     2.8555156052     5.9892454428
Ni     -4.9056868867     2.8548216720     6.0277013671
Ni     -0.0238832827    -1.3946488999     6.0023497348
Ni     -7.3755424437    -1.3836574313     6.0332228122
Ni      3.6826964733     0.7196935980     6.0441871582
Ni     -3.7037175622     0.7430899160     6.0243380006
Ni      4.8914476212     2.8638029765     5.9933095090
Ni     -2.4904024000     2.8425176457     6.0656208768
Ni      2.4373475365    -1.3934543167     5.9993826568
Ni     -4.9265818358    -1.4121057430     6.0040494830
Ni      6.1241271543     0.7233171338     6.0047122253
Ni     -1.2466857513     0.7309092954     6.0035739358
Ni      7.3649553040     2.8677849255     5.9804633521
Ni     -0.0263451049     2.8539642025     6.0135541307
Ni      4.9115509996    -1.3842491645     6.0355318993
Ni     -2.4860870095    -1.4007112136     6.0006501405
Ni     -0.0011575801     0.0117044176     8.0116200161
Ni     -7.3525543839     0.0025399807     8.1073664271
Ni      1.2357941819     2.1325696751     8.0109615198
Ni      8.6188435953     2.1544293471     7.9318426025
Ni     -1.2250717761    -2.1201285802     7.9960219753
Ni     -8.5814552521    -2.1358370086     8.0015666094
Ni      2.4455842983     0.0083655082     8.0268004496
Ni     -4.9016920548    -0.0206425227     7.9692414559
Ni      3.6450164401     2.1734488136     7.9697564808
Ni     -3.6719476531     2.1092643868     8.1782045495
Ni      1.2189499458    -2.0969803381     8.0015188781
Ni     -6.1257203170    -2.1167929114     8.0240102654
Ni      4.8824403665    -0.0180424198     8.1527481226
Ni     -2.4303564001    -0.0157859580     7.9812881792
Ni      6.1582319055     2.2020981613     7.9650010887
Ni     -1.2006814937     2.1254191927     8.0234060185
Ni      3.6865687432    -2.0978168227     7.9901495386
Ni     -3.6767107712    -2.1309517011     8.0187493113
O       6.0742353911     0.9381650101     9.3823921974
H      10.4670464061     2.7631190945    10.5774017395
H       6.7658314781     2.4099039255    10.6705180588
H       1.4251134177    -4.5261685784    10.9927953850
C       6.1174004879     1.5105975319    10.7075870008
O       7.1415572103    -0.5029927783    11.3856417548
H      -7.6430605152    -0.6640857860    10.3742654689
C       6.6646116353     0.6323311808    11.7780864610
H       6.5435299033     3.3746872855    13.0850974037
C       7.5220860993     3.6928291120    13.4676291500
H       3.8861008984    -1.5888773900    13.4548236683
H       8.2999447714     3.2956146923    12.7866784281
O       7.6313544860     3.1589625590    14.7870244266
H       8.3784913846     3.5883712565    15.2334030086
O      -3.9857085991     1.8872370514    10.2564083157
H      -3.1269736065     1.6981266261    10.6806318078
88
Step 4 | NEB Image 4 | Cartesian Angstrom
Ni      1.2285271350     0.7092904720     2.0000000000
Ni     -6.1433728650     0.7092904720     2.0000000000
Ni      2.4570542700     2.8371618880     2.0000000000
Ni     -4.9148457300     2.8371618880     2.0000000000
Ni      0.0000000000    -1.4185809440     2.0000000000
Ni     -7.3719000000    -1.4185809440     2.0000000000
Ni      3.6855814050     0.7092904720     2.0000000000
Ni     -3.6863185950     0.7092904720     2.0000000000
Ni      4.9141085400     2.8371618880     2.0000000000
Ni     -2.4577914600     2.8371618880     2.0000000000
Ni      2.4570542700    -1.4185809440     2.0000000000
Ni     -4.9148457300    -1.4185809440     2.0000000000
Ni      6.1433728650     0.7092904720     2.0000000000
Ni     -1.2285271350     0.7092904720     2.0000000000
Ni      7.3719000000     2.8371618880     2.0000000000
Ni      0.0000000000     2.8371618880     2.0000000000
Ni      4.9148457300    -1.4185809440     2.0000000000
Ni     -2.4570542700    -1.4185809440     2.0000000000
Ni      0.0379740502    -0.0146162349     3.9989129408
Ni     -7.3373420599    -0.0127054122     4.0040027358
Ni      1.2647558347     2.1106714342     3.9981760257
Ni     -6.1043913053     2.1159764535     4.0006996641
Ni     -1.1904644680    -2.1410464654     3.9984044053
Ni     -8.5650460271    -2.1406474999     4.0056350668
Ni      2.4991376316    -0.0108767577     4.0048400913
Ni     -4.8756036894    -0.0132386438     3.9963252180
Ni      3.7255532586     2.1099846856     4.0077705103
Ni     -3.6504889477     2.1159794418     4.0070231813
Ni      1.2664693247    -2.1463378173     4.0014033527
Ni     -6.1070857773    -2.1454632265     4.0012610946
Ni      4.9536474067    -0.0135667998     4.0122883838
Ni     -2.4246904842    -0.0118839792     4.0010866854
Ni      6.1810920338     2.1130849839     4.0072363032
Ni     -1.1957991496     2.1163461754     3.9985441638
Ni      3.7219441386    -2.1389729947     3.9920188805
Ni     -3.6464134433    -2.1443703485     3.9922041275
Ni      1.2149725170     0.7296965669     6.0130377984
Ni     -6.1607543374     0.7176718474     6.0134881946
Ni      2.4412143036     2.8557952262     5.9988382165
Ni     -4.9029285439     2.8522740219     6.0256660213
Ni     -0.0180619383    -1.3975589160     6.0099422597
Ni     -7.3777637710    -1.3819483831     6.0170216171
Ni      3.6847910095     0.7215079997     6.0490259692
Ni     -3.7009717550     0.7454433853     6.0394487524
Ni      4.9064242492     2.8567664157     6.0306615368
Ni     -2.4805784427     2.8432051638     6.0328147417
Ni      2.4359716931    -1.3939105407     6.0057634590
Ni     -4.9160661531    -1.4040812670     5.9959454348
Ni      6.1277725565     0.7322838643     6.0294325308
Ni     -1.2447593956     0.7311058017     6.0016863443
Ni      7.3608307112     2.8563768995     6.0076248042
Ni     -0.0185233333     2.8602838731     6.0046176714
Ni      4.9076102576    -1.3896053209     6.0271068227
Ni     -2.4783281207    -1.3983600453     6.0043526314
Ni      0.0070891976     0.0134547596     8.0132463727
Ni     -7.3374422275     0.0181210474     8.1104502958
Ni      1.2421873592     2.1345128626     8.0102564977
Ni      8.6384094473     2.1596940345     7.9555431387
Ni     -1.2143791703    -2.1208693625     8.0054102836
Ni     -8.5898281688    -2.1382626689     7.9794714442
Ni      2.4489916928     0.0126850427     8.0280294602
Ni     -4.8726854144    -0.0102870367     7.9911630349
Ni      3.6580060817     2.1645221835     7.9977921229
Ni     -3.6616370455     2.1188646840     8.1686972594
Ni      1.2248461882    -2.0976951138     8.0210986454
Ni     -6.0880035225    -2.1436790362     7.9877818030
Ni      4.8885651241    -0.0146020046     8.1238806888
Ni     -2.4144463528    -0.0179028175     7.9952903140
Ni      6.1589154920     2.2021171989     8.0673184785
Ni     -1.1846377378     2.1255288413     7.9994474752
Ni      3.6844612424    -2.1008005687     7.9966185733
Ni     -3.6613106624    -2.1285544035     8.0179464307
O       6.1426337580     0.7928189139     9.4301422579
H      11.0909123840     3.0988975827    10.5421181028
H       6.8821748465     1.8392550114    11.0737219802
H       1.6450418068    -5.4107340084    11.3276993965
C       6.3138432561     0.9219833243    10.8375960108
O       7.7407672390    -1.1018040497    11.1449659246
H      -6.7566457568    -1.1219191879     9.0381749913
C       7.0990816611    -0.1700745618    11.5184647707
H       8.0817440387     4.3031321448    11.7731479919
C       8.3515671482     4.3096802208    12.8376182936
H       3.8586944005    -1.5796521572    13.4009911250
H       9.2785388473     4.8980987834    12.9606803838
O       8.5289892297     2.9443470294    13.2277554156
H       8.6712329342     2.9184212896    14.1881744113
O      -3.6742387215     2.1545385605    10.2829663193
H      -2.7852542952     1.8065395483    10.4953178001
88
Step 5 | NEB Image 5 | Cartesian Angstrom
Ni      1.2285271350     0.7092904720     2.0000000000
Ni     -6.1433728650     0.7092904720     2.0000000000
Ni      2.4570542700     2.8371618880     2.0000000000
Ni     -4.9148457300     2.8371618880     2.0000000000
Ni      0.0000000000    -1.4185809440     2.0000000000
Ni     -7.3719000000    -1.4185809440     2.0000000000
Ni      3.6855814050     0.7092904720     2.0000000000
Ni     -3.6863185950     0.7092904720     2.0000000000
Ni      4.9141085400     2.8371618880     2.0000000000
Ni     -2.4577914600     2.8371618880     2.0000000000
Ni      2.4570542700    -1.4185809440     2.0000000000
Ni     -4.9148457300    -1.4185809440     2.0000000000
Ni      6.1433728650     0.7092904720     2.0000000000
Ni     -1.2285271350     0.7092904720     2.0000000000
Ni      7.3719000000     2.8371618880     2.0000000000
Ni      0.0000000000     2.8371618880     2.0000000000
Ni      4.9148457300    -1.4185809440     2.0000000000
Ni     -2.4570542700    -1.4185809440     2.0000000000
Ni      0.0464326620    -0.0306468460     3.9976675890
Ni     -7.3257303870    -0.0255862300     3.9933782980
Ni      1.2739848450     2.0960038070     3.9979157030
Ni     -6.1026021170     2.1049500680     4.0019149180
Ni     -1.1827110610    -2.1546561820     3.9989053170
Ni     -8.5597082650    -2.1592869340     3.9982394010
Ni      2.5024778430    -0.0256743600     4.0031952220
Ni     -4.8641413240    -0.0227350050     3.9956475690
Ni      3.7346756480     2.0985190290     4.0083618800
Ni     -3.6458198020     2.0991473590     4.0056686860
Ni      1.2703768650    -2.1597674920     4.0015811390
Ni     -6.0933336510    -2.1603781540     3.9902680500
Ni      4.9590538200    -0.0289845540     4.0074783820
Ni     -2.4167678920    -0.0248088220     4.0022401470
Ni      6.1885777810     2.1026461420     4.0098077600
Ni     -1.1844811720     2.0985803670     3.9964394390
Ni      3.7245308300    -2.1560713310     3.9888953010
Ni     -3.6351397940    -2.1574140910     3.9933365850
Ni      1.2278611130     0.7073057200     6.0134419810
Ni     -6.1428898530     0.6957346210     6.0102358510
Ni      2.4563605190     2.8356121920     5.9987058000
Ni     -4.8924583120     2.8187736320     6.0264580820
Ni      0.0002252210    -1.4241376010     6.0155868270
Ni     -7.3667991100    -1.4101212980     5.9895528060
Ni      3.6921281460     0.7008202940     6.0360645010
Ni     -3.6779272240     0.7256007260     6.0512861550
Ni      4.9267336850     2.8309168990     6.0432780270
Ni     -2.4664659500     2.8157315660     6.0151173370
Ni      2.4509011280    -1.4197685090     6.0062316800
Ni     -4.8985683740    -1.4191884620     5.9881596610
Ni      6.1372839650     0.7115480370     6.0073921100
Ni     -1.2256557510     0.7019370040     6.0032560690
Ni      7.3730564330     2.8242126570     6.0269074010
Ni     -0.0034566730     2.8405670140     6.0010880700
Ni      4.9162369820    -1.4189308570     6.0083232610
Ni     -2.4596272260    -1.4182314770     6.0084483810
Ni      0.0277268390    -0.0168450280     8.0180888710
Ni     -7.3091221710    -0.0327920680     8.0371701400
Ni      1.2611452740     2.1078740620     8.0062525300
Ni      8.6667549770     2.1138793650     7.9801313330
Ni     -1.1942402360    -2.1496555940     8.0109921590
Ni     -8.5668484660    -2.1735761150     7.9430911750
Ni      2.4712577410    -0.0190631580     8.0243063390
Ni     -4.8670711400    -0.0431110720     7.9967287920
Ni      3.6750137580     2.1321536040     7.9940007810
Ni     -3.6274773380     2.0999917070     8.2089215290
Ni      1.2517815200    -2.1329879940     8.0267060850
Ni     -6.0785108950    -2.1534189890     7.9361595560
Ni      4.9123316280    -0.0512787390     8.0829089500
Ni     -2.4007725170    -0.0429334740     8.0081832520
Ni      6.1908597070     2.1505617180     8.1094472440
Ni     -1.1654360560     2.0989982700     7.9806126390
Ni      3.7077660390    -2.1419918620     7.9975968800
Ni     -3.6463297530    -2.1524111230     8.0158878220
O       6.1707187590     0.6663307040     9.3727337630
H      11.2555922500     3.1706166680    10.5266232770
H       7.1149227860     1.0824741990    11.1550798120
H       1.6297081310    -5.3793991980    11.2177269450
C       6.2238707100     0.5353136510    10.8108846880
O       7.5718415080    -1.5277099790    10.9241884940
H      -6.8828388710    -1.2337967880    10.0124245870
C       6.2850334910    -0.9302036460    11.2182633770
H       9.1791669060     4.9099545600    10.6626973770
C       9.7467965870     5.2786349730    12.7161077750
H       5.0959169980    -0.6608682970    12.9933131080
H      10.5457770910     5.8077082870    13.2666670860
O       9.6783811350     3.9068622240    13.1006105230
H      10.5447055700     3.5019751520    12.9206205020
O      -3.5153567700     2.2005093110    10.2599052050
H      -2.6227032800     1.8412518110    10.4321503050
