88
Step 1 | NEB Image 1 | Cartesian Angstrom
Ni      1.2285271350     0.7092904720     2.0000000000
Ni     -6.1433728650     0.7092904720     2.0000000000
Ni      2.4570542700     2.8371618880     2.0000000000
Ni     -4.9148457300     2.8371618880     2.0000000000
Ni      0.0000000000    -1.4185809440     2.0000000000
Ni     -7.3719000000    -1.4185809440     2.0000000000
Ni      3.6855814050     0.7092904720     2.0000000000
Ni     -3.6863185950     0.7092904720     2.0000000000
Ni      4.9141085400     2.8371618880     2.0000000000
Ni     -2.4577914600     2.8371618880     2.0000000000
Ni      2.4570542700    -1.4185809440     2.0000000000
Ni     -4.9148457300    -1.4185809440     2.0000000000
Ni      6.1433728650     0.7092904720     2.0000000000
Ni     -1.2285271350     0.7092904720     2.0000000000
Ni      7.3719000000     2.8371618880     2.0000000000
Ni      0.0000000000     2.8371618880     2.0000000000
Ni      4.9148457300    -1.4185809440     2.0000000000
Ni     -2.4570542700    -1.4185809440     2.0000000000
Ni      0.0345187234    -0.0219895959     3.9906686506
Ni     -7.3332872529    -0.0205271350     3.9970929970
Ni      1.2574298371     2.1090479016     3.9981086770
Ni     -6.1061214153     2.1042281316     4.0017605185
Ni     -1.1958375155    -2.1495425789     3.9888614873
Ni     -8.5615731291    -2.1597422030     3.9935633301
Ni      2.4909200515    -0.0209290578     3.9889124626
Ni     -4.8775455868    -0.0288695998     4.0155932973
Ni      3.7235299523     2.1102350339     3.9932622384
Ni     -3.6483031855     2.1055811522     4.0174271749
Ni      1.2597529797    -2.1544756242     3.9969618463
Ni     -6.1074652262    -2.1506208434     4.0019689283
Ni      4.9550771908    -0.0234645643     3.9935565644
Ni     -2.4269867653    -0.0199772708     3.9982338911
Ni      6.1741097051     2.1083418571     4.0046158614
Ni     -1.1996729370     2.1123145435     4.0000024585
Ni      3.7197951829    -2.1539414756     3.9921760547
Ni     -3.6589301935    -2.1514998115     3.9994955107
Ni      1.2136841869     0.7163863979     5.9963073096
Ni     -6.1473437226     0.7096773911     6.0218176054
Ni      2.4453295017     2.8415084524     5.9971730433
Ni     -4.9231971923     2.8360653972     6.0327934449
Ni     -0.0226348385    -1.4110330430     6.0020236029
Ni     -7.3908667378    -1.4145678834     5.9981301391
Ni      3.6669417345     0.7157583701     5.9869138182
Ni     -3.7108784987     0.7190435175     6.0328517480
Ni      4.9057976617     2.8388244163     6.0411982092
Ni     -2.4814248435     2.8298458387     6.0521186228
Ni      2.4355069788    -1.4085502466     5.9888639843
Ni     -4.9252928465    -1.4026264080     6.0548563839
Ni      6.1341025786     0.7315238745     6.0218817427
Ni     -1.2402669783     0.7221835538     5.9926808095
Ni      7.3408175190     2.8291688103     6.0248565089
Ni     -0.0225097209     2.8466795557     6.0142376281
Ni      4.9088271165    -1.4251457534     5.9900387779
Ni     -2.4790699264    -1.4211153466     5.9913638200
Ni      0.0337137405    -0.0099863123     8.0038502320
Ni     -7.3606520147    -0.0334139511     7.9835827732
Ni      1.2525382386     2.1076756093     8.0014158677
Ni      8.5596645315     2.1514300915     7.9633346422
Ni     -1.1983605499    -2.1613845897     8.0018652759
Ni     -8.5927669864    -2.1264268734     8.0165035337
Ni      2.4708324722    -0.0109047600     8.0065027389
Ni     -4.8995212632    -0.0584838282     8.1493062015
Ni      3.6789469906     2.1047412898     7.9888648741
Ni     -3.6333178494     2.1270714900     8.1546283531
Ni      1.2394335961    -2.1164979174     7.9892760222
Ni     -6.1305722611    -2.1461024656     7.9989212299
Ni      4.9150163145    -0.0283439881     7.9490640309
Ni     -2.3653823178    -0.0601929248     7.9425724452
Ni      6.1349712758     2.1197335004     8.1598232492
Ni     -1.1861990586     2.1067384809     8.0263285947
Ni      3.6953023012    -2.1157302873     7.9694462946
Ni     -3.6468332403    -2.1628724713     8.0264725749
O       5.9486020032     1.9536774433    10.1568983318
H       6.2023593986     1.0444615420    10.4395396161
H       7.6485803319     2.9982816350    10.7947394844
H       2.3841835216    -2.5662265370    10.9995346326
C       6.5922936452     2.8570131008    11.0871865803
O       6.8828593053     0.8516013498    12.3925733789
H      -6.8879959571     0.8254517200    12.3248078773
C       6.4620997723     2.2299052156    12.4710261049
H       5.3979785171     2.1706601767    12.7461907790
C       7.1981974178     3.0342299686    13.5247288963
H       3.2389656514    -2.2859498111    13.4051121917
H       8.2901195875     2.9478942375    13.3576433856
O       6.8260697992     2.5426661176    14.8120038538
H       7.2522042786     3.0948827032    15.4870039972
O      -4.3927237137     1.0982075682     9.5865509607
H      -3.6717371060     0.6667680985    10.0888232085
88
Step 2 | NEB Image 2 | Cartesian Angstrom
Ni      1.2285271350     0.7092904720     2.0000000000
Ni     -6.1433728650     0.7092904720     2.0000000000
Ni      2.4570542700     2.8371618880     2.0000000000
Ni     -4.9148457300     2.8371618880     2.0000000000
Ni      0.0000000000    -1.4185809440     2.0000000000
Ni     -7.3719000000    -1.4185809440     2.0000000000
Ni      3.6855814050     0.7092904720     2.0000000000
Ni     -3.6863185950     0.7092904720     2.0000000000
Ni      4.9141085400     2.8371618880     2.0000000000
Ni     -2.4577914600     2.8371618880     2.0000000000
Ni      2.4570542700    -1.4185809440     2.0000000000
Ni     -4.9148457300    -1.4185809440     2.0000000000
Ni      6.1433728650     0.7092904720     2.0000000000
Ni     -1.2285271350     0.7092904720     2.0000000000
Ni      7.3719000000     2.8371618880     2.0000000000
Ni      0.0000000000     2.8371618880     2.0000000000
Ni      4.9148457300    -1.4185809440     2.0000000000
Ni     -2.4570542700    -1.4185809440     2.0000000000
Ni      0.0438138850    -0.0244934871     3.9920628418
Ni     -7.3145072641    -0.0154435145     4.0072381105
Ni      1.2659303949     2.1080480546     3.9975028358
Ni     -6.0995284297     2.1068915412     4.0317123756
Ni     -1.1870635578    -2.1503978906     3.9890858053
Ni     -8.5498619104    -2.1608306141     4.0031455392
Ni      2.5035263197    -0.0258665700     3.9935017180
Ni     -4.8758042316    -0.0197569723     4.0275226953
Ni      3.7352027281     2.1065402801     3.9966400673
Ni     -3.6405707682     2.1098275104     4.0205807867
Ni      1.2712034798    -2.1559927141     3.9992114059
Ni     -6.0967336892    -2.1478861909     4.0063055969
Ni      4.9714046812    -0.0260567872     3.9978689169
Ni     -2.4212719073    -0.0181696260     3.9982034625
Ni      6.1900879721     2.1085354502     4.0096470846
Ni     -1.1929094276     2.1121991481     3.9997269918
Ni      3.7321746046    -2.1625309012     4.0010223555
Ni     -3.6532054588    -2.1451947034     4.0011540443
Ni      1.2287258067     0.7143974168     5.9957259992
Ni     -6.1112358146     0.7414901286     6.0951541504
Ni      2.4579075525     2.8408114744     5.9918994709
Ni     -4.9115982422     2.8270305368     6.0627102013
Ni     -0.0043724787    -1.4154024540     6.0030029585
Ni     -7.3663137476    -1.4056186827     6.0058838365
Ni      3.6840806811     0.7125301750     5.9908527416
Ni     -3.6875936156     0.7227719689     6.0399356334
Ni      4.9274535463     2.8337146699     6.0446917753
Ni     -2.4657203365     2.8414532269     6.0554852989
Ni      2.4538787149    -1.4173406665     6.0006797998
Ni     -4.9078696849    -1.3823923922     6.0633248055
Ni      6.1580546875     0.7219043941     6.0210896137
Ni     -1.2242774153     0.7219277247     5.9919476729
Ni      7.3657030814     2.8222291490     6.0776006413
Ni     -0.0085346087     2.8527154807     6.0063929700
Ni      4.9204482791    -1.4253320534     5.9930050531
Ni     -2.4603088619    -1.4186579276     5.9915756999
Ni      0.0513121084    -0.0154321698     8.0019905719
Ni     -7.3052194652    -0.0311540337     7.9915821978
Ni      1.2657588242     2.1126018583     7.9976108396
Ni      8.5802388209     2.2238732208     8.1566500462
Ni     -1.1825964851    -2.1583751377     8.0009667801
Ni     -8.5478907113    -2.0962528855     7.9901832678
Ni      2.4746769627    -0.0028013842     8.0074063948
Ni     -4.8192916410    -0.0237542926     8.2220802799
Ni      3.6821333164     2.1154599844     7.9863018637
Ni     -3.5702270554     2.1349345703     8.1423652236
Ni      1.2514619805    -2.1273856494     8.0082516232
Ni     -6.0805016821    -2.1262264209     8.0112587306
Ni      4.9179648916    -0.0201151443     7.9643214895
Ni     -2.3432450069    -0.0569631576     7.9529435805
Ni      6.1288794702     2.0931922615     8.1427376644
Ni     -1.1521127294     2.1106956776     8.0160534111
Ni      3.6859563186    -2.0794769759     7.9943737061
Ni     -3.6256718482    -2.1549214716     8.0252276329
O       6.1984552464     1.6061132778    10.0637723922
H       9.0642115223     2.3148512884     9.7775830967
H       8.3023960658     2.6768630898     9.7320728301
H       1.8492153580    -3.0744825025    10.9346738268
C       6.1225924839     2.3873594730    11.0321406719
O       7.3531704837     0.7421397712    12.2628275471
H      -7.4917912392     0.4134821783    11.3392518601
C       6.7522255209     2.0187448492    12.3347610585
H       5.9040978285     2.0457382974    13.0554166415
C       7.6529585428     3.1247499109    12.9832302148
H       3.5174636431    -2.2543862270    12.8550545362
H       8.6482204467     3.1322466257    12.5130148254
O       7.7241265977     2.8031968969    14.3769212487
H       8.3455200462     3.4088358274    14.8167860461
O      -4.1239242783     1.1194041228     9.6778594686
H      -3.3759607595     0.8199307161    10.2324803484
88
Step 3 | NEB Image 3 | Cartesian Angstrom
Ni      1.2285271350     0.7092904720     2.0000000000
Ni     -6.1433728650     0.7092904720     2.0000000000
Ni      2.4570542700     2.8371618880     2.0000000000
Ni     -4.9148457300     2.8371618880     2.0000000000
Ni      0.0000000000    -1.4185809440     2.0000000000
Ni     -7.3719000000    -1.4185809440     2.0000000000
Ni      3.6855814050     0.7092904720     2.0000000000
Ni     -3.6863185950     0.7092904720     2.0000000000
Ni      4.9141085400     2.8371618880     2.0000000000
Ni     -2.4577914600     2.8371618880     2.0000000000
Ni      2.4570542700    -1.4185809440     2.0000000000
Ni     -4.9148457300    -1.4185809440     2.0000000000
Ni      6.1433728650     0.7092904720     2.0000000000
Ni     -1.2285271350     0.7092904720     2.0000000000
Ni      7.3719000000     2.8371618880     2.0000000000
Ni      0.0000000000     2.8371618880     2.0000000000
Ni      4.9148457300    -1.4185809440     2.0000000000
Ni     -2.4570542700    -1.4185809440     2.0000000000
Ni      0.0345507412    -0.0164053044     3.9968480597
Ni     -7.3356680772    -0.0231262715     4.0001942428
Ni      1.2551237720     2.1074696472     3.9977504340
Ni     -6.0994343714     2.1101850375     3.9963743962
Ni     -1.1939448446    -2.1461743548     3.9955871513
Ni     -8.5666514871    -2.1408632170     4.0104472939
Ni      2.4943747434    -0.0113999443     4.0025385861
Ni     -4.8760781879    -0.0229760151     3.9986128240
Ni      3.7179193110     2.1036591407     3.9983764838
Ni     -3.6502853321     2.1134701832     4.0110005513
Ni      1.2660497497    -2.1448697544     3.9922307839
Ni     -6.1127966319    -2.1532968783     4.0076562865
Ni      4.9496408895    -0.0171518530     4.0114491258
Ni     -2.4246412986    -0.0188181387     3.9970311615
Ni      6.1824339529     2.1073469268     3.9975102280
Ni     -1.2032286801     2.1136252685     4.0047211097
Ni      3.7251270687    -2.1368185272     3.9860089917
Ni     -3.6523217721    -2.1525489923     3.9956592989
Ni      1.2155718738     0.7206679522     6.0148129406
Ni     -6.1679966864     0.7127541567     6.0068805048
Ni      2.4317989781     2.8481623592     5.9920647592
Ni     -4.9048272412     2.8516176469     6.0247450818
Ni     -0.0245016549    -1.4020093419     6.0026114384
Ni     -7.3720477073    -1.3886192037     6.0420727370
Ni      3.6872162138     0.7140705703     6.0480996870
Ni     -3.7027795505     0.7373262020     6.0228904566
Ni      4.8913213079     2.8576381677     5.9924630920
Ni     -2.4906282932     2.8353507393     6.0709230258
Ni      2.4380563697    -1.3989991296     6.0008118603
Ni     -4.9255883543    -1.4208302798     6.0064504871
Ni      6.1300345894     0.7142231875     6.0110852929
Ni     -1.2451229591     0.7237669623     6.0032109683
Ni      7.3654751985     2.8640565537     5.9773902217
Ni     -0.0259916729     2.8454721536     6.0156421313
Ni      4.9135747349    -1.3868677589     6.0377546549
Ni     -2.4865740522    -1.4084083371     6.0020999836
Ni      0.0060470861     0.0020504619     8.0105157052
Ni     -7.3318834017    -0.0054464116     8.1315263632
Ni      1.2399496870     2.1223007283     8.0132129660
Ni      8.6215292151     2.1503663606     7.9238991764
Ni     -1.2211542565    -2.1287235079     7.9986596764
Ni     -8.5786888613    -2.1408889269     8.0027104690
Ni      2.4567583676     0.0022540753     8.0274860477
Ni     -4.8901273604    -0.0325453042     7.9686190228
Ni      3.6515347189     2.1670030288     7.9751626591
Ni     -3.6697739997     2.1020731362     8.1814640207
Ni      1.2240257007    -2.1041819104     8.0010317746
Ni     -6.1201987341    -2.1279878685     8.0322345147
Ni      4.8972558594    -0.0151938886     8.1654231211
Ni     -2.4247298269    -0.0241957641     7.9801919089
Ni      6.1596956127     2.1917451487     7.9554435196
Ni     -1.1976956110     2.1136831262     8.0275707261
Ni      3.6940759624    -2.0999671694     7.9909522732
Ni     -3.6714450868    -2.1433964731     8.0218217729
O       6.1323547834     0.9309971949     9.3953958005
H      10.3664696715     2.6682698864    10.6225016979
H       6.8648631100     2.4835202755    10.5733922081
H       1.5009871114    -4.3593174802    10.9027096756
C       6.1822664401     1.6122032378    10.6745519336
O       7.1658728816    -0.3474560221    11.5392384564
H      -7.5863856214    -0.5743510530    10.5478586733
C       6.6806608957     0.8175724791    11.8271098628
H       6.6168523130     3.4105766515    12.9665320955
C       7.5806492781     3.7044739000    13.4009970799
H       3.9217670643    -1.5830942076    13.5053388915
H       8.3784032277     3.3983173845    12.6959278153
O       7.6930288943     3.0346055067    14.6567804961
H       8.2830861786     3.5495218055    15.2287131924
O      -4.0491469107     1.8245805668    10.2564054649
H      -3.2229833963     1.6071177757    10.7277808666
88
Step 4 | NEB Image 4 | Cartesian Angstrom
Ni      1.2285271350     0.7092904720     2.0000000000
Ni     -6.1433728650     0.7092904720     2.0000000000
Ni      2.4570542700     2.8371618880     2.0000000000
Ni     -4.9148457300     2.8371618880     2.0000000000
Ni      0.0000000000    -1.4185809440     2.0000000000
Ni     -7.3719000000    -1.4185809440     2.0000000000
Ni      3.6855814050     0.7092904720     2.0000000000
Ni     -3.6863185950     0.7092904720     2.0000000000
Ni      4.9141085400     2.8371618880     2.0000000000
Ni     -2.4577914600     2.8371618880     2.0000000000
Ni      2.4570542700    -1.4185809440     2.0000000000
Ni     -4.9148457300    -1.4185809440     2.0000000000
Ni      6.1433728650     0.7092904720     2.0000000000
Ni     -1.2285271350     0.7092904720     2.0000000000
Ni      7.3719000000     2.8371618880     2.0000000000
Ni      0.0000000000     2.8371618880     2.0000000000
Ni      4.9148457300    -1.4185809440     2.0000000000
Ni     -2.4570542700    -1.4185809440     2.0000000000
Ni      0.0365177767    -0.0140726788     3.9985956338
Ni     -7.3378109132    -0.0121088996     4.0004061176
Ni      1.2619242750     2.1115724622     3.9983269952
Ni     -6.1061038354     2.1177607584     3.9997394534
Ni     -1.1922140284    -2.1404530336     3.9984041873
Ni     -8.5687145833    -2.1405877419     4.0029016998
Ni      2.4965373785    -0.0096874774     4.0038247914
Ni     -4.8766650222    -0.0124992501     3.9964162656
Ni      3.7232394561     2.1107419800     4.0064812194
Ni     -3.6522421162     2.1161291334     4.0082349345
Ni      1.2643971886    -2.1445415241     4.0000003623
Ni     -6.1081598280    -2.1457896949     3.9972366021
Ni      4.9516029126    -0.0115478435     4.0124990148
Ni     -2.4257784736    -0.0123071968     3.9994723264
Ni      6.1797107721     2.1144075917     4.0074943532
Ni     -1.1977271419     2.1162347538     3.9990322425
Ni      3.7198676193    -2.1383161359     3.9913357990
Ni     -3.6475531914    -2.1447161705     3.9924562821
Ni      1.2134670932     0.7298042612     6.0133631465
Ni     -6.1658683582     0.7188598729     6.0124649276
Ni      2.4389348226     2.8560650930     5.9988017841
Ni     -4.9079385292     2.8505313245     6.0248973570
Ni     -0.0190684390    -1.3977788100     6.0100092142
Ni     -7.3791249023    -1.3821767226     6.0112268564
Ni      3.6833028188     0.7229786950     6.0487933624
Ni     -3.6999393511     0.7480994841     6.0373850461
Ni      4.9026409136     2.8582564928     6.0276281502
Ni     -2.4862079349     2.8473172470     6.0391298769
Ni      2.4349016984    -1.3933573715     6.0052696809
Ni     -4.9199622683    -1.4046754766     5.9954710722
Ni      6.1270928313     0.7307632925     6.0279942555
Ni     -1.2451954280     0.7296162968     6.0008720174
Ni      7.3593857632     2.8574296106     6.0083927411
Ni     -0.0206699462     2.8598248749     6.0051776344
Ni      4.9038629805    -1.3857962455     6.0230244958
Ni     -2.4804656294    -1.3979730799     6.0046738885
Ni      0.0034242102     0.0136147343     8.0130121802
Ni     -7.3272753660    -0.0162369390     8.1199897361
Ni      1.2385473419     2.1344201598     8.0094809837
Ni      8.6324891369     2.1524782554     7.9536633176
Ni     -1.2184133869    -2.1196619022     8.0051020882
Ni     -8.5909840284    -2.1382389287     7.9650850963
Ni      2.4505669257     0.0123773704     8.0271743560
Ni     -4.8845056809    -0.0138250790     7.9845057854
Ni      3.6544812628     2.1667965529     7.9955250378
Ni     -3.6629385854     2.1216009761     8.1797528108
Ni      1.2251785647    -2.0984103406     8.0195995508
Ni     -6.1146056297    -2.1151977916     7.9883848295
Ni      4.8946000777    -0.0163073351     8.1312640165
Ni     -2.4237050161    -0.0138830511     7.9940389975
Ni      6.1639877568     2.1996526788     8.0615421589
Ni     -1.1927147940     2.1284099965     7.9974031580
Ni      3.6871282866    -2.1002595927     7.9961713342
Ni     -3.6704907808    -2.1279451978     8.0164061898
O       6.1688025094     0.8125310588     9.3988885251
H      10.9988695131     3.0670220612    10.5688771695
H       6.9263272604     1.8687877736    11.0319944463
H       1.6837615204    -5.3407673179    11.2968661848
C       6.3530217968     0.9458009183    10.8142375282
O       7.7945732310    -0.9881315322    10.8691462188
H      -6.8984348010    -0.9242683469     9.6598616288
C       7.1292086410    -0.1359156504    11.5010029857
H       8.1750220177     4.2792291432    11.7951804020
C       8.3984296870     4.3117130399    12.8708150451
H       3.8937677442    -1.5354954354    13.3790449121
H       9.3363840035     4.8748145376    13.0138392714
O       8.5086402303     2.9520862976    13.3077790984
H       8.8383294216     2.9514864921    14.2213345912
O      -3.7083994756     2.1338293596    10.2765963809
H      -2.8142266353     1.8178394921    10.5141108457
88
Step 5 | NEB Image 5 | Cartesian Angstrom
Ni      1.2285271350     0.7092904720     2.0000000000
Ni     -6.1433728650     0.7092904720     2.0000000000
Ni      2.4570542700     2.8371618880     2.0000000000
Ni     -4.9148457300     2.8371618880     2.0000000000
Ni      0.0000000000    -1.4185809440     2.0000000000
Ni     -7.3719000000    -1.4185809440     2.0000000000
Ni      3.6855814050     0.7092904720     2.0000000000
Ni     -3.6863185950     0.7092904720     2.0000000000
Ni      4.9141085400     2.8371618880     2.0000000000
Ni     -2.4577914600     2.8371618880     2.0000000000
Ni      2.4570542700    -1.4185809440     2.0000000000
Ni     -4.9148457300    -1.4185809440     2.0000000000
Ni      6.1433728650     0.7092904720     2.0000000000
Ni     -1.2285271350     0.7092904720     2.0000000000
Ni      7.3719000000     2.8371618880     2.0000000000
Ni      0.0000000000     2.8371618880     2.0000000000
Ni      4.9148457300    -1.4185809440     2.0000000000
Ni     -2.4570542700    -1.4185809440     2.0000000000
Ni      0.0464326620    -0.0306468460     3.9976675890
Ni     -7.3257303870    -0.0255862300     3.9933782980
Ni      1.2739848450     2.0960038070     3.9979157030
Ni     -6.1026021170     2.1049500680     4.0019149180
Ni     -1.1827110610    -2.1546561820     3.9989053170
Ni     -8.5597082650    -2.1592869340     3.9982394010
Ni      2.5024778430    -0.0256743600     4.0031952220
Ni     -4.8641413240    -0.0227350050     3.9956475690
Ni      3.7346756480     2.0985190290     4.0083618800
Ni     -3.6458198020     2.0991473590     4.0056686860
Ni      1.2703768650    -2.1597674920     4.0015811390
Ni     -6.0933336510    -2.1603781540     3.9902680500
Ni      4.9590538200    -0.0289845540     4.0074783820
Ni     -2.4167678920    -0.0248088220     4.0022401470
Ni      6.1885777810     2.1026461420     4.0098077600
Ni     -1.1844811720     2.0985803670     3.9964394390
Ni      3.7245308300    -2.1560713310     3.9888953010
Ni     -3.6351397940    -2.1574140910     3.9933365850
Ni      1.2278611130     0.7073057200     6.0134419810
Ni     -6.1428898530     0.6957346210     6.0102358510
Ni      2.4563605190     2.8356121920     5.9987058000
Ni     -4.8924583120     2.8187736320     6.0264580820
Ni      0.0002252210    -1.4241376010     6.0155868270
Ni     -7.3667991100    -1.4101212980     5.9895528060
Ni      3.6921281460     0.7008202940     6.0360645010
Ni     -3.6779272240     0.7256007260     6.0512861550
Ni      4.9267336850     2.8309168990     6.0432780270
Ni     -2.4664659500     2.8157315660     6.0151173370
Ni      2.4509011280    -1.4197685090     6.0062316800
Ni     -4.8985683740    -1.4191884620     5.9881596610
Ni      6.1372839650     0.7115480370     6.0073921100
Ni     -1.2256557510     0.7019370040     6.0032560690
Ni      7.3730564330     2.8242126570     6.0269074010
Ni     -0.0034566730     2.8405670140     6.0010880700
Ni      4.9162369820    -1.4189308570     6.0083232610
Ni     -2.4596272260    -1.4182314770     6.0084483810
Ni      0.0277268390    -0.0168450280     8.0180888710
Ni     -7.3091221710    -0.0327920680     8.0371701400
Ni      1.2611452740     2.1078740620     8.0062525300
Ni      8.6667549770     2.1138793650     7.9801313330
Ni     -1.1942402360    -2.1496555940     8.0109921590
Ni     -8.5668484660    -2.1735761150     7.9430911750
Ni      2.4712577410    -0.0190631580     8.0243063390
Ni     -4.8670711400    -0.0431110720     7.9967287920
Ni      3.6750137580     2.1321536040     7.9940007810
Ni     -3.6274773380     2.0999917070     8.2089215290
Ni      1.2517815200    -2.1329879940     8.0267060850
Ni     -6.0785108950    -2.1534189890     7.9361595560
Ni      4.9123316280    -0.0512787390     8.0829089500
Ni     -2.4007725170    -0.0429334740     8.0081832520
Ni      6.1908597070     2.1505617180     8.1094472440
Ni     -1.1654360560     2.0989982700     7.9806126390
Ni      3.7077660390    -2.1419918620     7.9975968800
Ni     -3.6463297530    -2.1524111230     8.0158878220
O       6.1707187590     0.6663307040     9.3727337630
H      11.2555922500     3.1706166680    10.5266232770
H       7.1149227860     1.0824741990    11.1550798120
H       1.6297081310    -5.3793991980    11.2177269450
C       6.2238707100     0.5353136510    10.8108846880
O       7.5718415080    -1.5277099790    10.9241884940
H      -6.8828388710    -1.2337967880    10.0124245870
C       6.2850334910    -0.9302036460    11.2182633770
H       9.1791669060     4.9099545600    10.6626973770
C       9.7467965870     5.2786349730    12.7161077750
H       5.0959169980    -0.6608682970    12.9933131080
H      10.5457770910     5.8077082870    13.2666670860
O       9.6783811350     3.9068622240    13.1006105230
H      10.5447055700     3.5019751520    12.9206205020
O      -3.5153567700     2.2005093110    10.2599052050
H      -2.6227032800     1.8412518110    10.4321503050
