88
Step 1 | NEB Image 1 | Cartesian Angstrom
Ni      1.2285271350     0.7092904720     2.0000000000
Ni     -6.1433728650     0.7092904720     2.0000000000
Ni      2.4570542700     2.8371618880     2.0000000000
Ni     -4.9148457300     2.8371618880     2.0000000000
Ni      0.0000000000    -1.4185809440     2.0000000000
Ni     -7.3719000000    -1.4185809440     2.0000000000
Ni      3.6855814050     0.7092904720     2.0000000000
Ni     -3.6863185950     0.7092904720     2.0000000000
Ni      4.9141085400     2.8371618880     2.0000000000
Ni     -2.4577914600     2.8371618880     2.0000000000
Ni      2.4570542700    -1.4185809440     2.0000000000
Ni     -4.9148457300    -1.4185809440     2.0000000000
Ni      6.1433728650     0.7092904720     2.0000000000
Ni     -1.2285271350     0.7092904720     2.0000000000
Ni      7.3719000000     2.8371618880     2.0000000000
Ni      0.0000000000     2.8371618880     2.0000000000
Ni      4.9148457300    -1.4185809440     2.0000000000
Ni     -2.4570542700    -1.4185809440     2.0000000000
Ni      0.0345187234    -0.0219895959     3.9906686506
Ni     -7.3332872529    -0.0205271350     3.9970929970
Ni      1.2574298371     2.1090479016     3.9981086770
Ni     -6.1061214153     2.1042281316     4.0017605185
Ni     -1.1958375155    -2.1495425789     3.9888614873
Ni     -8.5615731291    -2.1597422030     3.9935633301
Ni      2.4909200515    -0.0209290578     3.9889124626
Ni     -4.8775455868    -0.0288695998     4.0155932973
Ni      3.7235299523     2.1102350339     3.9932622384
Ni     -3.6483031855     2.1055811522     4.0174271749
Ni      1.2597529797    -2.1544756242     3.9969618463
Ni     -6.1074652262    -2.1506208434     4.0019689283
Ni      4.9550771908    -0.0234645643     3.9935565644
Ni     -2.4269867653    -0.0199772708     3.9982338911
Ni      6.1741097051     2.1083418571     4.0046158614
Ni     -1.1996729370     2.1123145435     4.0000024585
Ni      3.7197951829    -2.1539414756     3.9921760547
Ni     -3.6589301935    -2.1514998115     3.9994955107
Ni      1.2136841869     0.7163863979     5.9963073096
Ni     -6.1473437226     0.7096773911     6.0218176054
Ni      2.4453295017     2.8415084524     5.9971730433
Ni     -4.9231971923     2.8360653972     6.0327934449
Ni     -0.0226348385    -1.4110330430     6.0020236029
Ni     -7.3908667378    -1.4145678834     5.9981301391
Ni      3.6669417345     0.7157583701     5.9869138182
Ni     -3.7108784987     0.7190435175     6.0328517480
Ni      4.9057976617     2.8388244163     6.0411982092
Ni     -2.4814248435     2.8298458387     6.0521186228
Ni      2.4355069788    -1.4085502466     5.9888639843
Ni     -4.9252928465    -1.4026264080     6.0548563839
Ni      6.1341025786     0.7315238745     6.0218817427
Ni     -1.2402669783     0.7221835538     5.9926808095
Ni      7.3408175190     2.8291688103     6.0248565089
Ni     -0.0225097209     2.8466795557     6.0142376281
Ni      4.9088271165    -1.4251457534     5.9900387779
Ni     -2.4790699264    -1.4211153466     5.9913638200
Ni      0.0337137405    -0.0099863123     8.0038502320
Ni     -7.3606520147    -0.0334139511     7.9835827732
Ni      1.2525382386     2.1076756093     8.0014158677
Ni      8.5596645315     2.1514300915     7.9633346422
Ni     -1.1983605499    -2.1613845897     8.0018652759
Ni     -8.5927669864    -2.1264268734     8.0165035337
Ni      2.4708324722    -0.0109047600     8.0065027389
Ni     -4.8995212632    -0.0584838282     8.1493062015
Ni      3.6789469906     2.1047412898     7.9888648741
Ni     -3.6333178494     2.1270714900     8.1546283531
Ni      1.2394335961    -2.1164979174     7.9892760222
Ni     -6.1305722611    -2.1461024656     7.9989212299
Ni      4.9150163145    -0.0283439881     7.9490640309
Ni     -2.3653823178    -0.0601929248     7.9425724452
Ni      6.1349712758     2.1197335004     8.1598232492
Ni     -1.1861990586     2.1067384809     8.0263285947
Ni      3.6953023012    -2.1157302873     7.9694462946
Ni     -3.6468332403    -2.1628724713     8.0264725749
O       5.9486020032     1.9536774433    10.1568983318
H       6.2023593986     1.0444615420    10.4395396161
H       7.6485803319     2.9982816350    10.7947394844
H       2.3841835216    -2.5662265370    10.9995346326
C       6.5922936452     2.8570131008    11.0871865803
O       6.8828593053     0.8516013498    12.3925733789
H      -6.8879959571     0.8254517200    12.3248078773
C       6.4620997723     2.2299052156    12.4710261049
H       5.3979785171     2.1706601767    12.7461907790
C       7.1981974178     3.0342299686    13.5247288963
H       3.2389656514    -2.2859498111    13.4051121917
H       8.2901195875     2.9478942375    13.3576433856
O       6.8260697992     2.5426661176    14.8120038538
H       7.2522042786     3.0948827032    15.4870039972
O      -4.3927237137     1.0982075682     9.5865509607
H      -3.6717371060     0.6667680985    10.0888232085
88
Step 2 | NEB Image 2 | Cartesian Angstrom
Ni      1.2285271350     0.7092904720     2.0000000000
Ni     -6.1433728650     0.7092904720     2.0000000000
Ni      2.4570542700     2.8371618880     2.0000000000
Ni     -4.9148457300     2.8371618880     2.0000000000
Ni      0.0000000000    -1.4185809440     2.0000000000
Ni     -7.3719000000    -1.4185809440     2.0000000000
Ni      3.6855814050     0.7092904720     2.0000000000
Ni     -3.6863185950     0.7092904720     2.0000000000
Ni      4.9141085400     2.8371618880     2.0000000000
Ni     -2.4577914600     2.8371618880     2.0000000000
Ni      2.4570542700    -1.4185809440     2.0000000000
Ni     -4.9148457300    -1.4185809440     2.0000000000
Ni      6.1433728650     0.7092904720     2.0000000000
Ni     -1.2285271350     0.7092904720     2.0000000000
Ni      7.3719000000     2.8371618880     2.0000000000
Ni      0.0000000000     2.8371618880     2.0000000000
Ni      4.9148457300    -1.4185809440     2.0000000000
Ni     -2.4570542700    -1.4185809440     2.0000000000
Ni      0.0389517053    -0.0150174847     3.9930615741
Ni     -7.3187610261    -0.0073207681     4.0045908549
Ni      1.2619272690     2.1175578937     3.9981161126
Ni     -6.1040296625     2.1146646394     4.0298490937
Ni     -1.1915353278    -2.1404471188     3.9900038092
Ni     -8.5543563219    -2.1512443430     4.0002170802
Ni      2.4970834851    -0.0181163802     3.9922811680
Ni     -4.8776955749    -0.0100832535     4.0270724163
Ni      3.7290176165     2.1148480277     3.9958263491
Ni     -3.6429564170     2.1192100336     4.0192022749
Ni      1.2645218723    -2.1472587757     3.9984065492
Ni     -6.0992381134    -2.1372414134     4.0050362593
Ni      4.9647618951    -0.0188431422     3.9954767760
Ni     -2.4240911706    -0.0077112317     3.9995058038
Ni      6.1831448823     2.1158649027     4.0050856280
Ni     -1.1951489862     2.1224876005     3.9999598010
Ni      3.7265160723    -2.1551350003     3.9989784871
Ni     -3.6556149054    -2.1345375264     4.0024537770
Ni      1.2224997104     0.7283391638     5.9955433251
Ni     -6.1154504776     0.7498502708     6.0910780121
Ni      2.4514152506     2.8555182849     5.9919178794
Ni     -4.9188398252     2.8404004711     6.0543726863
Ni     -0.0099667112    -1.4012333333     6.0057238139
Ni     -7.3729416646    -1.3944134631     6.0032514281
Ni      3.6755073430     0.7236178625     5.9869578963
Ni     -3.6919425759     0.7374125196     6.0418110751
Ni      4.9186117935     2.8456451382     6.0401116196
Ni     -2.4678630094     2.8588761387     6.0507139751
Ni      2.4454799642    -1.4063739644     5.9983786092
Ni     -4.9095062093    -1.3675202119     6.0639768279
Ni      6.1498662483     0.7309543077     6.0130126745
Ni     -1.2286250688     0.7380125181     5.9936731550
Ni      7.3552838638     2.8306607441     6.0696126810
Ni     -0.0117284952     2.8695343690     6.0075040229
Ni      4.9119953198    -1.4160638742     5.9911987757
Ni     -2.4632078608    -1.4030131253     5.9938834976
Ni      0.0464174593     0.0000540251     8.0040787035
Ni     -7.3134451171    -0.0191280526     7.9858747173
Ni      1.2604846450     2.1259042877     7.9981771674
Ni      8.5687012572     2.2297164710     8.1462600829
Ni     -1.1868910976    -2.1446472962     8.0046553236
Ni     -8.5562066163    -2.0850424177     7.9925092005
Ni      2.4669980064     0.0075106915     8.0040825371
Ni     -4.8131774216    -0.0048626740     8.2409034310
Ni      3.6725935386     2.1263650810     7.9815135488
Ni     -3.5802474026     2.1658738186     8.1280861927
Ni      1.2458649115    -2.1185048625     8.0114235110
Ni     -6.0805573211    -2.1025661240     8.0100890674
Ni      4.9090046360    -0.0127362029     7.9568000184
Ni     -2.3446524323    -0.0397724158     7.9552795456
Ni      6.1121958397     2.1027500996     8.1346560475
Ni     -1.1575091017     2.1312713995     8.0135618067
Ni      3.6765476644    -2.0735102892     7.9892237201
Ni     -3.6275824482    -2.1370012000     8.0300168348
O       6.1216598078     1.4981982601    10.0549822337
H       9.0505524404     2.5087219552     9.7021647703
H       8.2261150672     2.3648808767     9.7261436028
H       1.6877275908    -3.2656979225    11.0112033314
C       6.0205339809     2.2326289517    11.0560108329
O       7.3872042914     0.6317759659    12.2037482171
H      -7.5034919606     0.2918152177    11.2902171708
C       6.7198713404     1.8728941000    12.3255354933
H       5.9089349033     1.8450616879    13.0885511626
C       7.5916594370     3.0237655183    12.9330107563
H       3.4500078528    -2.3678043882    12.7436374321
H       8.5895364799     3.0101505003    12.4708342680
O       7.6581322271     2.7847010450    14.3449891040
H       8.2724369433     3.4214467113    14.7498946953
O      -4.0934353307     1.1609863036     9.6682734737
H      -3.3066280743     0.9079655887    10.1912858271
88
Step 3 | NEB Image 3 | Cartesian Angstrom
Ni      1.2285271350     0.7092904720     2.0000000000
Ni     -6.1433728650     0.7092904720     2.0000000000
Ni      2.4570542700     2.8371618880     2.0000000000
Ni     -4.9148457300     2.8371618880     2.0000000000
Ni      0.0000000000    -1.4185809440     2.0000000000
Ni     -7.3719000000    -1.4185809440     2.0000000000
Ni      3.6855814050     0.7092904720     2.0000000000
Ni     -3.6863185950     0.7092904720     2.0000000000
Ni      4.9141085400     2.8371618880     2.0000000000
Ni     -2.4577914600     2.8371618880     2.0000000000
Ni      2.4570542700    -1.4185809440     2.0000000000
Ni     -4.9148457300    -1.4185809440     2.0000000000
Ni      6.1433728650     0.7092904720     2.0000000000
Ni     -1.2285271350     0.7092904720     2.0000000000
Ni      7.3719000000     2.8371618880     2.0000000000
Ni      0.0000000000     2.8371618880     2.0000000000
Ni      4.9148457300    -1.4185809440     2.0000000000
Ni     -2.4570542700    -1.4185809440     2.0000000000
Ni      0.0331594943    -0.0118778184     3.9964021064
Ni     -7.3374218154    -0.0181551981     3.9990007564
Ni      1.2548491507     2.1120592544     3.9965488335
Ni     -6.1013492688     2.1149850155     3.9967234334
Ni     -1.1947814366    -2.1407976961     3.9947336572
Ni     -8.5682775150    -2.1382623392     4.0089745917
Ni      2.4928275004    -0.0081218473     4.0012858873
Ni     -4.8776078156    -0.0172584459     3.9977327101
Ni      3.7178696773     2.1081760040     3.9973068327
Ni     -3.6520545660     2.1180552804     4.0108313533
Ni      1.2642111747    -2.1414572581     3.9924695513
Ni     -6.1132840511    -2.1479459496     4.0053372124
Ni      4.9487401001    -0.0141060448     4.0099301999
Ni     -2.4260520136    -0.0131046081     3.9965730786
Ni      6.1812107861     2.1117803449     3.9982235081
Ni     -1.2035054065     2.1183738018     4.0030005355
Ni      3.7226723256    -2.1340991435     3.9854122228
Ni     -3.6527559894    -2.1466433886     3.9946471878
Ni      1.2110779931     0.7284755126     6.0134372577
Ni     -6.1730438679     0.7203708300     6.0067679061
Ni      2.4291520426     2.8562416672     5.9895486966
Ni     -4.9091629964     2.8563706228     6.0266888195
Ni     -0.0266347004    -1.3946143562     6.0032846899
Ni     -7.3785675101    -1.3819619908     6.0356290588
Ni      3.6810789192     0.7211172665     6.0424390657
Ni     -3.7064185045     0.7443544476     6.0239522079
Ni      4.8893944769     2.8640656052     5.9954417338
Ni     -2.4932365214     2.8446203456     6.0640054439
Ni      2.4339374398    -1.3931644419     6.0004402398
Ni     -4.9293361716    -1.4114056462     6.0046101166
Ni      6.1236976334     0.7240013777     6.0099266767
Ni     -1.2489388291     0.7318167846     6.0027713383
Ni      7.3618406295     2.8685042434     5.9814014162
Ni     -0.0286832576     2.8551821664     6.0126248196
Ni      4.9075528748    -1.3829360070     6.0338137351
Ni     -2.4890325811    -1.3998112027     6.0011493409
Ni     -0.0019183178     0.0125268958     8.0112488363
Ni     -7.3484058462     0.0032268009     8.1209085502
Ni      1.2325897167     2.1331465723     8.0106922535
Ni      8.6160497014     2.1564872435     7.9319554345
Ni     -1.2276434688    -2.1198803846     7.9977967576
Ni     -8.5856694929    -2.1327780468     7.9998809129
Ni      2.4466374642     0.0110176348     8.0253452123
Ni     -4.9012196838    -0.0210191473     7.9710052113
Ni      3.6432321119     2.1745490589     7.9713087168
Ni     -3.6745717200     2.1109086284     8.1733225045
Ni      1.2164443525    -2.0944987382     8.0046718243
Ni     -6.1283846809    -2.1159357476     8.0257714529
Ni      4.8852004490    -0.0130428937     8.1495907943
Ni     -2.4316535629    -0.0154056795     7.9812513254
Ni      6.1566360995     2.2071081847     7.9708640158
Ni     -1.2035357844     2.1257610172     8.0214338484
Ni      3.6855591254    -2.0940050822     7.9919354885
Ni     -3.6794018558    -2.1312582699     8.0203860835
O       6.0832187295     0.9394157686     9.3850033705
H      10.4676750340     2.7678089622    10.5709263634
H       6.7784528051     2.3859714810    10.6979185638
H       1.4222488693    -4.5273203678    10.9839190802
C       6.1139831622     1.4980336970    10.7148694122
O       7.1378880906    -0.5164862964    11.3873271861
H      -7.6180995295    -0.6625161681    10.3716262116
C       6.6381479116     0.6063352990    11.7858003915
H       6.5273830125     3.3476010281    13.1057148764
C       7.5077106556     3.6749136591    13.4751892538
H       3.8719927729    -1.6080081502    13.4352262260
H       8.2832116825     3.2609708029    12.8026314506
O       7.6218583400     3.1736341036    14.8060533716
H       8.3822852033     3.5980911497    15.2341003348
O      -3.9799732208     1.8925466306    10.2522281078
H      -3.1160015612     1.7110157102    10.6693716890
88
Step 4 | NEB Image 4 | Cartesian Angstrom
Ni      1.2285271350     0.7092904720     2.0000000000
Ni     -6.1433728650     0.7092904720     2.0000000000
Ni      2.4570542700     2.8371618880     2.0000000000
Ni     -4.9148457300     2.8371618880     2.0000000000
Ni      0.0000000000    -1.4185809440     2.0000000000
Ni     -7.3719000000    -1.4185809440     2.0000000000
Ni      3.6855814050     0.7092904720     2.0000000000
Ni     -3.6863185950     0.7092904720     2.0000000000
Ni      4.9141085400     2.8371618880     2.0000000000
Ni     -2.4577914600     2.8371618880     2.0000000000
Ni      2.4570542700    -1.4185809440     2.0000000000
Ni     -4.9148457300    -1.4185809440     2.0000000000
Ni      6.1433728650     0.7092904720     2.0000000000
Ni     -1.2285271350     0.7092904720     2.0000000000
Ni      7.3719000000     2.8371618880     2.0000000000
Ni      0.0000000000     2.8371618880     2.0000000000
Ni      4.9148457300    -1.4185809440     2.0000000000
Ni     -2.4570542700    -1.4185809440     2.0000000000
Ni      0.0393965377    -0.0157171989     3.9974802812
Ni     -7.3366522881    -0.0102448710     3.9972990917
Ni      1.2651016723     2.1107742654     3.9994427268
Ni     -6.1073424896     2.1194788435     3.9996204600
Ni     -1.1889165775    -2.1413324216     3.9967634865
Ni     -8.5673897425    -2.1415351265     4.0033067741
Ni      2.4967421844    -0.0102084876     4.0033893097
Ni     -4.8753425061    -0.0111675787     3.9875204346
Ni      3.7263190378     2.1089170315     4.0081156621
Ni     -3.6572122811     2.1123751962     3.9971823716
Ni      1.2655466834    -2.1448073245     4.0000562853
Ni     -6.1056727998    -2.1466513765     3.9942527934
Ni      4.9505937110    -0.0168157038     4.0095785607
Ni     -2.4246776502    -0.0122105272     4.0000628377
Ni      6.1812196728     2.1178344097     4.0026290486
Ni     -1.1907095507     2.1129450283     3.9905766117
Ni      3.7217639510    -2.1384015913     3.9943672077
Ni     -3.6436826328    -2.1469352995     3.9898244079
Ni      1.2147379575     0.7304638678     6.0134122146
Ni     -6.1639629579     0.7234258530     6.0112500653
Ni      2.4398466554     2.8558317339     5.9971404204
Ni     -4.9010830195     2.8541212251     6.0311175774
Ni     -0.0172141906    -1.3976321669     6.0101304587
Ni     -7.3763039899    -1.3812113051     5.9981349166
Ni      3.6825601371     0.7198638472     6.0496248778
Ni     -3.7022236121     0.7404713625     6.0405323479
Ni      4.9061347261     2.8600834482     6.0322133230
Ni     -2.4743674270     2.8247742779     6.0031375617
Ni      2.4371949479    -1.3941011051     6.0048431061
Ni     -4.9082555476    -1.3979474105     5.9804676154
Ni      6.1263215608     0.7381790460     6.0232140845
Ni     -1.2393977163     0.7217445443     5.9965488468
Ni      7.3598791595     2.8548933479     6.0164099508
Ni     -0.0220231866     2.8612681419     6.0091471280
Ni      4.9107507592    -1.3888519981     6.0345576259
Ni     -2.4725685673    -1.4021063135     6.0001071416
Ni      0.0110300884     0.0075851172     8.0149180280
Ni     -7.3452030876     0.0006365882     8.0897008831
Ni      1.2460431808     2.1329123833     8.0129091886
Ni      8.6337692886     2.1551561805     7.9567226019
Ni     -1.2088618863    -2.1220697380     8.0070618546
Ni     -8.5758589429    -2.1381249928     7.9841155272
Ni      2.4486187754     0.0136540961     8.0288024268
Ni     -4.8772467387    -0.0132653729     7.9921414981
Ni      3.6587193732     2.1643740827     7.9956380976
Ni     -3.6668319041     2.1129123657     8.1690271722
Ni      1.2281489369    -2.0983126551     8.0215450205
Ni     -6.0759483008    -2.1513206990     7.9575259900
Ni      4.8935207183    -0.0114633379     8.1250378949
Ni     -2.4142899560    -0.0220923986     7.9938887312
Ni      6.1650207657     2.1818711880     8.0761244366
Ni     -1.1827155599     2.1089993958     7.9916055580
Ni      3.6884464106    -2.1037434344     7.9961262472
Ni     -3.6474271264    -2.1297181541     8.0155183951
O       6.1529765836     0.7776860885     9.4363261791
H      11.1121887256     3.1081885881    10.5130056195
H       6.8696816283     1.8581365607    11.0688339905
H       1.6369802213    -5.3850649141    11.3379195113
C       6.3081157372     0.9334842554    10.8491756459
O       7.6825488085    -1.1107939368    11.1974872274
H      -6.7256524032    -1.1376584554     9.0236686539
C       7.0802348723    -0.1523179903    11.5565929919
H       8.0745829454     4.3069712598    11.7709430234
C       8.3291445877     4.3071618995    12.8382529752
H       3.8320820368    -1.5759692382    13.3891138066
H       9.2577646046     4.8854624949    12.9781779593
O       8.4915611117     2.9390780923    13.2224994980
H       8.6840731204     2.9082914482    14.1733319790
O      -3.6707855155     2.1580739474    10.2762686205
H      -2.7843099236     1.8002130032    10.4835455452
88
Step 5 | NEB Image 5 | Cartesian Angstrom
Ni      1.2285271350     0.7092904720     2.0000000000
Ni     -6.1433728650     0.7092904720     2.0000000000
Ni      2.4570542700     2.8371618880     2.0000000000
Ni     -4.9148457300     2.8371618880     2.0000000000
Ni      0.0000000000    -1.4185809440     2.0000000000
Ni     -7.3719000000    -1.4185809440     2.0000000000
Ni      3.6855814050     0.7092904720     2.0000000000
Ni     -3.6863185950     0.7092904720     2.0000000000
Ni      4.9141085400     2.8371618880     2.0000000000
Ni     -2.4577914600     2.8371618880     2.0000000000
Ni      2.4570542700    -1.4185809440     2.0000000000
Ni     -4.9148457300    -1.4185809440     2.0000000000
Ni      6.1433728650     0.7092904720     2.0000000000
Ni     -1.2285271350     0.7092904720     2.0000000000
Ni      7.3719000000     2.8371618880     2.0000000000
Ni      0.0000000000     2.8371618880     2.0000000000
Ni      4.9148457300    -1.4185809440     2.0000000000
Ni     -2.4570542700    -1.4185809440     2.0000000000
Ni      0.0464326620    -0.0306468460     3.9976675890
Ni     -7.3257303870    -0.0255862300     3.9933782980
Ni      1.2739848450     2.0960038070     3.9979157030
Ni     -6.1026021170     2.1049500680     4.0019149180
Ni     -1.1827110610    -2.1546561820     3.9989053170
Ni     -8.5597082650    -2.1592869340     3.9982394010
Ni      2.5024778430    -0.0256743600     4.0031952220
Ni     -4.8641413240    -0.0227350050     3.9956475690
Ni      3.7346756480     2.0985190290     4.0083618800
Ni     -3.6458198020     2.0991473590     4.0056686860
Ni      1.2703768650    -2.1597674920     4.0015811390
Ni     -6.0933336510    -2.1603781540     3.9902680500
Ni      4.9590538200    -0.0289845540     4.0074783820
Ni     -2.4167678920    -0.0248088220     4.0022401470
Ni      6.1885777810     2.1026461420     4.0098077600
Ni     -1.1844811720     2.0985803670     3.9964394390
Ni      3.7245308300    -2.1560713310     3.9888953010
Ni     -3.6351397940    -2.1574140910     3.9933365850
Ni      1.2278611130     0.7073057200     6.0134419810
Ni     -6.1428898530     0.6957346210     6.0102358510
Ni      2.4563605190     2.8356121920     5.9987058000
Ni     -4.8924583120     2.8187736320     6.0264580820
Ni      0.0002252210    -1.4241376010     6.0155868270
Ni     -7.3667991100    -1.4101212980     5.9895528060
Ni      3.6921281460     0.7008202940     6.0360645010
Ni     -3.6779272240     0.7256007260     6.0512861550
Ni      4.9267336850     2.8309168990     6.0432780270
Ni     -2.4664659500     2.8157315660     6.0151173370
Ni      2.4509011280    -1.4197685090     6.0062316800
Ni     -4.8985683740    -1.4191884620     5.9881596610
Ni      6.1372839650     0.7115480370     6.0073921100
Ni     -1.2256557510     0.7019370040     6.0032560690
Ni      7.3730564330     2.8242126570     6.0269074010
Ni     -0.0034566730     2.8405670140     6.0010880700
Ni      4.9162369820    -1.4189308570     6.0083232610
Ni     -2.4596272260    -1.4182314770     6.0084483810
Ni      0.0277268390    -0.0168450280     8.0180888710
Ni     -7.3091221710    -0.0327920680     8.0371701400
Ni      1.2611452740     2.1078740620     8.0062525300
Ni      8.6667549770     2.1138793650     7.9801313330
Ni     -1.1942402360    -2.1496555940     8.0109921590
Ni     -8.5668484660    -2.1735761150     7.9430911750
Ni      2.4712577410    -0.0190631580     8.0243063390
Ni     -4.8670711400    -0.0431110720     7.9967287920
Ni      3.6750137580     2.1321536040     7.9940007810
Ni     -3.6274773380     2.0999917070     8.2089215290
Ni      1.2517815200    -2.1329879940     8.0267060850
Ni     -6.0785108950    -2.1534189890     7.9361595560
Ni      4.9123316280    -0.0512787390     8.0829089500
Ni     -2.4007725170    -0.0429334740     8.0081832520
Ni      6.1908597070     2.1505617180     8.1094472440
Ni     -1.1654360560     2.0989982700     7.9806126390
Ni      3.7077660390    -2.1419918620     7.9975968800
Ni     -3.6463297530    -2.1524111230     8.0158878220
O       6.1707187590     0.6663307040     9.3727337630
H      11.2555922500     3.1706166680    10.5266232770
H       7.1149227860     1.0824741990    11.1550798120
H       1.6297081310    -5.3793991980    11.2177269450
C       6.2238707100     0.5353136510    10.8108846880
O       7.5718415080    -1.5277099790    10.9241884940
H      -6.8828388710    -1.2337967880    10.0124245870
C       6.2850334910    -0.9302036460    11.2182633770
H       9.1791669060     4.9099545600    10.6626973770
C       9.7467965870     5.2786349730    12.7161077750
H       5.0959169980    -0.6608682970    12.9933131080
H      10.5457770910     5.8077082870    13.2666670860
O       9.6783811350     3.9068622240    13.1006105230
H      10.5447055700     3.5019751520    12.9206205020
O      -3.5153567700     2.2005093110    10.2599052050
H      -2.6227032800     1.8412518110    10.4321503050
