88
Step 1 | NEB Image 1 | Cartesian Angstrom
Ni      1.2285271350     0.7092904720     2.0000000000
Ni     -6.1433728650     0.7092904720     2.0000000000
Ni      2.4570542700     2.8371618880     2.0000000000
Ni     -4.9148457300     2.8371618880     2.0000000000
Ni      0.0000000000    -1.4185809440     2.0000000000
Ni     -7.3719000000    -1.4185809440     2.0000000000
Ni      3.6855814050     0.7092904720     2.0000000000
Ni     -3.6863185950     0.7092904720     2.0000000000
Ni      4.9141085400     2.8371618880     2.0000000000
Ni     -2.4577914600     2.8371618880     2.0000000000
Ni      2.4570542700    -1.4185809440     2.0000000000
Ni     -4.9148457300    -1.4185809440     2.0000000000
Ni      6.1433728650     0.7092904720     2.0000000000
Ni     -1.2285271350     0.7092904720     2.0000000000
Ni      7.3719000000     2.8371618880     2.0000000000
Ni      0.0000000000     2.8371618880     2.0000000000
Ni      4.9148457300    -1.4185809440     2.0000000000
Ni     -2.4570542700    -1.4185809440     2.0000000000
Ni      0.0345187234    -0.0219895959     3.9906686506
Ni     -7.3332872529    -0.0205271350     3.9970929970
Ni      1.2574298371     2.1090479016     3.9981086770
Ni     -6.1061214153     2.1042281316     4.0017605185
Ni     -1.1958375155    -2.1495425789     3.9888614873
Ni     -8.5615731291    -2.1597422030     3.9935633301
Ni      2.4909200515    -0.0209290578     3.9889124626
Ni     -4.8775455868    -0.0288695998     4.0155932973
Ni      3.7235299523     2.1102350339     3.9932622384
Ni     -3.6483031855     2.1055811522     4.0174271749
Ni      1.2597529797    -2.1544756242     3.9969618463
Ni     -6.1074652262    -2.1506208434     4.0019689283
Ni      4.9550771908    -0.0234645643     3.9935565644
Ni     -2.4269867653    -0.0199772708     3.9982338911
Ni      6.1741097051     2.1083418571     4.0046158614
Ni     -1.1996729370     2.1123145435     4.0000024585
Ni      3.7197951829    -2.1539414756     3.9921760547
Ni     -3.6589301935    -2.1514998115     3.9994955107
Ni      1.2136841869     0.7163863979     5.9963073096
Ni     -6.1473437226     0.7096773911     6.0218176054
Ni      2.4453295017     2.8415084524     5.9971730433
Ni     -4.9231971923     2.8360653972     6.0327934449
Ni     -0.0226348385    -1.4110330430     6.0020236029
Ni     -7.3908667378    -1.4145678834     5.9981301391
Ni      3.6669417345     0.7157583701     5.9869138182
Ni     -3.7108784987     0.7190435175     6.0328517480
Ni      4.9057976617     2.8388244163     6.0411982092
Ni     -2.4814248435     2.8298458387     6.0521186228
Ni      2.4355069788    -1.4085502466     5.9888639843
Ni     -4.9252928465    -1.4026264080     6.0548563839
Ni      6.1341025786     0.7315238745     6.0218817427
Ni     -1.2402669783     0.7221835538     5.9926808095
Ni      7.3408175190     2.8291688103     6.0248565089
Ni     -0.0225097209     2.8466795557     6.0142376281
Ni      4.9088271165    -1.4251457534     5.9900387779
Ni     -2.4790699264    -1.4211153466     5.9913638200
Ni      0.0337137405    -0.0099863123     8.0038502320
Ni     -7.3606520147    -0.0334139511     7.9835827732
Ni      1.2525382386     2.1076756093     8.0014158677
Ni      8.5596645315     2.1514300915     7.9633346422
Ni     -1.1983605499    -2.1613845897     8.0018652759
Ni     -8.5927669864    -2.1264268734     8.0165035337
Ni      2.4708324722    -0.0109047600     8.0065027389
Ni     -4.8995212632    -0.0584838282     8.1493062015
Ni      3.6789469906     2.1047412898     7.9888648741
Ni     -3.6333178494     2.1270714900     8.1546283531
Ni      1.2394335961    -2.1164979174     7.9892760222
Ni     -6.1305722611    -2.1461024656     7.9989212299
Ni      4.9150163145    -0.0283439881     7.9490640309
Ni     -2.3653823178    -0.0601929248     7.9425724452
Ni      6.1349712758     2.1197335004     8.1598232492
Ni     -1.1861990586     2.1067384809     8.0263285947
Ni      3.6953023012    -2.1157302873     7.9694462946
Ni     -3.6468332403    -2.1628724713     8.0264725749
O       5.9486020032     1.9536774433    10.1568983318
H       6.2023593986     1.0444615420    10.4395396161
H       7.6485803319     2.9982816350    10.7947394844
H       2.3841835216    -2.5662265370    10.9995346326
C       6.5922936452     2.8570131008    11.0871865803
O       6.8828593053     0.8516013498    12.3925733789
H      -6.8879959571     0.8254517200    12.3248078773
C       6.4620997723     2.2299052156    12.4710261049
H       5.3979785171     2.1706601767    12.7461907790
C       7.1981974178     3.0342299686    13.5247288963
H       3.2389656514    -2.2859498111    13.4051121917
H       8.2901195875     2.9478942375    13.3576433856
O       6.8260697992     2.5426661176    14.8120038538
H       7.2522042786     3.0948827032    15.4870039972
O      -4.3927237137     1.0982075682     9.5865509607
H      -3.6717371060     0.6667680985    10.0888232085
88
Step 2 | NEB Image 2 | Cartesian Angstrom
Ni      1.2285271350     0.7092904720     2.0000000000
Ni     -6.1433728650     0.7092904720     2.0000000000
Ni      2.4570542700     2.8371618880     2.0000000000
Ni     -4.9148457300     2.8371618880     2.0000000000
Ni      0.0000000000    -1.4185809440     2.0000000000
Ni     -7.3719000000    -1.4185809440     2.0000000000
Ni      3.6855814050     0.7092904720     2.0000000000
Ni     -3.6863185950     0.7092904720     2.0000000000
Ni      4.9141085400     2.8371618880     2.0000000000
Ni     -2.4577914600     2.8371618880     2.0000000000
Ni      2.4570542700    -1.4185809440     2.0000000000
Ni     -4.9148457300    -1.4185809440     2.0000000000
Ni      6.1433728650     0.7092904720     2.0000000000
Ni     -1.2285271350     0.7092904720     2.0000000000
Ni      7.3719000000     2.8371618880     2.0000000000
Ni      0.0000000000     2.8371618880     2.0000000000
Ni      4.9148457300    -1.4185809440     2.0000000000
Ni     -2.4570542700    -1.4185809440     2.0000000000
Ni      0.0389302092    -0.0151576526     3.9924220987
Ni     -7.3189592612    -0.0066306008     4.0050530839
Ni      1.2617114804     2.1177832315     3.9974088899
Ni     -6.1039928946     2.1157527748     4.0299591873
Ni     -1.1917048000    -2.1403442593     3.9893002391
Ni     -8.5546614125    -2.1509390894     4.0007698918
Ni      2.4971065693    -0.0177774582     3.9923221438
Ni     -4.8783324122    -0.0096501235     4.0263668279
Ni      3.7294833710     2.1152893599     3.9962629222
Ni     -3.6436245372     2.1195884963     4.0189826375
Ni      1.2644807287    -2.1471269172     3.9989594461
Ni     -6.1000867129    -2.1369865099     4.0045941632
Ni      4.9647461891    -0.0184000651     3.9957238908
Ni     -2.4247075166    -0.0076441157     3.9985236755
Ni      6.1833246833     2.1168051883     4.0059647812
Ni     -1.1959119381     2.1225529957     3.9986534447
Ni      3.7262990738    -2.1547558520     3.9996882516
Ni     -3.6564366668    -2.1343213661     4.0011979369
Ni      1.2213860516     0.7290393633     5.9947242719
Ni     -6.1167414324     0.7505913470     6.0905029685
Ni      2.4505641189     2.8563511936     5.9911915871
Ni     -4.9190624407     2.8418132457     6.0559983277
Ni     -0.0110629254    -1.4005236739     6.0056947898
Ni     -7.3744932548    -1.3936363015     6.0033203560
Ni      3.6743829312     0.7246614412     5.9871000523
Ni     -3.6934635546     0.7383815880     6.0405345317
Ni      4.9186688363     2.8469006686     6.0421995754
Ni     -2.4696947908     2.8591862184     6.0501828552
Ni      2.4445381575    -1.4058757421     5.9986973534
Ni     -4.9117693501    -1.3671577249     6.0624388370
Ni      6.1480751084     0.7328842693     6.0133251538
Ni     -1.2296853135     0.7387353620     5.9916570789
Ni      7.3548264107     2.8307578061     6.0710394680
Ni     -0.0134166077     2.8699101136     6.0056404941
Ni      4.9110440419    -1.4150734478     5.9920102187
Ni     -2.4649072277    -1.4028006584     5.9920207024
Ni      0.0448098941     0.0018447676     8.0027994425
Ni     -7.3172639223    -0.0176463442     7.9846517943
Ni      1.2590513977     2.1268247741     7.9965909068
Ni      8.5684091553     2.2286364580     8.1501418960
Ni     -1.1886876962    -2.1438750246     8.0036057936
Ni     -8.5574569919    -2.0842242890     7.9955855095
Ni      2.4656578280     0.0082140168     8.0035813397
Ni     -4.8170518407    -0.0087364672     8.2377106745
Ni      3.6708473912     2.1270994070     7.9814095275
Ni     -3.5811744262     2.1648775576     8.1316339369
Ni      1.2435910450    -2.1163628586     8.0125913709
Ni     -6.0833938374    -2.1034389957     8.0088129296
Ni      4.9072634122    -0.0117459602     7.9567626976
Ni     -2.3452071741    -0.0399579521     7.9509236122
Ni      6.1098294078     2.1061445086     8.1397368811
Ni     -1.1592156298     2.1319224660     8.0124633646
Ni      3.6749057248    -2.0732376096     7.9881678573
Ni     -3.6291836278    -2.1374161718     8.0275422218
O       6.1202122866     1.5082934155    10.0544288488
H       9.0522764592     2.5765779470     9.6826751597
H       8.2442432860     2.3114475497     9.7343907165
H       1.6420016000    -3.2995468637    11.0520659365
C       5.9909577143     2.2089476723    11.0754285734
O       7.3801515718     0.6016078503    12.1934388314
H      -7.4930801412     0.2840628804    11.2692508934
C       6.6972665046     1.8326031379    12.3370460421
H       5.8987869521     1.7855074485    13.1108697646
C       7.5659416370     2.9939473586    12.9332872777
H       3.4293402003    -2.3992218743    12.7236181719
H       8.5632157657     2.9632818367    12.4713233925
O       7.6307008630     2.7836357895    14.3494690942
H       8.2676189717     3.4097823345    14.7366786287
O      -4.0864463081     1.1402892714     9.6615169807
H      -3.2941711219     0.8691222365    10.1674381612
88
Step 3 | NEB Image 3 | Cartesian Angstrom
Ni      1.2285271350     0.7092904720     2.0000000000
Ni     -6.1433728650     0.7092904720     2.0000000000
Ni      2.4570542700     2.8371618880     2.0000000000
Ni     -4.9148457300     2.8371618880     2.0000000000
Ni      0.0000000000    -1.4185809440     2.0000000000
Ni     -7.3719000000    -1.4185809440     2.0000000000
Ni      3.6855814050     0.7092904720     2.0000000000
Ni     -3.6863185950     0.7092904720     2.0000000000
Ni      4.9141085400     2.8371618880     2.0000000000
Ni     -2.4577914600     2.8371618880     2.0000000000
Ni      2.4570542700    -1.4185809440     2.0000000000
Ni     -4.9148457300    -1.4185809440     2.0000000000
Ni      6.1433728650     0.7092904720     2.0000000000
Ni     -1.2285271350     0.7092904720     2.0000000000
Ni      7.3719000000     2.8371618880     2.0000000000
Ni      0.0000000000     2.8371618880     2.0000000000
Ni      4.9148457300    -1.4185809440     2.0000000000
Ni     -2.4570542700    -1.4185809440     2.0000000000
Ni      0.0314058972    -0.0106004804     3.9961947386
Ni     -7.3393398596    -0.0161854961     3.9993126411
Ni      1.2533404702     2.1133996595     3.9964162891
Ni     -6.1031648464     2.1164740901     3.9970002566
Ni     -1.1963187974    -2.1396222345     3.9945148349
Ni     -8.5696468562    -2.1367565388     4.0086247947
Ni      2.4912227171    -0.0065045196     4.0012886185
Ni     -4.8796102383    -0.0160154336     3.9975047834
Ni      3.7164979704     2.1098796218     3.9977642473
Ni     -3.6535894097     2.1190802118     4.0102839847
Ni      1.2625559688    -2.1400090743     3.9927081335
Ni     -6.1147337696    -2.1465185479     4.0048175449
Ni      4.9473339482    -0.0121263421     4.0104326722
Ni     -2.4278372122    -0.0122155471     3.9961602158
Ni      6.1795258983     2.1136022932     3.9988191770
Ni     -1.2049443085     2.1193973182     4.0023986535
Ni      3.7211702125    -2.1327000397     3.9855723526
Ni     -3.6542834043    -2.1455419946     3.9942234355
Ni      1.2082878779     0.7306976604     6.0133779517
Ni     -6.1755099099     0.7225243100     6.0080315547
Ni      2.4271747119     2.8581473345     5.9899067615
Ni     -4.9118284608     2.8584103997     6.0266001581
Ni     -0.0288857317    -1.3925632205     6.0032526650
Ni     -7.3807331104    -1.3792157322     6.0354768670
Ni      3.6784369876     0.7235887052     6.0432973354
Ni     -3.7091355269     0.7459922946     6.0237863334
Ni      4.8876587918     2.8662220320     5.9974851246
Ni     -2.4954050577     2.8472229896     6.0625886796
Ni      2.4315431687    -1.3905406833     6.0004752174
Ni     -4.9311051244    -1.4092617736     6.0046227723
Ni      6.1214133397     0.7272809877     6.0120688152
Ni     -1.2518632857     0.7337125187     6.0021947969
Ni      7.3590393238     2.8704626512     5.9830575446
Ni     -0.0307319707     2.8571697707     6.0121432552
Ni      4.9052348804    -1.3807970593     6.0332993225
Ni     -2.4909642556    -1.3981986204     6.0008744322
Ni     -0.0054701011     0.0158218295     8.0107974944
Ni     -7.3508434624     0.0048401923     8.1252206653
Ni      1.2299730795     2.1361967084     8.0105568205
Ni      8.6133030413     2.1594392865     7.9333865619
Ni     -1.2301399693    -2.1170021613     7.9976760523
Ni     -8.5882725080    -2.1303108617     7.9984769431
Ni      2.4428310416     0.0144502584     8.0255502484
Ni     -4.9041655147    -0.0184487182     7.9724334733
Ni      3.6406593072     2.1775219077     7.9724571993
Ni     -3.6771176957     2.1131532828     8.1705314421
Ni      1.2135338086    -2.0911120802     8.0049776337
Ni     -6.1306583158    -2.1130909904     8.0254271158
Ni      4.8819180613    -0.0101055875     8.1484617256
Ni     -2.4346455757    -0.0130436482     7.9808238610
Ni      6.1541956286     2.2118012594     7.9769931206
Ni     -1.2060766042     2.1288655452     8.0199143054
Ni      3.6823979850    -2.0908017029     7.9917934923
Ni     -3.6819046863    -2.1285150167     8.0205870462
O       6.0819625531     0.9371204212     9.3841214151
H      10.4803199835     2.7850642672    10.5591631304
H       6.7818489412     2.3444387183    10.7361682861
H       1.4121111401    -4.5508401896    10.9883277421
C       6.1028054746     1.4669479809    10.7249727900
O       7.1332745008    -0.5565000307    11.3705990831
H      -7.5933598543    -0.6808209805    10.3503043799
C       6.6088656002     0.5489264242    11.7840216490
H       6.4951581074     3.2961525893    13.1512956017
C       7.4798773869     3.6400904978    13.4938145446
H       3.8461490902    -1.6457882038    13.3999422945
H       8.2482699103     3.1925372616    12.8344673434
O       7.6052157578     3.2046758015    14.8468288348
H       8.3893743774     3.6227140329    15.2369220058
O      -3.9664254916     1.9058215678    10.2517058738
H      -3.0909709330     1.7418066638    10.6522464639
88
Step 4 | NEB Image 4 | Cartesian Angstrom
Ni      1.2285271350     0.7092904720     2.0000000000
Ni     -6.1433728650     0.7092904720     2.0000000000
Ni      2.4570542700     2.8371618880     2.0000000000
Ni     -4.9148457300     2.8371618880     2.0000000000
Ni      0.0000000000    -1.4185809440     2.0000000000
Ni     -7.3719000000    -1.4185809440     2.0000000000
Ni      3.6855814050     0.7092904720     2.0000000000
Ni     -3.6863185950     0.7092904720     2.0000000000
Ni      4.9141085400     2.8371618880     2.0000000000
Ni     -2.4577914600     2.8371618880     2.0000000000
Ni      2.4570542700    -1.4185809440     2.0000000000
Ni     -4.9148457300    -1.4185809440     2.0000000000
Ni      6.1433728650     0.7092904720     2.0000000000
Ni     -1.2285271350     0.7092904720     2.0000000000
Ni      7.3719000000     2.8371618880     2.0000000000
Ni      0.0000000000     2.8371618880     2.0000000000
Ni      4.9148457300    -1.4185809440     2.0000000000
Ni     -2.4570542700    -1.4185809440     2.0000000000
Ni      0.0407401009    -0.0174833434     3.9971724140
Ni     -7.3360266405    -0.0122825131     4.0004890657
Ni      1.2672090975     2.1091703417     3.9976681518
Ni     -6.1067064089     2.1148895953     3.9979708421
Ni     -1.1874480536    -2.1431024197     3.9969649480
Ni     -8.5656268669    -2.1435498428     4.0037039856
Ni      2.4989900817    -0.0130518788     4.0041674448
Ni     -4.8746761096    -0.0135755370     3.9876500852
Ni      3.7284328781     2.1073135246     4.0077754224
Ni     -3.6571806190     2.1081950197     3.9927436493
Ni      1.2671865251    -2.1473944888     4.0004681595
Ni     -6.1063466360    -2.1477974720     3.9953654497
Ni      4.9529908227    -0.0167353407     4.0111594701
Ni     -2.4228423090    -0.0141179205     3.9990705257
Ni      6.1830552227     2.1132544251     4.0045420675
Ni     -1.1890398883     2.1112506549     3.9881390658
Ni      3.7236085558    -2.1429335942     3.9940125744
Ni     -3.6430765746    -2.1482085858     3.9886392046
Ni      1.2181661449     0.7260329980     6.0111308840
Ni     -6.1612121435     0.7162600764     6.0126080116
Ni      2.4446243422     2.8509985718     5.9962054015
Ni     -4.8994880753     2.8489035749     6.0258859639
Ni     -0.0146428555    -1.4021211639     6.0100507998
Ni     -7.3744953672    -1.3878246009     6.0025654899
Ni      3.6866127157     0.7166767768     6.0512888134
Ni     -3.7031166406     0.7337404685     6.0425036804
Ni      4.9094176313     2.8552276208     6.0336797532
Ni     -2.4723155729     2.8203006869     6.0011088942
Ni      2.4391934468    -1.3998867713     6.0057406038
Ni     -4.9077575503    -1.4050838203     5.9815874603
Ni      6.1269052187     0.7329028423     6.0257540264
Ni     -1.2378978927     0.7166955873     5.9947511208
Ni      7.3630323517     2.8502521612     6.0157256897
Ni     -0.0193667899     2.8564196645     6.0072585749
Ni      4.9089184071    -1.3912487326     6.0299368230
Ni     -2.4704903668    -1.4078557232     5.9981309488
Ni      0.0140016928     0.0002700521     8.0146748007
Ni     -7.3468652972    -0.0079827174     8.0966183305
Ni      1.2504688183     2.1262813437     8.0108855049
Ni      8.6401562068     2.1465488910     7.9583226007
Ni     -1.2066007244    -2.1290812737     8.0085677120
Ni     -8.5807087739    -2.1468262900     7.9762491846
Ni      2.4512122129     0.0081864493     8.0292034800
Ni     -4.8784640971    -0.0261459537     7.9994156730
Ni      3.6617961088     2.1589170679     7.9976251413
Ni     -3.6642190888     2.1067542252     8.1592556049
Ni      1.2284382316    -2.1038799949     8.0230221427
Ni     -6.0764522747    -2.1616773107     7.9577515821
Ni      4.8953785885    -0.0202774275     8.1281657972
Ni     -2.4124986351    -0.0302657617     7.9940180438
Ni      6.1663585944     2.1824932577     8.0748059691
Ni     -1.1772442512     2.1010888024     7.9881067132
Ni      3.6882938938    -2.1095736280     7.9964344606
Ni     -3.6442374860    -2.1394849472     8.0146695697
O       6.1448034656     0.7760286088     9.4408383819
H      11.1559586528     3.1283978435    10.4825519525
H       6.8693730363     1.8641577914    11.0678142288
H       1.6188913668    -5.3531934231    11.3335853276
C       6.2921310248     0.9473083440    10.8509418719
O       7.6246452884    -1.1225345333    11.2351851021
H      -6.6346736493    -1.0902792665     9.0312991086
C       7.0412784097    -0.1515704529    11.5724638273
H       8.0592041271     4.3249561462    11.7619641888
C       8.2919111180     4.3052086159    12.8342456927
H       3.7829412063    -1.5879652193    13.3763702949
H       9.2179620231     4.8775047953    13.0058200532
O       8.4466143384     2.9306065579    13.1969185112
H       8.6698007661     2.8857879384    14.1408836041
O      -3.6560842205     2.1751165723    10.2628741632
H      -2.7778277472     1.7953823588    10.4663190395
88
Step 5 | NEB Image 5 | Cartesian Angstrom
Ni      1.2285271350     0.7092904720     2.0000000000
Ni     -6.1433728650     0.7092904720     2.0000000000
Ni      2.4570542700     2.8371618880     2.0000000000
Ni     -4.9148457300     2.8371618880     2.0000000000
Ni      0.0000000000    -1.4185809440     2.0000000000
Ni     -7.3719000000    -1.4185809440     2.0000000000
Ni      3.6855814050     0.7092904720     2.0000000000
Ni     -3.6863185950     0.7092904720     2.0000000000
Ni      4.9141085400     2.8371618880     2.0000000000
Ni     -2.4577914600     2.8371618880     2.0000000000
Ni      2.4570542700    -1.4185809440     2.0000000000
Ni     -4.9148457300    -1.4185809440     2.0000000000
Ni      6.1433728650     0.7092904720     2.0000000000
Ni     -1.2285271350     0.7092904720     2.0000000000
Ni      7.3719000000     2.8371618880     2.0000000000
Ni      0.0000000000     2.8371618880     2.0000000000
Ni      4.9148457300    -1.4185809440     2.0000000000
Ni     -2.4570542700    -1.4185809440     2.0000000000
Ni      0.0464326620    -0.0306468460     3.9976675890
Ni     -7.3257303870    -0.0255862300     3.9933782980
Ni      1.2739848450     2.0960038070     3.9979157030
Ni     -6.1026021170     2.1049500680     4.0019149180
Ni     -1.1827110610    -2.1546561820     3.9989053170
Ni     -8.5597082650    -2.1592869340     3.9982394010
Ni      2.5024778430    -0.0256743600     4.0031952220
Ni     -4.8641413240    -0.0227350050     3.9956475690
Ni      3.7346756480     2.0985190290     4.0083618800
Ni     -3.6458198020     2.0991473590     4.0056686860
Ni      1.2703768650    -2.1597674920     4.0015811390
Ni     -6.0933336510    -2.1603781540     3.9902680500
Ni      4.9590538200    -0.0289845540     4.0074783820
Ni     -2.4167678920    -0.0248088220     4.0022401470
Ni      6.1885777810     2.1026461420     4.0098077600
Ni     -1.1844811720     2.0985803670     3.9964394390
Ni      3.7245308300    -2.1560713310     3.9888953010
Ni     -3.6351397940    -2.1574140910     3.9933365850
Ni      1.2278611130     0.7073057200     6.0134419810
Ni     -6.1428898530     0.6957346210     6.0102358510
Ni      2.4563605190     2.8356121920     5.9987058000
Ni     -4.8924583120     2.8187736320     6.0264580820
Ni      0.0002252210    -1.4241376010     6.0155868270
Ni     -7.3667991100    -1.4101212980     5.9895528060
Ni      3.6921281460     0.7008202940     6.0360645010
Ni     -3.6779272240     0.7256007260     6.0512861550
Ni      4.9267336850     2.8309168990     6.0432780270
Ni     -2.4664659500     2.8157315660     6.0151173370
Ni      2.4509011280    -1.4197685090     6.0062316800
Ni     -4.8985683740    -1.4191884620     5.9881596610
Ni      6.1372839650     0.7115480370     6.0073921100
Ni     -1.2256557510     0.7019370040     6.0032560690
Ni      7.3730564330     2.8242126570     6.0269074010
Ni     -0.0034566730     2.8405670140     6.0010880700
Ni      4.9162369820    -1.4189308570     6.0083232610
Ni     -2.4596272260    -1.4182314770     6.0084483810
Ni      0.0277268390    -0.0168450280     8.0180888710
Ni     -7.3091221710    -0.0327920680     8.0371701400
Ni      1.2611452740     2.1078740620     8.0062525300
Ni      8.6667549770     2.1138793650     7.9801313330
Ni     -1.1942402360    -2.1496555940     8.0109921590
Ni     -8.5668484660    -2.1735761150     7.9430911750
Ni      2.4712577410    -0.0190631580     8.0243063390
Ni     -4.8670711400    -0.0431110720     7.9967287920
Ni      3.6750137580     2.1321536040     7.9940007810
Ni     -3.6274773380     2.0999917070     8.2089215290
Ni      1.2517815200    -2.1329879940     8.0267060850
Ni     -6.0785108950    -2.1534189890     7.9361595560
Ni      4.9123316280    -0.0512787390     8.0829089500
Ni     -2.4007725170    -0.0429334740     8.0081832520
Ni      6.1908597070     2.1505617180     8.1094472440
Ni     -1.1654360560     2.0989982700     7.9806126390
Ni      3.7077660390    -2.1419918620     7.9975968800
Ni     -3.6463297530    -2.1524111230     8.0158878220
O       6.1707187590     0.6663307040     9.3727337630
H      11.2555922500     3.1706166680    10.5266232770
H       7.1149227860     1.0824741990    11.1550798120
H       1.6297081310    -5.3793991980    11.2177269450
C       6.2238707100     0.5353136510    10.8108846880
O       7.5718415080    -1.5277099790    10.9241884940
H      -6.8828388710    -1.2337967880    10.0124245870
C       6.2850334910    -0.9302036460    11.2182633770
H       9.1791669060     4.9099545600    10.6626973770
C       9.7467965870     5.2786349730    12.7161077750
H       5.0959169980    -0.6608682970    12.9933131080
H      10.5457770910     5.8077082870    13.2666670860
O       9.6783811350     3.9068622240    13.1006105230
H      10.5447055700     3.5019751520    12.9206205020
O      -3.5153567700     2.2005093110    10.2599052050
H      -2.6227032800     1.8412518110    10.4321503050
