88
Step 1 | NEB Image 1 | Cartesian Angstrom
Ni      1.2285271350     0.7092904720     2.0000000000
Ni     -6.1433728650     0.7092904720     2.0000000000
Ni      2.4570542700     2.8371618880     2.0000000000
Ni     -4.9148457300     2.8371618880     2.0000000000
Ni      0.0000000000    -1.4185809440     2.0000000000
Ni     -7.3719000000    -1.4185809440     2.0000000000
Ni      3.6855814050     0.7092904720     2.0000000000
Ni     -3.6863185950     0.7092904720     2.0000000000
Ni      4.9141085400     2.8371618880     2.0000000000
Ni     -2.4577914600     2.8371618880     2.0000000000
Ni      2.4570542700    -1.4185809440     2.0000000000
Ni     -4.9148457300    -1.4185809440     2.0000000000
Ni      6.1433728650     0.7092904720     2.0000000000
Ni     -1.2285271350     0.7092904720     2.0000000000
Ni      7.3719000000     2.8371618880     2.0000000000
Ni      0.0000000000     2.8371618880     2.0000000000
Ni      4.9148457300    -1.4185809440     2.0000000000
Ni     -2.4570542700    -1.4185809440     2.0000000000
Ni      0.0345187234    -0.0219895959     3.9906686506
Ni     -7.3332872529    -0.0205271350     3.9970929970
Ni      1.2574298371     2.1090479016     3.9981086770
Ni     -6.1061214153     2.1042281316     4.0017605185
Ni     -1.1958375155    -2.1495425789     3.9888614873
Ni     -8.5615731291    -2.1597422030     3.9935633301
Ni      2.4909200515    -0.0209290578     3.9889124626
Ni     -4.8775455868    -0.0288695998     4.0155932973
Ni      3.7235299523     2.1102350339     3.9932622384
Ni     -3.6483031855     2.1055811522     4.0174271749
Ni      1.2597529797    -2.1544756242     3.9969618463
Ni     -6.1074652262    -2.1506208434     4.0019689283
Ni      4.9550771908    -0.0234645643     3.9935565644
Ni     -2.4269867653    -0.0199772708     3.9982338911
Ni      6.1741097051     2.1083418571     4.0046158614
Ni     -1.1996729370     2.1123145435     4.0000024585
Ni      3.7197951829    -2.1539414756     3.9921760547
Ni     -3.6589301935    -2.1514998115     3.9994955107
Ni      1.2136841869     0.7163863979     5.9963073096
Ni     -6.1473437226     0.7096773911     6.0218176054
Ni      2.4453295017     2.8415084524     5.9971730433
Ni     -4.9231971923     2.8360653972     6.0327934449
Ni     -0.0226348385    -1.4110330430     6.0020236029
Ni     -7.3908667378    -1.4145678834     5.9981301391
Ni      3.6669417345     0.7157583701     5.9869138182
Ni     -3.7108784987     0.7190435175     6.0328517480
Ni      4.9057976617     2.8388244163     6.0411982092
Ni     -2.4814248435     2.8298458387     6.0521186228
Ni      2.4355069788    -1.4085502466     5.9888639843
Ni     -4.9252928465    -1.4026264080     6.0548563839
Ni      6.1341025786     0.7315238745     6.0218817427
Ni     -1.2402669783     0.7221835538     5.9926808095
Ni      7.3408175190     2.8291688103     6.0248565089
Ni     -0.0225097209     2.8466795557     6.0142376281
Ni      4.9088271165    -1.4251457534     5.9900387779
Ni     -2.4790699264    -1.4211153466     5.9913638200
Ni      0.0337137405    -0.0099863123     8.0038502320
Ni     -7.3606520147    -0.0334139511     7.9835827732
Ni      1.2525382386     2.1076756093     8.0014158677
Ni      8.5596645315     2.1514300915     7.9633346422
Ni     -1.1983605499    -2.1613845897     8.0018652759
Ni     -8.5927669864    -2.1264268734     8.0165035337
Ni      2.4708324722    -0.0109047600     8.0065027389
Ni     -4.8995212632    -0.0584838282     8.1493062015
Ni      3.6789469906     2.1047412898     7.9888648741
Ni     -3.6333178494     2.1270714900     8.1546283531
Ni      1.2394335961    -2.1164979174     7.9892760222
Ni     -6.1305722611    -2.1461024656     7.9989212299
Ni      4.9150163145    -0.0283439881     7.9490640309
Ni     -2.3653823178    -0.0601929248     7.9425724452
Ni      6.1349712758     2.1197335004     8.1598232492
Ni     -1.1861990586     2.1067384809     8.0263285947
Ni      3.6953023012    -2.1157302873     7.9694462946
Ni     -3.6468332403    -2.1628724713     8.0264725749
O       5.9486020032     1.9536774433    10.1568983318
H       6.2023593986     1.0444615420    10.4395396161
H       7.6485803319     2.9982816350    10.7947394844
H       2.3841835216    -2.5662265370    10.9995346326
C       6.5922936452     2.8570131008    11.0871865803
O       6.8828593053     0.8516013498    12.3925733789
H      -6.8879959571     0.8254517200    12.3248078773
C       6.4620997723     2.2299052156    12.4710261049
H       5.3979785171     2.1706601767    12.7461907790
C       7.1981974178     3.0342299686    13.5247288963
H       3.2389656514    -2.2859498111    13.4051121917
H       8.2901195875     2.9478942375    13.3576433856
O       6.8260697992     2.5426661176    14.8120038538
H       7.2522042786     3.0948827032    15.4870039972
O      -4.3927237137     1.0982075682     9.5865509607
H      -3.6717371060     0.6667680985    10.0888232085
88
Step 2 | NEB Image 2 | Cartesian Angstrom
Ni      1.2285271350     0.7092904720     2.0000000000
Ni     -6.1433728650     0.7092904720     2.0000000000
Ni      2.4570542700     2.8371618880     2.0000000000
Ni     -4.9148457300     2.8371618880     2.0000000000
Ni      0.0000000000    -1.4185809440     2.0000000000
Ni     -7.3719000000    -1.4185809440     2.0000000000
Ni      3.6855814050     0.7092904720     2.0000000000
Ni     -3.6863185950     0.7092904720     2.0000000000
Ni      4.9141085400     2.8371618880     2.0000000000
Ni     -2.4577914600     2.8371618880     2.0000000000
Ni      2.4570542700    -1.4185809440     2.0000000000
Ni     -4.9148457300    -1.4185809440     2.0000000000
Ni      6.1433728650     0.7092904720     2.0000000000
Ni     -1.2285271350     0.7092904720     2.0000000000
Ni      7.3719000000     2.8371618880     2.0000000000
Ni      0.0000000000     2.8371618880     2.0000000000
Ni      4.9148457300    -1.4185809440     2.0000000000
Ni     -2.4570542700    -1.4185809440     2.0000000000
Ni      0.0427075988    -0.0272705930     3.9906818636
Ni     -7.3245549269    -0.0201270902     4.0026935272
Ni      1.2650010441     2.1075590468     3.9980608836
Ni     -6.1008594196     2.1028805688     4.0097357974
Ni     -1.1897595478    -2.1522102479     3.9888458860
Ni     -8.5555016594    -2.1624367484     3.9964039009
Ni      2.4982614177    -0.0262718948     3.9905227987
Ni     -4.8751213816    -0.0259998883     4.0200169111
Ni      3.7310900719     2.1062335447     3.9968544933
Ni     -3.6415727159     2.1065634412     4.0181473456
Ni      1.2655764828    -2.1605505930     4.0001316814
Ni     -6.1009618456    -2.1497135877     4.0014545298
Ni      4.9638500353    -0.0272487831     3.9935978920
Ni     -2.4209584356    -0.0206528855     3.9974124500
Ni      6.1815333483     2.1048826238     4.0099431930
Ni     -1.1923287998     2.1107516430     3.9972565704
Ni      3.7256874448    -2.1619986904     3.9962327872
Ni     -3.6544678728    -2.1487118483     3.9996071309
Ni      1.2258708574     0.7109396729     5.9941435147
Ni     -6.1253703579     0.7164234128     6.0489899983
Ni      2.4597473945     2.8357951377     5.9969405352
Ni     -4.9126167577     2.8234826445     6.0420492559
Ni     -0.0084926768    -1.4204581357     6.0050883191
Ni     -7.3756441975    -1.4205787660     5.9998196913
Ni      3.6778657679     0.7082725459     5.9879183040
Ni     -3.6924418947     0.7137714805     6.0290639564
Ni      4.9265260204     2.8255199070     6.0562696676
Ni     -2.4637217252     2.8308009770     6.0468849935
Ni      2.4448380274    -1.4201325118     5.9920361196
Ni     -4.9107804325    -1.3998967234     6.0572646857
Ni      6.1489741644     0.7185584015     6.0243933224
Ni     -1.2238250589     0.7184632758     5.9871498949
Ni      7.3599020236     2.8128588445     6.0456163355
Ni     -0.0069712722     2.8450192934     6.0074690827
Ni      4.9161879084    -1.4307536272     5.9873105022
Ni     -2.4628084444    -1.4279359948     5.9888329087
Ni      0.0574581258    -0.0272267612     8.0015555090
Ni     -7.3147882940    -0.0544952644     7.9787366170
Ni      1.2718482461     2.0981751762     7.9978706897
Ni      8.5903363606     2.1630418220     8.0403996282
Ni     -1.1769048340    -2.1742850274     8.0068686278
Ni     -8.5647333043    -2.1266222082     7.9966474942
Ni      2.4812781635    -0.0241627709     8.0038091121
Ni     -4.8442263290    -0.0633082413     8.1726825128
Ni      3.6922936093     2.0936359046     7.9954291164
Ni     -3.5764436808     2.1124784546     8.1295045168
Ni      1.2563364335    -2.1399995779     8.0068929141
Ni     -6.0930997398    -2.1522930706     8.0044900357
Ni      4.9187670918    -0.0382866561     7.9545149413
Ni     -2.3337335804    -0.0741441136     7.9337417701
Ni      6.1464047432     2.0801159577     8.1819006652
Ni     -1.1521225878     2.0965973224     8.0177667200
Ni      3.7018929519    -2.1197210090     7.9704929917
Ni     -3.6218940963    -2.1733642314     8.0244493068
O       6.2994421414     1.7427889014    10.0881909659
H       9.1171641162     2.3282560984    10.2795005211
H       8.6096699632     2.8609650961    10.0240126289
H       2.0715437569    -2.8724473921    10.9281223197
C       6.2277132663     2.5227445856    11.0538342560
O       7.3884878033     0.8369567282    12.3424895799
H      -7.4061835121     0.5105455073    11.4203349914
C       6.7510440324     2.0951554804    12.3857332306
H       5.8524031845     2.0469272698    13.0438682619
C       7.6520441456     3.1600444672    13.0349590183
H       3.5545269722    -2.2130525930    12.8555327195
H       8.6505755936     3.0961705824    12.5736540089
O       7.6873823688     2.8626026395    14.4300837904
H       8.4358606491     3.3315943783    14.8325550997
O      -4.1828137831     1.0402771405     9.6054415506
H      -3.4357481523     0.6333750861    10.0891270072
88
Step 3 | NEB Image 3 | Cartesian Angstrom
Ni      1.2285271350     0.7092904720     2.0000000000
Ni     -6.1433728650     0.7092904720     2.0000000000
Ni      2.4570542700     2.8371618880     2.0000000000
Ni     -4.9148457300     2.8371618880     2.0000000000
Ni      0.0000000000    -1.4185809440     2.0000000000
Ni     -7.3719000000    -1.4185809440     2.0000000000
Ni      3.6855814050     0.7092904720     2.0000000000
Ni     -3.6863185950     0.7092904720     2.0000000000
Ni      4.9141085400     2.8371618880     2.0000000000
Ni     -2.4577914600     2.8371618880     2.0000000000
Ni      2.4570542700    -1.4185809440     2.0000000000
Ni     -4.9148457300    -1.4185809440     2.0000000000
Ni      6.1433728650     0.7092904720     2.0000000000
Ni     -1.2285271350     0.7092904720     2.0000000000
Ni      7.3719000000     2.8371618880     2.0000000000
Ni      0.0000000000     2.8371618880     2.0000000000
Ni      4.9148457300    -1.4185809440     2.0000000000
Ni     -2.4570542700    -1.4185809440     2.0000000000
Ni      0.0304208283    -0.0132135473     3.9973748763
Ni     -7.3418382105    -0.0208377554     3.9992235688
Ni      1.2500195815     2.1117152331     3.9986022632
Ni     -6.1082005995     2.1132327234     3.9978706030
Ni     -1.1985151569    -2.1434554581     3.9954814296
Ni     -8.5744746597    -2.1373859371     4.0098701146
Ni      2.4881332319    -0.0071880585     4.0029101396
Ni     -4.8836066130    -0.0200032464     3.9983741450
Ni      3.7134202101     2.1068394743     4.0011644850
Ni     -3.6571580109     2.1165902883     4.0090091684
Ni      1.2608932717    -2.1420220176     3.9935081172
Ni     -6.1188982170    -2.1516386716     4.0071478024
Ni      4.9422273988    -0.0146015562     4.0122873941
Ni     -2.4291898765    -0.0159407248     3.9959858015
Ni      6.1759197170     2.1105883860     3.9975887127
Ni     -1.2088075064     2.1166957731     4.0057982358
Ni      3.7188479187    -2.1338575239     3.9889831089
Ni     -3.6586237183    -2.1492380774     3.9965715623
Ni      1.2097136008     0.7252474340     6.0162019629
Ni     -6.1768140021     0.7155852647     6.0091072573
Ni      2.4259190831     2.8512727198     5.9950528613
Ni     -4.9159503135     2.8534617606     6.0209108483
Ni     -0.0302611031    -1.3992436560     6.0028955160
Ni     -7.3809831208    -1.3897245350     6.0407091356
Ni      3.6806914163     0.7165705247     6.0524213303
Ni     -3.7120214561     0.7361581582     6.0153949927
Ni      4.8860031620     2.8585894625     5.9989920128
Ni     -2.4999391957     2.8344334034     6.0720595917
Ni      2.4314647301    -1.3944598800     6.0020819205
Ni     -4.9357173651    -1.4177673654     6.0069519709
Ni      6.1210608479     0.7144850705     6.0097459491
Ni     -1.2503725216     0.7266208786     6.0028194294
Ni      7.3523542782     2.8666905660     5.9831402176
Ni     -0.0343917890     2.8481692782     6.0173235776
Ni      4.9064200391    -1.3837075641     6.0435613129
Ni     -2.4935782928    -1.4071834552     6.0003813066
Ni      0.0031255313     0.0009138598     8.0103213032
Ni     -7.3380963598    -0.0117549228     8.1170430272
Ni      1.2341283572     2.1236529897     8.0157047426
Ni      8.6084720041     2.1536177548     7.9273278721
Ni     -1.2256227166    -2.1277162571     7.9982694026
Ni     -8.5816793917    -2.1512867357     8.0038129981
Ni      2.4514268955     0.0011376484     8.0299848646
Ni     -4.8964860003    -0.0362708673     7.9699957727
Ni      3.6489581822     2.1658379356     7.9824107427
Ni     -3.6805174347     2.0927462726     8.1683664718
Ni      1.2232752475    -2.1109413552     7.9993177790
Ni     -6.1259160005    -2.1349810140     8.0327695829
Ni      4.8899189125    -0.0091966485     8.1731974076
Ni     -2.4288794494    -0.0238933344     7.9723163616
Ni      6.1550064882     2.1657226093     7.9651706414
Ni     -1.2063611120     2.1126317297     8.0334206258
Ni      3.6881186711    -2.1032346964     7.9948989143
Ni     -3.6763811856    -2.1438479045     8.0206041494
O       6.1894779114     0.9054093859     9.4339941776
H      10.1310335303     2.3877876005    10.6536560109
H       7.2945950922     2.2084818137    10.6101682141
H       1.8339866298    -3.9375098036    10.6706702727
C       6.3098005456     1.6851025771    10.6504792032
O       7.1949485958    -0.1213296660    11.8699348482
H      -7.0127564451    -0.1820119809    11.0197397564
C       6.3251586613     0.8426387977    11.9182331512
H       6.9534862047     3.5108974025    12.6131244141
C       7.7960217486     3.8045085934    13.2539769520
H       3.9668695485    -1.5296785577    13.5526170372
H       8.7316502742     3.7465306346    12.6624783300
O       7.8046709000     2.9053022887    14.3644461490
H       8.2021878513     3.3552165627    15.1259403210
O      -4.1748972025     1.6086785572    10.2597102522
H      -3.3613298267     1.4398331357    10.7714749724
88
Step 4 | NEB Image 4 | Cartesian Angstrom
Ni      1.2285271350     0.7092904720     2.0000000000
Ni     -6.1433728650     0.7092904720     2.0000000000
Ni      2.4570542700     2.8371618880     2.0000000000
Ni     -4.9148457300     2.8371618880     2.0000000000
Ni      0.0000000000    -1.4185809440     2.0000000000
Ni     -7.3719000000    -1.4185809440     2.0000000000
Ni      3.6855814050     0.7092904720     2.0000000000
Ni     -3.6863185950     0.7092904720     2.0000000000
Ni      4.9141085400     2.8371618880     2.0000000000
Ni     -2.4577914600     2.8371618880     2.0000000000
Ni      2.4570542700    -1.4185809440     2.0000000000
Ni     -4.9148457300    -1.4185809440     2.0000000000
Ni      6.1433728650     0.7092904720     2.0000000000
Ni     -1.2285271350     0.7092904720     2.0000000000
Ni      7.3719000000     2.8371618880     2.0000000000
Ni      0.0000000000     2.8371618880     2.0000000000
Ni      4.9148457300    -1.4185809440     2.0000000000
Ni     -2.4570542700    -1.4185809440     2.0000000000
Ni      0.0367015752    -0.0147784709     3.9980515656
Ni     -7.3365902784    -0.0157673660     3.9993547996
Ni      1.2609158928     2.1099916579     3.9980227270
Ni     -6.1031747900     2.1157811065     3.9981736810
Ni     -1.1912105174    -2.1425714783     3.9974254536
Ni     -8.5677492888    -2.1411474849     4.0047278825
Ni      2.4963201707    -0.0104382744     4.0034764429
Ni     -4.8757067982    -0.0163441566     3.9957735753
Ni      3.7228096177     2.1083661950     4.0038879038
Ni     -3.6509657018     2.1147932053     4.0083579053
Ni      1.2659422909    -2.1441944095     3.9976437815
Ni     -6.1086125952    -2.1487150721     3.9989140840
Ni      4.9515336228    -0.0136900082     4.0116615913
Ni     -2.4242206822    -0.0149312202     3.9981913029
Ni      6.1815827274     2.1128525238     4.0037475405
Ni     -1.1984625625     2.1148214906     4.0007205411
Ni      3.7221573060    -2.1379233202     3.9898694495
Ni     -3.6479658302    -2.1478106082     3.9931260267
Ni      1.2149965626     0.7266133314     6.0139522133
Ni     -6.1654892816     0.7175055706     6.0076466915
Ni      2.4377879323     2.8531394812     5.9965251530
Ni     -4.9055685351     2.8499678535     6.0249678584
Ni     -0.0192324783    -1.3988585445     6.0080439405
Ni     -7.3765775446    -1.3855961921     6.0178516687
Ni      3.6853667190     0.7200766481     6.0480294178
Ni     -3.7000864053     0.7429582743     6.0303719048
Ni      4.8997269177     2.8590246337     6.0162929590
Ni     -2.4867842739     2.8420259175     6.0462617531
Ni      2.4379801493    -1.3954361108     6.0049903747
Ni     -4.9214363481    -1.4101669985     5.9972177503
Ni      6.1270916057     0.7276856072     6.0191549457
Ni     -1.2443876260     0.7271400916     6.0016918381
Ni      7.3626176577     2.8594853875     5.9989531742
Ni     -0.0214078741     2.8547660775     6.0079186015
Ni      4.9085267277    -1.3866662404     6.0277940980
Ni     -2.4814675326    -1.4023988845     6.0026215100
Ni      0.0039341399     0.0108277081     8.0131553411
Ni     -7.3327896488    -0.0137307491     8.1075599242
Ni      1.2393129801     2.1309707921     8.0104323511
Ni      8.6316066982     2.1508451276     7.9448691973
Ni     -1.2191033666    -2.1230376873     8.0020887035
Ni     -8.5835524843    -2.1430891145     7.9785755245
Ni      2.4533339670     0.0100054566     8.0270004831
Ni     -4.8893014453    -0.0212124546     7.9773172968
Ni      3.6554609087     2.1665600451     7.9892404876
Ni     -3.6651587575     2.1092814825     8.1776568807
Ni      1.2251639035    -2.0990048371     8.0143320830
Ni     -6.1154172010    -2.1240746793     7.9962944549
Ni      4.8971581110    -0.0172185290     8.1382309692
Ni     -2.4240920988    -0.0195657469     7.9877594661
Ni      6.1618775418     2.2022652633     8.0290072155
Ni     -1.1945064964     2.1233821093     8.0065414388
Ni      3.6919087869    -2.1002734951     7.9965531493
Ni     -3.6720173936    -2.1328348104     8.0173467564
O       6.1804046111     0.8492135190     9.3834501823
H      10.8184683254     2.9322604625    10.5942545063
H       7.0119512229     2.0233824999    10.8939399080
H       1.7353995323    -5.0689764165    11.2564766762
C       6.3909065242     1.1105485685    10.7809887280
O       7.7671377283    -0.8448487151    10.9538105822
H      -6.9597919821    -0.8369171098     9.8478542128
C       7.1281833473     0.0708060549    11.5587355439
H       8.4218569908     4.2504116846    11.8292649712
C       8.5265206261     4.3548675809    12.9235094012
H       4.0093179761    -1.4093672583    13.2915542774
H       9.4666128202     4.8847724700    13.1312296888
O       8.4755969134     3.0576121867    13.5337574123
H       9.2912971878     2.9200275910    14.0380991236
O      -3.7806736902     2.0158676634    10.2862102320
H      -2.8680211623     1.7832912317    10.5485240244
88
Step 5 | NEB Image 5 | Cartesian Angstrom
Ni      1.2285271350     0.7092904720     2.0000000000
Ni     -6.1433728650     0.7092904720     2.0000000000
Ni      2.4570542700     2.8371618880     2.0000000000
Ni     -4.9148457300     2.8371618880     2.0000000000
Ni      0.0000000000    -1.4185809440     2.0000000000
Ni     -7.3719000000    -1.4185809440     2.0000000000
Ni      3.6855814050     0.7092904720     2.0000000000
Ni     -3.6863185950     0.7092904720     2.0000000000
Ni      4.9141085400     2.8371618880     2.0000000000
Ni     -2.4577914600     2.8371618880     2.0000000000
Ni      2.4570542700    -1.4185809440     2.0000000000
Ni     -4.9148457300    -1.4185809440     2.0000000000
Ni      6.1433728650     0.7092904720     2.0000000000
Ni     -1.2285271350     0.7092904720     2.0000000000
Ni      7.3719000000     2.8371618880     2.0000000000
Ni      0.0000000000     2.8371618880     2.0000000000
Ni      4.9148457300    -1.4185809440     2.0000000000
Ni     -2.4570542700    -1.4185809440     2.0000000000
Ni      0.0464326620    -0.0306468460     3.9976675890
Ni     -7.3257303870    -0.0255862300     3.9933782980
Ni      1.2739848450     2.0960038070     3.9979157030
Ni     -6.1026021170     2.1049500680     4.0019149180
Ni     -1.1827110610    -2.1546561820     3.9989053170
Ni     -8.5597082650    -2.1592869340     3.9982394010
Ni      2.5024778430    -0.0256743600     4.0031952220
Ni     -4.8641413240    -0.0227350050     3.9956475690
Ni      3.7346756480     2.0985190290     4.0083618800
Ni     -3.6458198020     2.0991473590     4.0056686860
Ni      1.2703768650    -2.1597674920     4.0015811390
Ni     -6.0933336510    -2.1603781540     3.9902680500
Ni      4.9590538200    -0.0289845540     4.0074783820
Ni     -2.4167678920    -0.0248088220     4.0022401470
Ni      6.1885777810     2.1026461420     4.0098077600
Ni     -1.1844811720     2.0985803670     3.9964394390
Ni      3.7245308300    -2.1560713310     3.9888953010
Ni     -3.6351397940    -2.1574140910     3.9933365850
Ni      1.2278611130     0.7073057200     6.0134419810
Ni     -6.1428898530     0.6957346210     6.0102358510
Ni      2.4563605190     2.8356121920     5.9987058000
Ni     -4.8924583120     2.8187736320     6.0264580820
Ni      0.0002252210    -1.4241376010     6.0155868270
Ni     -7.3667991100    -1.4101212980     5.9895528060
Ni      3.6921281460     0.7008202940     6.0360645010
Ni     -3.6779272240     0.7256007260     6.0512861550
Ni      4.9267336850     2.8309168990     6.0432780270
Ni     -2.4664659500     2.8157315660     6.0151173370
Ni      2.4509011280    -1.4197685090     6.0062316800
Ni     -4.8985683740    -1.4191884620     5.9881596610
Ni      6.1372839650     0.7115480370     6.0073921100
Ni     -1.2256557510     0.7019370040     6.0032560690
Ni      7.3730564330     2.8242126570     6.0269074010
Ni     -0.0034566730     2.8405670140     6.0010880700
Ni      4.9162369820    -1.4189308570     6.0083232610
Ni     -2.4596272260    -1.4182314770     6.0084483810
Ni      0.0277268390    -0.0168450280     8.0180888710
Ni     -7.3091221710    -0.0327920680     8.0371701400
Ni      1.2611452740     2.1078740620     8.0062525300
Ni      8.6667549770     2.1138793650     7.9801313330
Ni     -1.1942402360    -2.1496555940     8.0109921590
Ni     -8.5668484660    -2.1735761150     7.9430911750
Ni      2.4712577410    -0.0190631580     8.0243063390
Ni     -4.8670711400    -0.0431110720     7.9967287920
Ni      3.6750137580     2.1321536040     7.9940007810
Ni     -3.6274773380     2.0999917070     8.2089215290
Ni      1.2517815200    -2.1329879940     8.0267060850
Ni     -6.0785108950    -2.1534189890     7.9361595560
Ni      4.9123316280    -0.0512787390     8.0829089500
Ni     -2.4007725170    -0.0429334740     8.0081832520
Ni      6.1908597070     2.1505617180     8.1094472440
Ni     -1.1654360560     2.0989982700     7.9806126390
Ni      3.7077660390    -2.1419918620     7.9975968800
Ni     -3.6463297530    -2.1524111230     8.0158878220
O       6.1707187590     0.6663307040     9.3727337630
H      11.2555922500     3.1706166680    10.5266232770
H       7.1149227860     1.0824741990    11.1550798120
H       1.6297081310    -5.3793991980    11.2177269450
C       6.2238707100     0.5353136510    10.8108846880
O       7.5718415080    -1.5277099790    10.9241884940
H      -6.8828388710    -1.2337967880    10.0124245870
C       6.2850334910    -0.9302036460    11.2182633770
H       9.1791669060     4.9099545600    10.6626973770
C       9.7467965870     5.2786349730    12.7161077750
H       5.0959169980    -0.6608682970    12.9933131080
H      10.5457770910     5.8077082870    13.2666670860
O       9.6783811350     3.9068622240    13.1006105230
H      10.5447055700     3.5019751520    12.9206205020
O      -3.5153567700     2.2005093110    10.2599052050
H      -2.6227032800     1.8412518110    10.4321503050
