88
Step 1 | NEB Image 1 | Cartesian Angstrom
Ni      1.2285271350     0.7092904720     2.0000000000
Ni     -6.1433728650     0.7092904720     2.0000000000
Ni      2.4570542700     2.8371618880     2.0000000000
Ni     -4.9148457300     2.8371618880     2.0000000000
Ni      0.0000000000    -1.4185809440     2.0000000000
Ni     -7.3719000000    -1.4185809440     2.0000000000
Ni      3.6855814050     0.7092904720     2.0000000000
Ni     -3.6863185950     0.7092904720     2.0000000000
Ni      4.9141085400     2.8371618880     2.0000000000
Ni     -2.4577914600     2.8371618880     2.0000000000
Ni      2.4570542700    -1.4185809440     2.0000000000
Ni     -4.9148457300    -1.4185809440     2.0000000000
Ni      6.1433728650     0.7092904720     2.0000000000
Ni     -1.2285271350     0.7092904720     2.0000000000
Ni      7.3719000000     2.8371618880     2.0000000000
Ni      0.0000000000     2.8371618880     2.0000000000
Ni      4.9148457300    -1.4185809440     2.0000000000
Ni     -2.4570542700    -1.4185809440     2.0000000000
Ni      0.0345187234    -0.0219895959     3.9906686506
Ni     -7.3332872529    -0.0205271350     3.9970929970
Ni      1.2574298371     2.1090479016     3.9981086770
Ni     -6.1061214153     2.1042281316     4.0017605185
Ni     -1.1958375155    -2.1495425789     3.9888614873
Ni     -8.5615731291    -2.1597422030     3.9935633301
Ni      2.4909200515    -0.0209290578     3.9889124626
Ni     -4.8775455868    -0.0288695998     4.0155932973
Ni      3.7235299523     2.1102350339     3.9932622384
Ni     -3.6483031855     2.1055811522     4.0174271749
Ni      1.2597529797    -2.1544756242     3.9969618463
Ni     -6.1074652262    -2.1506208434     4.0019689283
Ni      4.9550771908    -0.0234645643     3.9935565644
Ni     -2.4269867653    -0.0199772708     3.9982338911
Ni      6.1741097051     2.1083418571     4.0046158614
Ni     -1.1996729370     2.1123145435     4.0000024585
Ni      3.7197951829    -2.1539414756     3.9921760547
Ni     -3.6589301935    -2.1514998115     3.9994955107
Ni      1.2136841869     0.7163863979     5.9963073096
Ni     -6.1473437226     0.7096773911     6.0218176054
Ni      2.4453295017     2.8415084524     5.9971730433
Ni     -4.9231971923     2.8360653972     6.0327934449
Ni     -0.0226348385    -1.4110330430     6.0020236029
Ni     -7.3908667378    -1.4145678834     5.9981301391
Ni      3.6669417345     0.7157583701     5.9869138182
Ni     -3.7108784987     0.7190435175     6.0328517480
Ni      4.9057976617     2.8388244163     6.0411982092
Ni     -2.4814248435     2.8298458387     6.0521186228
Ni      2.4355069788    -1.4085502466     5.9888639843
Ni     -4.9252928465    -1.4026264080     6.0548563839
Ni      6.1341025786     0.7315238745     6.0218817427
Ni     -1.2402669783     0.7221835538     5.9926808095
Ni      7.3408175190     2.8291688103     6.0248565089
Ni     -0.0225097209     2.8466795557     6.0142376281
Ni      4.9088271165    -1.4251457534     5.9900387779
Ni     -2.4790699264    -1.4211153466     5.9913638200
Ni      0.0337137405    -0.0099863123     8.0038502320
Ni     -7.3606520147    -0.0334139511     7.9835827732
Ni      1.2525382386     2.1076756093     8.0014158677
Ni      8.5596645315     2.1514300915     7.9633346422
Ni     -1.1983605499    -2.1613845897     8.0018652759
Ni     -8.5927669864    -2.1264268734     8.0165035337
Ni      2.4708324722    -0.0109047600     8.0065027389
Ni     -4.8995212632    -0.0584838282     8.1493062015
Ni      3.6789469906     2.1047412898     7.9888648741
Ni     -3.6333178494     2.1270714900     8.1546283531
Ni      1.2394335961    -2.1164979174     7.9892760222
Ni     -6.1305722611    -2.1461024656     7.9989212299
Ni      4.9150163145    -0.0283439881     7.9490640309
Ni     -2.3653823178    -0.0601929248     7.9425724452
Ni      6.1349712758     2.1197335004     8.1598232492
Ni     -1.1861990586     2.1067384809     8.0263285947
Ni      3.6953023012    -2.1157302873     7.9694462946
Ni     -3.6468332403    -2.1628724713     8.0264725749
O       5.9486020032     1.9536774433    10.1568983318
H       6.2023593986     1.0444615420    10.4395396161
H       7.6485803319     2.9982816350    10.7947394844
H       2.3841835216    -2.5662265370    10.9995346326
C       6.5922936452     2.8570131008    11.0871865803
O       6.8828593053     0.8516013498    12.3925733789
H      -6.8879959571     0.8254517200    12.3248078773
C       6.4620997723     2.2299052156    12.4710261049
H       5.3979785171     2.1706601767    12.7461907790
C       7.1981974178     3.0342299686    13.5247288963
H       3.2389656514    -2.2859498111    13.4051121917
H       8.2901195875     2.9478942375    13.3576433856
O       6.8260697992     2.5426661176    14.8120038538
H       7.2522042786     3.0948827032    15.4870039972
O      -4.3927237137     1.0982075682     9.5865509607
H      -3.6717371060     0.6667680985    10.0888232085
88
Step 2 | NEB Image 2 | Cartesian Angstrom
Ni      1.2285271350     0.7092904720     2.0000000000
Ni     -6.1433728650     0.7092904720     2.0000000000
Ni      2.4570542700     2.8371618880     2.0000000000
Ni     -4.9148457300     2.8371618880     2.0000000000
Ni      0.0000000000    -1.4185809440     2.0000000000
Ni     -7.3719000000    -1.4185809440     2.0000000000
Ni      3.6855814050     0.7092904720     2.0000000000
Ni     -3.6863185950     0.7092904720     2.0000000000
Ni      4.9141085400     2.8371618880     2.0000000000
Ni     -2.4577914600     2.8371618880     2.0000000000
Ni      2.4570542700    -1.4185809440     2.0000000000
Ni     -4.9148457300    -1.4185809440     2.0000000000
Ni      6.1433728650     0.7092904720     2.0000000000
Ni     -1.2285271350     0.7092904720     2.0000000000
Ni      7.3719000000     2.8371618880     2.0000000000
Ni      0.0000000000     2.8371618880     2.0000000000
Ni      4.9148457300    -1.4185809440     2.0000000000
Ni     -2.4570542700    -1.4185809440     2.0000000000
Ni      0.0379717446    -0.0158030036     3.9917966483
Ni     -7.3190772531    -0.0070771256     4.0062707235
Ni      1.2603583291     2.1174033788     3.9958047417
Ni     -6.1047893878     2.1162285985     4.0279712009
Ni     -1.1917119373    -2.1405269763     3.9885535261
Ni     -8.5553626365    -2.1506097389     4.0024597540
Ni      2.4962277752    -0.0168626835     3.9911892871
Ni     -4.8783343321    -0.0099795285     4.0272955345
Ni      3.7279129618     2.1148940229     3.9949761788
Ni     -3.6434905561     2.1193635244     4.0186289861
Ni      1.2649944109    -2.1475538443     4.0001945677
Ni     -6.1009697899    -2.1364917902     4.0064647051
Ni      4.9649964165    -0.0186098290     3.9979636392
Ni     -2.4257099741    -0.0076110371     3.9998916288
Ni      6.1818252418     2.1169289858     4.0054699044
Ni     -1.1962466619     2.1226176647     3.9984333326
Ni      3.7255883451    -2.1531164807     4.0004454446
Ni     -3.6563650652    -2.1347606109     4.0007506597
Ni      1.2206882808     0.7300640299     5.9937234961
Ni     -6.1184580751     0.7522855122     6.0895026015
Ni      2.4489979565     2.8560065421     5.9894646163
Ni     -4.9195075904     2.8425199463     6.0558535589
Ni     -0.0122594241    -1.4001522244     6.0052370296
Ni     -7.3757476175    -1.3936646836     6.0060500903
Ni      3.6749998786     0.7247513046     5.9871844931
Ni     -3.6962197086     0.7394752048     6.0420007547
Ni      4.9167703217     2.8479819672     6.0429254194
Ni     -2.4703357656     2.8584732104     6.0493452617
Ni      2.4433428149    -1.4030598669     5.9997054394
Ni     -4.9124036537    -1.3665572270     6.0620732675
Ni      6.1478771148     0.7353119595     6.0138601473
Ni     -1.2307197030     0.7384760765     5.9907898265
Ni      7.3531243695     2.8321327502     6.0690057483
Ni     -0.0134704601     2.8694034709     6.0041978045
Ni      4.9109894944    -1.4155375391     5.9948867795
Ni     -2.4657303931    -1.4029803506     5.9911197839
Ni      0.0425111334     0.0033067446     8.0020384701
Ni     -7.3185361971    -0.0157919424     7.9836629462
Ni      1.2543681059     2.1297141762     7.9962159316
Ni      8.5730346380     2.2233100609     8.1576235221
Ni     -1.1904237300    -2.1418182631     8.0030700819
Ni     -8.5597827225    -2.0847735353     8.0010694395
Ni      2.4631974644     0.0109122021     8.0048746062
Ni     -4.8182069139    -0.0108985257     8.2386130978
Ni      3.6663857306     2.1288324772     7.9814540764
Ni     -3.5795030748     2.1661440404     8.1331653090
Ni      1.2419111233    -2.1143261726     8.0134818234
Ni     -6.0846220369    -2.1032849159     8.0081554417
Ni      4.9062898636    -0.0112710489     7.9556742052
Ni     -2.3462963614    -0.0398315254     7.9492117156
Ni      6.1084350075     2.1089221220     8.1425520999
Ni     -1.1612054780     2.1328745938     8.0119080495
Ni      3.6723681476    -2.0765042961     7.9869405756
Ni     -3.6309586340    -2.1367754826     8.0265554914
O       6.1190598985     1.5076690528    10.0571947903
H       9.0275202628     2.6199304293     9.6653392385
H       8.2813830643     2.2717795517     9.7295330881
H       1.5984698726    -3.3337014954    11.0760076391
C       5.9697388385     2.1881689756    11.0886376670
O       7.3771277748     0.5770370743    12.1923577372
H      -7.4917550164     0.2811997022    11.2606782797
C       6.6852152213     1.8033635391    12.3472539205
H       5.8881605087     1.7365630027    13.1213853389
C       7.5501374483     2.9661030504    12.9324762608
H       3.4117469071    -2.4314402014    12.7023906991
H       8.5521482586     2.9330569584    12.4789503506
O       7.6111559720     2.7713395775    14.3515129122
H       8.2521600514     3.3983822807    14.7307967798
O      -4.0833493192     1.1323842061     9.6587597294
H      -3.2858567504     0.8577067191    10.1551039262
88
Step 3 | NEB Image 3 | Cartesian Angstrom
Ni      1.2285271350     0.7092904720     2.0000000000
Ni     -6.1433728650     0.7092904720     2.0000000000
Ni      2.4570542700     2.8371618880     2.0000000000
Ni     -4.9148457300     2.8371618880     2.0000000000
Ni      0.0000000000    -1.4185809440     2.0000000000
Ni     -7.3719000000    -1.4185809440     2.0000000000
Ni      3.6855814050     0.7092904720     2.0000000000
Ni     -3.6863185950     0.7092904720     2.0000000000
Ni      4.9141085400     2.8371618880     2.0000000000
Ni     -2.4577914600     2.8371618880     2.0000000000
Ni      2.4570542700    -1.4185809440     2.0000000000
Ni     -4.9148457300    -1.4185809440     2.0000000000
Ni      6.1433728650     0.7092904720     2.0000000000
Ni     -1.2285271350     0.7092904720     2.0000000000
Ni      7.3719000000     2.8371618880     2.0000000000
Ni      0.0000000000     2.8371618880     2.0000000000
Ni      4.9148457300    -1.4185809440     2.0000000000
Ni     -2.4570542700    -1.4185809440     2.0000000000
Ni      0.0300053766    -0.0094191412     3.9965107626
Ni     -7.3400178649    -0.0149994827     4.0000746667
Ni      1.2520726833     2.1145323132     3.9965493321
Ni     -6.1040074328     2.1172928494     3.9976064565
Ni     -1.1979231389    -2.1383699096     3.9951252774
Ni     -8.5702628887    -2.1358313265     4.0090496192
Ni      2.4903930750    -0.0054227887     4.0016294717
Ni     -4.8808189176    -0.0147401990     3.9980704484
Ni      3.7154497573     2.1110696066     3.9984222950
Ni     -3.6548356004     2.1200803020     4.0104770947
Ni      1.2614338375    -2.1388671193     3.9933551766
Ni     -6.1158444593    -2.1453500898     4.0052564647
Ni      4.9467083106    -0.0111809944     4.0107990490
Ni     -2.4294065570    -0.0110932422     3.9963358207
Ni      6.1786433419     2.1144741417     3.9994520369
Ni     -1.2064550068     2.1206419310     4.0023608194
Ni      3.7205022186    -2.1320080262     3.9858906175
Ni     -3.6558721430    -2.1443762542     3.9944504811
Ni      1.2065260484     0.7325312369     6.0135237385
Ni     -6.1771039177     0.7240015985     6.0097777067
Ni      2.4256838165     2.8597376133     5.9904820262
Ni     -4.9135344983     2.8600032195     6.0268555380
Ni     -0.0305677802    -1.3907875650     6.0040960023
Ni     -7.3824727363    -1.3770174401     6.0353928689
Ni      3.6770768650     0.7252239720     6.0438776659
Ni     -3.7109087781     0.7474986985     6.0243006753
Ni      4.8867550782     2.8678072629     5.9992744308
Ni     -2.4972721437     2.8492777496     6.0616112616
Ni      2.4300453498    -1.3889701738     6.0012821113
Ni     -4.9326960713    -1.4076041615     6.0046828086
Ni      6.1201936197     0.7294727912     6.0134030568
Ni     -1.2539169867     0.7355504075     6.0018346849
Ni      7.3575961233     2.8716911344     5.9846191120
Ni     -0.0325975895     2.8589787428     6.0117693090
Ni      4.9034902135    -1.3794787820     6.0330223330
Ni     -2.4929527779    -1.3965254749     6.0011960177
Ni     -0.0080533017     0.0187609899     8.0105697144
Ni     -7.3519063783     0.0069605143     8.1278930308
Ni      1.2277826044     2.1388795348     8.0102561482
Ni      8.6118039388     2.1614189001     7.9345879309
Ni     -1.2325174942    -2.1146148780     7.9978384202
Ni     -8.5896491848    -2.1285482783     7.9969439841
Ni      2.4402099975     0.0170497832     8.0254224539
Ni     -4.9065855275    -0.0163282829     7.9731196065
Ni      3.6387704500     2.1798728262     7.9728697627
Ni     -3.6791497935     2.1148629137     8.1673775380
Ni      1.2115449309    -2.0886550821     8.0057071636
Ni     -6.1323043353    -2.1108548586     8.0243526964
Ni      4.8786445631    -0.0097027029     8.1455146944
Ni     -2.4367601452    -0.0110416466     7.9810569052
Ni      6.1528753865     2.2139187252     7.9816613572
Ni     -1.2080801945     2.1314649118     8.0188237771
Ni      3.6805259033    -2.0895807491     7.9918931425
Ni     -3.6843796779    -2.1261371762     8.0208442766
O       6.0802861817     0.9315514720     9.3850872639
H      10.4907256346     2.7991507582    10.5512189963
H       6.7756404814     2.3153323320    10.7655818402
H       1.4074588039    -4.5734240469    10.9936122397
C       6.0958696108     1.4395688357    10.7305877121
O       7.1283119831    -0.5927530394    11.3519908878
H      -7.5843141931    -0.7001873332    10.3280283186
C       6.5940354725     0.5028240189    11.7774570477
H       6.4698122833     3.2539259211    13.1903757473
C       7.4561081079     3.6065025375    13.5101924796
H       3.8186113230    -1.6875013540    13.3696912742
H       8.2149852527     3.1280292417    12.8688254142
O       7.5957927379     3.2282074068    14.8750415790
H       8.3910058682     3.6483182808    15.2387384203
O      -3.9546289556     1.9178969881    10.2511163380
H      -3.0716731787     1.7690740738    10.6412678118
88
Step 4 | NEB Image 4 | Cartesian Angstrom
Ni      1.2285271350     0.7092904720     2.0000000000
Ni     -6.1433728650     0.7092904720     2.0000000000
Ni      2.4570542700     2.8371618880     2.0000000000
Ni     -4.9148457300     2.8371618880     2.0000000000
Ni      0.0000000000    -1.4185809440     2.0000000000
Ni     -7.3719000000    -1.4185809440     2.0000000000
Ni      3.6855814050     0.7092904720     2.0000000000
Ni     -3.6863185950     0.7092904720     2.0000000000
Ni      4.9141085400     2.8371618880     2.0000000000
Ni     -2.4577914600     2.8371618880     2.0000000000
Ni      2.4570542700    -1.4185809440     2.0000000000
Ni     -4.9148457300    -1.4185809440     2.0000000000
Ni      6.1433728650     0.7092904720     2.0000000000
Ni     -1.2285271350     0.7092904720     2.0000000000
Ni      7.3719000000     2.8371618880     2.0000000000
Ni      0.0000000000     2.8371618880     2.0000000000
Ni      4.9148457300    -1.4185809440     2.0000000000
Ni     -2.4570542700    -1.4185809440     2.0000000000
Ni      0.0396617022    -0.0218475924     4.0015776688
Ni     -7.3377256752    -0.0179382837     4.0021277283
Ni      1.2683894949     2.1034070849     3.9970468222
Ni     -6.1047444018     2.1099032232     4.0019945478
Ni     -1.1885395112    -2.1458228738     4.0003175063
Ni     -8.5617370595    -2.1451199710     4.0044900839
Ni      2.5010546372    -0.0125133319     4.0045400053
Ni     -4.8779866303    -0.0142343537     4.0012403718
Ni      3.7269033420     2.1077722617     4.0087171590
Ni     -3.6492265300     2.1100788060     4.0106526317
Ni      1.2718815490    -2.1507399810     4.0031923511
Ni     -6.1036093828    -2.1493807577     3.9982428410
Ni      4.9563459874    -0.0163895208     4.0116715980
Ni     -2.4260399030    -0.0184981766     3.9994389623
Ni      6.1835377621     2.1080960929     4.0095335842
Ni     -1.1944658376     2.1078980978     4.0000695326
Ni      3.7228410457    -2.1398572047     3.9909831084
Ni     -3.6442286565    -2.1487311026     3.9913115079
Ni      1.2158000480     0.7215326685     6.0134172227
Ni     -6.1630705615     0.7058503300     6.0230665951
Ni      2.4457091456     2.8495058703     6.0031158421
Ni     -4.9059113876     2.8376275415     6.0207537822
Ni     -0.0103063118    -1.4090702851     6.0110011364
Ni     -7.3769504894    -1.3878891536     6.0199860088
Ni      3.6900851527     0.7144449854     6.0484258353
Ni     -3.7013241936     0.7288277728     6.0434699938
Ni      4.9158996891     2.8442122532     6.0345516158
Ni     -2.4792420414     2.8351708767     6.0186610936
Ni      2.4411149996    -1.3988307767     6.0084229606
Ni     -4.9142022468    -1.4143736517     5.9959381732
Ni      6.1380316623     0.7208186936     6.0397742522
Ni     -1.2450514488     0.7210978580     6.0012780272
Ni      7.3623632726     2.8503810458     6.0118980411
Ni     -0.0102392870     2.8500121742     5.9939659251
Ni      4.9093256160    -1.3975351467     6.0235023592
Ni     -2.4734702656    -1.4057482242     6.0059204048
Ni      0.0098838658     0.0008551108     8.0081521224
Ni     -7.3531106512     0.0028519965     8.1178589711
Ni      1.2447608800     2.1234208190     8.0079073878
Ni      8.6390207200     2.1366731084     7.9588101578
Ni     -1.2095612146    -2.1306221911     8.0020971341
Ni     -8.6004184819    -2.1543097026     7.9615204924
Ni      2.4516598790     0.0015237724     8.0304172642
Ni     -4.8871894351    -0.0347070984     8.0097469436
Ni      3.6630019174     2.1515279195     8.0005541026
Ni     -3.6625823845     2.0941968963     8.1492570497
Ni      1.2380878265    -2.1164782313     8.0245386690
Ni     -6.0956164329    -2.1824712163     7.9724529531
Ni      4.8933009877    -0.0318010325     8.1282142289
Ni     -2.4139648131    -0.0347695622     7.9948354815
Ni      6.1720518990     2.1782094490     8.0707866433
Ni     -1.1788148121     2.1109677016     7.9885270413
Ni      3.6874408803    -2.1189709501     7.9993979303
Ni     -3.6600741371    -2.1446887754     8.0100976986
O       6.1305319884     0.7780771757     9.4281199343
H      11.1848241249     3.1411087192    10.4669289807
H       6.8732026920     1.8631196668    11.0696060156
H       1.6002263470    -5.3244635794    11.3262847851
C       6.2775568228     0.9547376333    10.8483138047
O       7.5891112322    -1.1421613749    11.2522013051
H      -6.4362775956    -1.0042421357     8.9780886644
C       7.0033559523    -0.1400321905    11.5713705402
H       8.0433283545     4.3323180692    11.7595653792
C       8.2550620010     4.3007292503    12.8334871025
H       3.7434245417    -1.6052957341    13.3752721241
H       9.1738846998     4.8726093670    13.0200571490
O       8.4026633459     2.9259463681    13.1813143515
H       8.6448192030     2.8642663635    14.1191132053
O      -3.6457519767     2.1874898836    10.2550923117
H      -2.7723919639     1.7949013451    10.4561516302
88
Step 5 | NEB Image 5 | Cartesian Angstrom
Ni      1.2285271350     0.7092904720     2.0000000000
Ni     -6.1433728650     0.7092904720     2.0000000000
Ni      2.4570542700     2.8371618880     2.0000000000
Ni     -4.9148457300     2.8371618880     2.0000000000
Ni      0.0000000000    -1.4185809440     2.0000000000
Ni     -7.3719000000    -1.4185809440     2.0000000000
Ni      3.6855814050     0.7092904720     2.0000000000
Ni     -3.6863185950     0.7092904720     2.0000000000
Ni      4.9141085400     2.8371618880     2.0000000000
Ni     -2.4577914600     2.8371618880     2.0000000000
Ni      2.4570542700    -1.4185809440     2.0000000000
Ni     -4.9148457300    -1.4185809440     2.0000000000
Ni      6.1433728650     0.7092904720     2.0000000000
Ni     -1.2285271350     0.7092904720     2.0000000000
Ni      7.3719000000     2.8371618880     2.0000000000
Ni      0.0000000000     2.8371618880     2.0000000000
Ni      4.9148457300    -1.4185809440     2.0000000000
Ni     -2.4570542700    -1.4185809440     2.0000000000
Ni      0.0464326620    -0.0306468460     3.9976675890
Ni     -7.3257303870    -0.0255862300     3.9933782980
Ni      1.2739848450     2.0960038070     3.9979157030
Ni     -6.1026021170     2.1049500680     4.0019149180
Ni     -1.1827110610    -2.1546561820     3.9989053170
Ni     -8.5597082650    -2.1592869340     3.9982394010
Ni      2.5024778430    -0.0256743600     4.0031952220
Ni     -4.8641413240    -0.0227350050     3.9956475690
Ni      3.7346756480     2.0985190290     4.0083618800
Ni     -3.6458198020     2.0991473590     4.0056686860
Ni      1.2703768650    -2.1597674920     4.0015811390
Ni     -6.0933336510    -2.1603781540     3.9902680500
Ni      4.9590538200    -0.0289845540     4.0074783820
Ni     -2.4167678920    -0.0248088220     4.0022401470
Ni      6.1885777810     2.1026461420     4.0098077600
Ni     -1.1844811720     2.0985803670     3.9964394390
Ni      3.7245308300    -2.1560713310     3.9888953010
Ni     -3.6351397940    -2.1574140910     3.9933365850
Ni      1.2278611130     0.7073057200     6.0134419810
Ni     -6.1428898530     0.6957346210     6.0102358510
Ni      2.4563605190     2.8356121920     5.9987058000
Ni     -4.8924583120     2.8187736320     6.0264580820
Ni      0.0002252210    -1.4241376010     6.0155868270
Ni     -7.3667991100    -1.4101212980     5.9895528060
Ni      3.6921281460     0.7008202940     6.0360645010
Ni     -3.6779272240     0.7256007260     6.0512861550
Ni      4.9267336850     2.8309168990     6.0432780270
Ni     -2.4664659500     2.8157315660     6.0151173370
Ni      2.4509011280    -1.4197685090     6.0062316800
Ni     -4.8985683740    -1.4191884620     5.9881596610
Ni      6.1372839650     0.7115480370     6.0073921100
Ni     -1.2256557510     0.7019370040     6.0032560690
Ni      7.3730564330     2.8242126570     6.0269074010
Ni     -0.0034566730     2.8405670140     6.0010880700
Ni      4.9162369820    -1.4189308570     6.0083232610
Ni     -2.4596272260    -1.4182314770     6.0084483810
Ni      0.0277268390    -0.0168450280     8.0180888710
Ni     -7.3091221710    -0.0327920680     8.0371701400
Ni      1.2611452740     2.1078740620     8.0062525300
Ni      8.6667549770     2.1138793650     7.9801313330
Ni     -1.1942402360    -2.1496555940     8.0109921590
Ni     -8.5668484660    -2.1735761150     7.9430911750
Ni      2.4712577410    -0.0190631580     8.0243063390
Ni     -4.8670711400    -0.0431110720     7.9967287920
Ni      3.6750137580     2.1321536040     7.9940007810
Ni     -3.6274773380     2.0999917070     8.2089215290
Ni      1.2517815200    -2.1329879940     8.0267060850
Ni     -6.0785108950    -2.1534189890     7.9361595560
Ni      4.9123316280    -0.0512787390     8.0829089500
Ni     -2.4007725170    -0.0429334740     8.0081832520
Ni      6.1908597070     2.1505617180     8.1094472440
Ni     -1.1654360560     2.0989982700     7.9806126390
Ni      3.7077660390    -2.1419918620     7.9975968800
Ni     -3.6463297530    -2.1524111230     8.0158878220
O       6.1707187590     0.6663307040     9.3727337630
H      11.2555922500     3.1706166680    10.5266232770
H       7.1149227860     1.0824741990    11.1550798120
H       1.6297081310    -5.3793991980    11.2177269450
C       6.2238707100     0.5353136510    10.8108846880
O       7.5718415080    -1.5277099790    10.9241884940
H      -6.8828388710    -1.2337967880    10.0124245870
C       6.2850334910    -0.9302036460    11.2182633770
H       9.1791669060     4.9099545600    10.6626973770
C       9.7467965870     5.2786349730    12.7161077750
H       5.0959169980    -0.6608682970    12.9933131080
H      10.5457770910     5.8077082870    13.2666670860
O       9.6783811350     3.9068622240    13.1006105230
H      10.5447055700     3.5019751520    12.9206205020
O      -3.5153567700     2.2005093110    10.2599052050
H      -2.6227032800     1.8412518110    10.4321503050
