88
Step 1 | NEB Image 1 | Cartesian Angstrom
Ni      1.2285271350     0.7092904720     2.0000000000
Ni     -6.1433728650     0.7092904720     2.0000000000
Ni      2.4570542700     2.8371618880     2.0000000000
Ni     -4.9148457300     2.8371618880     2.0000000000
Ni      0.0000000000    -1.4185809440     2.0000000000
Ni     -7.3719000000    -1.4185809440     2.0000000000
Ni      3.6855814050     0.7092904720     2.0000000000
Ni     -3.6863185950     0.7092904720     2.0000000000
Ni      4.9141085400     2.8371618880     2.0000000000
Ni     -2.4577914600     2.8371618880     2.0000000000
Ni      2.4570542700    -1.4185809440     2.0000000000
Ni     -4.9148457300    -1.4185809440     2.0000000000
Ni      6.1433728650     0.7092904720     2.0000000000
Ni     -1.2285271350     0.7092904720     2.0000000000
Ni      7.3719000000     2.8371618880     2.0000000000
Ni      0.0000000000     2.8371618880     2.0000000000
Ni      4.9148457300    -1.4185809440     2.0000000000
Ni     -2.4570542700    -1.4185809440     2.0000000000
Ni      0.0345187234    -0.0219895959     3.9906686506
Ni     -7.3332872529    -0.0205271350     3.9970929970
Ni      1.2574298371     2.1090479016     3.9981086770
Ni     -6.1061214153     2.1042281316     4.0017605185
Ni     -1.1958375155    -2.1495425789     3.9888614873
Ni     -8.5615731291    -2.1597422030     3.9935633301
Ni      2.4909200515    -0.0209290578     3.9889124626
Ni     -4.8775455868    -0.0288695998     4.0155932973
Ni      3.7235299523     2.1102350339     3.9932622384
Ni     -3.6483031855     2.1055811522     4.0174271749
Ni      1.2597529797    -2.1544756242     3.9969618463
Ni     -6.1074652262    -2.1506208434     4.0019689283
Ni      4.9550771908    -0.0234645643     3.9935565644
Ni     -2.4269867653    -0.0199772708     3.9982338911
Ni      6.1741097051     2.1083418571     4.0046158614
Ni     -1.1996729370     2.1123145435     4.0000024585
Ni      3.7197951829    -2.1539414756     3.9921760547
Ni     -3.6589301935    -2.1514998115     3.9994955107
Ni      1.2136841869     0.7163863979     5.9963073096
Ni     -6.1473437226     0.7096773911     6.0218176054
Ni      2.4453295017     2.8415084524     5.9971730433
Ni     -4.9231971923     2.8360653972     6.0327934449
Ni     -0.0226348385    -1.4110330430     6.0020236029
Ni     -7.3908667378    -1.4145678834     5.9981301391
Ni      3.6669417345     0.7157583701     5.9869138182
Ni     -3.7108784987     0.7190435175     6.0328517480
Ni      4.9057976617     2.8388244163     6.0411982092
Ni     -2.4814248435     2.8298458387     6.0521186228
Ni      2.4355069788    -1.4085502466     5.9888639843
Ni     -4.9252928465    -1.4026264080     6.0548563839
Ni      6.1341025786     0.7315238745     6.0218817427
Ni     -1.2402669783     0.7221835538     5.9926808095
Ni      7.3408175190     2.8291688103     6.0248565089
Ni     -0.0225097209     2.8466795557     6.0142376281
Ni      4.9088271165    -1.4251457534     5.9900387779
Ni     -2.4790699264    -1.4211153466     5.9913638200
Ni      0.0337137405    -0.0099863123     8.0038502320
Ni     -7.3606520147    -0.0334139511     7.9835827732
Ni      1.2525382386     2.1076756093     8.0014158677
Ni      8.5596645315     2.1514300915     7.9633346422
Ni     -1.1983605499    -2.1613845897     8.0018652759
Ni     -8.5927669864    -2.1264268734     8.0165035337
Ni      2.4708324722    -0.0109047600     8.0065027389
Ni     -4.8995212632    -0.0584838282     8.1493062015
Ni      3.6789469906     2.1047412898     7.9888648741
Ni     -3.6333178494     2.1270714900     8.1546283531
Ni      1.2394335961    -2.1164979174     7.9892760222
Ni     -6.1305722611    -2.1461024656     7.9989212299
Ni      4.9150163145    -0.0283439881     7.9490640309
Ni     -2.3653823178    -0.0601929248     7.9425724452
Ni      6.1349712758     2.1197335004     8.1598232492
Ni     -1.1861990586     2.1067384809     8.0263285947
Ni      3.6953023012    -2.1157302873     7.9694462946
Ni     -3.6468332403    -2.1628724713     8.0264725749
O       5.9486020032     1.9536774433    10.1568983318
H       6.2023593986     1.0444615420    10.4395396161
H       7.6485803319     2.9982816350    10.7947394844
H       2.3841835216    -2.5662265370    10.9995346326
C       6.5922936452     2.8570131008    11.0871865803
O       6.8828593053     0.8516013498    12.3925733789
H      -6.8879959571     0.8254517200    12.3248078773
C       6.4620997723     2.2299052156    12.4710261049
H       5.3979785171     2.1706601767    12.7461907790
C       7.1981974178     3.0342299686    13.5247288963
H       3.2389656514    -2.2859498111    13.4051121917
H       8.2901195875     2.9478942375    13.3576433856
O       6.8260697992     2.5426661176    14.8120038538
H       7.2522042786     3.0948827032    15.4870039972
O      -4.3927237137     1.0982075682     9.5865509607
H      -3.6717371060     0.6667680985    10.0888232085
88
Step 2 | NEB Image 2 | Cartesian Angstrom
Ni      1.2285271350     0.7092904720     2.0000000000
Ni     -6.1433728650     0.7092904720     2.0000000000
Ni      2.4570542700     2.8371618880     2.0000000000
Ni     -4.9148457300     2.8371618880     2.0000000000
Ni      0.0000000000    -1.4185809440     2.0000000000
Ni     -7.3719000000    -1.4185809440     2.0000000000
Ni      3.6855814050     0.7092904720     2.0000000000
Ni     -3.6863185950     0.7092904720     2.0000000000
Ni      4.9141085400     2.8371618880     2.0000000000
Ni     -2.4577914600     2.8371618880     2.0000000000
Ni      2.4570542700    -1.4185809440     2.0000000000
Ni     -4.9148457300    -1.4185809440     2.0000000000
Ni      6.1433728650     0.7092904720     2.0000000000
Ni     -1.2285271350     0.7092904720     2.0000000000
Ni      7.3719000000     2.8371618880     2.0000000000
Ni      0.0000000000     2.8371618880     2.0000000000
Ni      4.9148457300    -1.4185809440     2.0000000000
Ni     -2.4570542700    -1.4185809440     2.0000000000
Ni      0.0417991295    -0.0264278156     3.9908157602
Ni     -7.3251635252    -0.0200757774     4.0026701194
Ni      1.2640323212     2.1078469691     3.9980221906
Ni     -6.1012630303     2.1029786093     4.0098436194
Ni     -1.1905804683    -2.1516790098     3.9886434426
Ni     -8.5565009550    -2.1617503895     3.9967748902
Ni      2.4975857720    -0.0255971219     3.9909029545
Ni     -4.8756826278    -0.0261122957     4.0205019396
Ni      3.7305193971     2.1066718068     3.9968934291
Ni     -3.6425342169     2.1068700497     4.0188649890
Ni      1.2653582289    -2.1597955100     4.0002861478
Ni     -6.1018996611    -2.1494977240     4.0021938001
Ni      4.9631328548    -0.0268886364     3.9941309051
Ni     -2.4221297600    -0.0201320403     3.9975205438
Ni      6.1811046504     2.1051341954     4.0099278711
Ni     -1.1935886241     2.1111680913     3.9974481020
Ni      3.7252061215    -2.1608406247     3.9963546845
Ni     -3.6556604316    -2.1486524657     3.9998142391
Ni      1.2243249116     0.7120387848     5.9946380531
Ni     -6.1276820396     0.7161688356     6.0486806275
Ni      2.4574632401     2.8369121624     5.9964533093
Ni     -4.9140158355     2.8252966252     6.0425038672
Ni     -0.0100397383    -1.4192019605     6.0043765935
Ni     -7.3778238805    -1.4201373902     6.0014267665
Ni      3.6764050419     0.7094835538     5.9886568046
Ni     -3.6949444614     0.7148989279     6.0303757012
Ni      4.9244314207     2.8268798356     6.0557250164
Ni     -2.4654865341     2.8314334771     6.0482066555
Ni      2.4436272425    -1.4185037085     5.9930782967
Ni     -4.9127385763    -1.3989693502     6.0589064827
Ni      6.1476136417     0.7191303823     6.0243784500
Ni     -1.2259406529     0.7190842687     5.9876900950
Ni      7.3577498279     2.8149964455     6.0439356655
Ni     -0.0089636444     2.8458139985     6.0077834980
Ni      4.9146850926    -1.4298150094     5.9894874665
Ni     -2.4648778812    -1.4266298961     5.9887093449
Ni      0.0546324692    -0.0257536547     8.0017035240
Ni     -7.3158306865    -0.0546265376     7.9798536333
Ni      1.2692686878     2.0998833668     7.9979758743
Ni      8.5879310300     2.1622583453     8.0321611253
Ni     -1.1792572629    -2.1721700848     8.0057373585
Ni     -8.5683644938    -2.1267779511     8.0010705874
Ni      2.4789409196    -0.0226732359     8.0050405129
Ni     -4.8444649975    -0.0611458603     8.1775775172
Ni      3.6898462644     2.0958263664     7.9951027250
Ni     -3.5805892785     2.1143989950     8.1323933190
Ni      1.2540486494    -2.1386402291     8.0067828321
Ni     -6.0955132738    -2.1507473357     8.0061875250
Ni      4.9160089612    -0.0372433639     7.9551754352
Ni     -2.3370393191    -0.0720880502     7.9344325060
Ni      6.1453195402     2.0800869000     8.1784195441
Ni     -1.1545313025     2.0979569271     8.0182380747
Ni      3.7002579258    -2.1200197443     7.9729968733
Ni     -3.6239718342    -2.1720718474     8.0249264877
O       6.3044603183     1.7261239053    10.0860713731
H       9.1359554234     2.3186742113    10.3056449019
H       8.5916346733     2.8208624084    10.0733309907
H       2.0881354277    -2.8770348026    10.9111754568
C       6.2359719187     2.5143907381    11.0456271251
O       7.3845137075     0.8356411686    12.3623588405
H      -7.3797023714     0.5088969451    11.4397176026
C       6.7571139544     2.0991759806    12.3815134176
H       5.8534758798     2.0654024274    13.0317043969
C       7.6554540438     3.1622843606    13.0383096572
H       3.5617622063    -2.2093128772    12.8600414073
H       8.6589449648     3.1022922803    12.5881225518
O       7.6746779868     2.8552643354    14.4322334464
H       8.4236988568     3.3129040892    14.8462792065
O      -4.1828779066     1.0443426581     9.6104580306
H      -3.4341255820     0.6460162140    10.0983304421
88
Step 3 | NEB Image 3 | Cartesian Angstrom
Ni      1.2285271350     0.7092904720     2.0000000000
Ni     -6.1433728650     0.7092904720     2.0000000000
Ni      2.4570542700     2.8371618880     2.0000000000
Ni     -4.9148457300     2.8371618880     2.0000000000
Ni      0.0000000000    -1.4185809440     2.0000000000
Ni     -7.3719000000    -1.4185809440     2.0000000000
Ni      3.6855814050     0.7092904720     2.0000000000
Ni     -3.6863185950     0.7092904720     2.0000000000
Ni      4.9141085400     2.8371618880     2.0000000000
Ni     -2.4577914600     2.8371618880     2.0000000000
Ni      2.4570542700    -1.4185809440     2.0000000000
Ni     -4.9148457300    -1.4185809440     2.0000000000
Ni      6.1433728650     0.7092904720     2.0000000000
Ni     -1.2285271350     0.7092904720     2.0000000000
Ni      7.3719000000     2.8371618880     2.0000000000
Ni      0.0000000000     2.8371618880     2.0000000000
Ni      4.9148457300    -1.4185809440     2.0000000000
Ni     -2.4570542700    -1.4185809440     2.0000000000
Ni      0.0296707047    -0.0127534585     3.9974069040
Ni     -7.3421515064    -0.0204583162     3.9999557200
Ni      1.2495344270     2.1120512114     3.9985267821
Ni     -6.1087023621     2.1133349419     3.9983739225
Ni     -1.1991658820    -2.1432449008     3.9953609028
Ni     -8.5746511911    -2.1366839430     4.0100554437
Ni      2.4876298920    -0.0070207372     4.0028817924
Ni     -4.8843305573    -0.0196528477     3.9984637903
Ni      3.7130852021     2.1071859446     4.0011362396
Ni     -3.6575958340     2.1172373800     4.0086132266
Ni      1.2603341420    -2.1417422203     3.9938176449
Ni     -6.1193783768    -2.1506514127     4.0076103661
Ni      4.9421109987    -0.0143325492     4.0121891416
Ni     -2.4296642143    -0.0155892213     3.9957415591
Ni      6.1754373164     2.1107372155     3.9979069585
Ni     -1.2093880122     2.1173711414     4.0056289130
Ni      3.7185973007    -2.1336694835     3.9893418111
Ni     -3.6595621129    -2.1486137611     3.9969437664
Ni      1.2085492483     0.7259839416     6.0158658122
Ni     -6.1774333522     0.7162484768     6.0106276661
Ni      2.4249057942     2.8517999449     5.9949257141
Ni     -4.9177367654     2.8548697146     6.0201961904
Ni     -0.0317374072    -1.3984840935     6.0026886268
Ni     -7.3819991686    -1.3891893141     6.0427651411
Ni      3.6800291698     0.7174043192     6.0515491064
Ni     -3.7137459447     0.7364436008     6.0136222613
Ni      4.8852078660     2.8590258183     5.9998450867
Ni     -2.5007781629     2.8361656087     6.0712089605
Ni      2.4300798323    -1.3938032484     6.0023238282
Ni     -4.9373095767    -1.4165447707     6.0089442960
Ni      6.1209769054     0.7149818202     6.0105678615
Ni     -1.2518291912     0.7280007369     6.0025879626
Ni      7.3506496774     2.8674327510     5.9837206043
Ni     -0.0354635077     2.8491336832     6.0173447445
Ni      4.9051815611    -1.3828206704     6.0439370298
Ni     -2.4949731589    -1.4066542314     6.0000739103
Ni      0.0026166376     0.0018070276     8.0094452996
Ni     -7.3378005083    -0.0108538901     8.1173788150
Ni      1.2328684604     2.1244530682     8.0151948690
Ni      8.6071055352     2.1559711769     7.9278419597
Ni     -1.2269218061    -2.1270295526     7.9976972188
Ni     -8.5830385094    -2.1504865866     8.0057863239
Ni      2.4520714707     0.0026528728     8.0291412006
Ni     -4.8961828329    -0.0360755487     7.9722433902
Ni      3.6482122892     2.1667217814     7.9824671846
Ni     -3.6811137299     2.0925883284     8.1605165036
Ni      1.2221001848    -2.1094984859     7.9993833104
Ni     -6.1266802977    -2.1352950787     8.0357988497
Ni      4.8922654361    -0.0062869662     8.1705925384
Ni     -2.4291533319    -0.0234996658     7.9702783072
Ni      6.1540532169     2.1670167274     7.9669585134
Ni     -1.2076312038     2.1134807328     8.0336298976
Ni      3.6872611542    -2.1007927187     7.9955897916
Ni     -3.6772356141    -2.1436784304     8.0217879178
O       6.1957926990     0.9122863062     9.4383743169
H      10.1138555040     2.3545275747    10.6419774095
H       7.3275185169     2.1890210723    10.6191846186
H       1.8697716987    -3.9196443248    10.6764095293
C       6.3309397678     1.6880158895    10.6556611119
O       7.1964426848    -0.1188735819    11.8884748485
H      -6.9702726155    -0.1526128303    11.0643230696
C       6.3034959479     0.8245619262    11.9141763282
H       7.0196714094     3.5317489341    12.5579895656
C       7.8340439898     3.8290090171    13.2339071959
H       3.9683456677    -1.5167360394    13.5528693567
H       8.7921977571     3.8063795717    12.6770351565
O       7.8238098349     2.9039958217    14.3238351532
H       8.2231162470     3.3290400973    15.0990410039
O      -4.1833399532     1.5747905686    10.2589314735
H      -3.3666313357     1.4239830999    10.7715950342
88
Step 4 | NEB Image 4 | Cartesian Angstrom
Ni      1.2285271350     0.7092904720     2.0000000000
Ni     -6.1433728650     0.7092904720     2.0000000000
Ni      2.4570542700     2.8371618880     2.0000000000
Ni     -4.9148457300     2.8371618880     2.0000000000
Ni      0.0000000000    -1.4185809440     2.0000000000
Ni     -7.3719000000    -1.4185809440     2.0000000000
Ni      3.6855814050     0.7092904720     2.0000000000
Ni     -3.6863185950     0.7092904720     2.0000000000
Ni      4.9141085400     2.8371618880     2.0000000000
Ni     -2.4577914600     2.8371618880     2.0000000000
Ni      2.4570542700    -1.4185809440     2.0000000000
Ni     -4.9148457300    -1.4185809440     2.0000000000
Ni      6.1433728650     0.7092904720     2.0000000000
Ni     -1.2285271350     0.7092904720     2.0000000000
Ni      7.3719000000     2.8371618880     2.0000000000
Ni      0.0000000000     2.8371618880     2.0000000000
Ni      4.9148457300    -1.4185809440     2.0000000000
Ni     -2.4570542700    -1.4185809440     2.0000000000
Ni      0.0376718757    -0.0154906095     3.9980397790
Ni     -7.3355533714    -0.0167922631     3.9991956848
Ni      1.2616424432     2.1092083782     3.9979976860
Ni     -6.1018979248     2.1149670370     3.9979639230
Ni     -1.1903784081    -2.1433243962     3.9972652367
Ni     -8.5668066996    -2.1417839680     4.0050764255
Ni      2.4972315160    -0.0111232331     4.0033337868
Ni     -4.8747948180    -0.0173432942     3.9957881604
Ni      3.7236270065     2.1073529720     4.0035339002
Ni     -3.6499451360     2.1140299565     4.0083844655
Ni      1.2669997395    -2.1447649391     3.9972888583
Ni     -6.1079156766    -2.1495067989     3.9993075591
Ni      4.9523911744    -0.0147853128     4.0116362557
Ni     -2.4232513008    -0.0157909743     3.9981677431
Ni      6.1827290686     2.1119502242     4.0032531969
Ni     -1.1977263582     2.1141303679     4.0009614910
Ni      3.7233739340    -2.1383937640     3.9899446957
Ni     -3.6472150885    -2.1487356237     3.9930027632
Ni      1.2165433171     0.7253692609     6.0141998811
Ni     -6.1644101796     0.7164436876     6.0072177439
Ni      2.4389571268     2.8519061678     5.9961663338
Ni     -4.9039172968     2.8492597065     6.0250652147
Ni     -0.0179423046    -1.3998442656     6.0077585650
Ni     -7.3750197084    -1.3866957703     6.0190402972
Ni      3.6867242484     0.7188028406     6.0480301710
Ni     -3.6987495846     0.7415724312     6.0294878200
Ni      4.9005215440     2.8584108659     6.0147656838
Ni     -2.4853729757     2.8408004714     6.0471470788
Ni      2.4396211871    -1.3965843070     6.0049772339
Ni     -4.9201556151    -1.4117991056     5.9974211147
Ni      6.1280940629     0.7265033795     6.0181853564
Ni     -1.2428436143     0.7259277374     6.0016635894
Ni      7.3641632048     2.8588258000     5.9979110055
Ni     -0.0199358163     2.8532689826     6.0081564896
Ni      4.9104304859    -1.3875406525     6.0291499615
Ni     -2.4802708432    -1.4038638908     6.0022671930
Ni      0.0053953619     0.0095574695     8.0131770010
Ni     -7.3337243380    -0.0140034176     8.1068422625
Ni      1.2408857212     2.1296069436     8.0107416265
Ni      8.6326653470     2.1496857194     7.9436665052
Ni     -1.2177741686    -2.1243880089     8.0016974383
Ni     -8.5816045835    -2.1446101435     7.9811872707
Ni      2.4550431781     0.0085293488     8.0271629436
Ni     -4.8889592293    -0.0228602250     7.9760617207
Ni      3.6568369039     2.1654884837     7.9883141628
Ni     -3.6638221647     2.1069163684     8.1762773759
Ni      1.2265410814    -2.0998633836     8.0136212248
Ni     -6.1144915882    -2.1252692974     7.9977494692
Ni      4.8981199636    -0.0180283503     8.1397056961
Ni     -2.4226393257    -0.0213127398     7.9866921013
Ni      6.1624759032     2.2013682994     8.0254235673
Ni     -1.1931518005     2.1219980233     8.0071430644
Ni      3.6938784017    -2.1012422626     7.9969778958
Ni     -3.6708025208    -2.1343859473     8.0173663243
O       6.1810693454     0.8546999530     9.3832491207
H      10.8022970808     2.9141465324    10.5952565800
H       7.0181807783     2.0439050653    10.8782155544
H       1.7435135066    -5.0439571645    11.2557426537
C       6.3967199970     1.1300726758    10.7774084810
O       7.7564139815    -0.8342345687    10.9609598917
H      -6.9832364846    -0.8372759046     9.8595278180
C       7.1335108044     0.0959499972    11.5619396971
H       8.4566025704     4.2600486010    11.8292858087
C       8.5559818547     4.3666970548    12.9238865966
H       4.0361505340    -1.3981006099    13.2846758521
H       9.4930176301     4.9008164096    13.1348461795
O       8.4998084706     3.0741555422    13.5430362635
H       9.3354894487     2.9167697892    14.0068120906
O      -3.7853630865     2.0004885748    10.2849179161
H      -2.8710458165     1.7765934282    10.5490246085
88
Step 5 | NEB Image 5 | Cartesian Angstrom
Ni      1.2285271350     0.7092904720     2.0000000000
Ni     -6.1433728650     0.7092904720     2.0000000000
Ni      2.4570542700     2.8371618880     2.0000000000
Ni     -4.9148457300     2.8371618880     2.0000000000
Ni      0.0000000000    -1.4185809440     2.0000000000
Ni     -7.3719000000    -1.4185809440     2.0000000000
Ni      3.6855814050     0.7092904720     2.0000000000
Ni     -3.6863185950     0.7092904720     2.0000000000
Ni      4.9141085400     2.8371618880     2.0000000000
Ni     -2.4577914600     2.8371618880     2.0000000000
Ni      2.4570542700    -1.4185809440     2.0000000000
Ni     -4.9148457300    -1.4185809440     2.0000000000
Ni      6.1433728650     0.7092904720     2.0000000000
Ni     -1.2285271350     0.7092904720     2.0000000000
Ni      7.3719000000     2.8371618880     2.0000000000
Ni      0.0000000000     2.8371618880     2.0000000000
Ni      4.9148457300    -1.4185809440     2.0000000000
Ni     -2.4570542700    -1.4185809440     2.0000000000
Ni      0.0464326620    -0.0306468460     3.9976675890
Ni     -7.3257303870    -0.0255862300     3.9933782980
Ni      1.2739848450     2.0960038070     3.9979157030
Ni     -6.1026021170     2.1049500680     4.0019149180
Ni     -1.1827110610    -2.1546561820     3.9989053170
Ni     -8.5597082650    -2.1592869340     3.9982394010
Ni      2.5024778430    -0.0256743600     4.0031952220
Ni     -4.8641413240    -0.0227350050     3.9956475690
Ni      3.7346756480     2.0985190290     4.0083618800
Ni     -3.6458198020     2.0991473590     4.0056686860
Ni      1.2703768650    -2.1597674920     4.0015811390
Ni     -6.0933336510    -2.1603781540     3.9902680500
Ni      4.9590538200    -0.0289845540     4.0074783820
Ni     -2.4167678920    -0.0248088220     4.0022401470
Ni      6.1885777810     2.1026461420     4.0098077600
Ni     -1.1844811720     2.0985803670     3.9964394390
Ni      3.7245308300    -2.1560713310     3.9888953010
Ni     -3.6351397940    -2.1574140910     3.9933365850
Ni      1.2278611130     0.7073057200     6.0134419810
Ni     -6.1428898530     0.6957346210     6.0102358510
Ni      2.4563605190     2.8356121920     5.9987058000
Ni     -4.8924583120     2.8187736320     6.0264580820
Ni      0.0002252210    -1.4241376010     6.0155868270
Ni     -7.3667991100    -1.4101212980     5.9895528060
Ni      3.6921281460     0.7008202940     6.0360645010
Ni     -3.6779272240     0.7256007260     6.0512861550
Ni      4.9267336850     2.8309168990     6.0432780270
Ni     -2.4664659500     2.8157315660     6.0151173370
Ni      2.4509011280    -1.4197685090     6.0062316800
Ni     -4.8985683740    -1.4191884620     5.9881596610
Ni      6.1372839650     0.7115480370     6.0073921100
Ni     -1.2256557510     0.7019370040     6.0032560690
Ni      7.3730564330     2.8242126570     6.0269074010
Ni     -0.0034566730     2.8405670140     6.0010880700
Ni      4.9162369820    -1.4189308570     6.0083232610
Ni     -2.4596272260    -1.4182314770     6.0084483810
Ni      0.0277268390    -0.0168450280     8.0180888710
Ni     -7.3091221710    -0.0327920680     8.0371701400
Ni      1.2611452740     2.1078740620     8.0062525300
Ni      8.6667549770     2.1138793650     7.9801313330
Ni     -1.1942402360    -2.1496555940     8.0109921590
Ni     -8.5668484660    -2.1735761150     7.9430911750
Ni      2.4712577410    -0.0190631580     8.0243063390
Ni     -4.8670711400    -0.0431110720     7.9967287920
Ni      3.6750137580     2.1321536040     7.9940007810
Ni     -3.6274773380     2.0999917070     8.2089215290
Ni      1.2517815200    -2.1329879940     8.0267060850
Ni     -6.0785108950    -2.1534189890     7.9361595560
Ni      4.9123316280    -0.0512787390     8.0829089500
Ni     -2.4007725170    -0.0429334740     8.0081832520
Ni      6.1908597070     2.1505617180     8.1094472440
Ni     -1.1654360560     2.0989982700     7.9806126390
Ni      3.7077660390    -2.1419918620     7.9975968800
Ni     -3.6463297530    -2.1524111230     8.0158878220
O       6.1707187590     0.6663307040     9.3727337630
H      11.2555922500     3.1706166680    10.5266232770
H       7.1149227860     1.0824741990    11.1550798120
H       1.6297081310    -5.3793991980    11.2177269450
C       6.2238707100     0.5353136510    10.8108846880
O       7.5718415080    -1.5277099790    10.9241884940
H      -6.8828388710    -1.2337967880    10.0124245870
C       6.2850334910    -0.9302036460    11.2182633770
H       9.1791669060     4.9099545600    10.6626973770
C       9.7467965870     5.2786349730    12.7161077750
H       5.0959169980    -0.6608682970    12.9933131080
H      10.5457770910     5.8077082870    13.2666670860
O       9.6783811350     3.9068622240    13.1006105230
H      10.5447055700     3.5019751520    12.9206205020
O      -3.5153567700     2.2005093110    10.2599052050
H      -2.6227032800     1.8412518110    10.4321503050
