88
Step 1 | NEB Image 1 | Cartesian Angstrom
Ni      1.2285271350     0.7092904720     2.0000000000
Ni     -6.1433728650     0.7092904720     2.0000000000
Ni      2.4570542700     2.8371618880     2.0000000000
Ni     -4.9148457300     2.8371618880     2.0000000000
Ni      0.0000000000    -1.4185809440     2.0000000000
Ni     -7.3719000000    -1.4185809440     2.0000000000
Ni      3.6855814050     0.7092904720     2.0000000000
Ni     -3.6863185950     0.7092904720     2.0000000000
Ni      4.9141085400     2.8371618880     2.0000000000
Ni     -2.4577914600     2.8371618880     2.0000000000
Ni      2.4570542700    -1.4185809440     2.0000000000
Ni     -4.9148457300    -1.4185809440     2.0000000000
Ni      6.1433728650     0.7092904720     2.0000000000
Ni     -1.2285271350     0.7092904720     2.0000000000
Ni      7.3719000000     2.8371618880     2.0000000000
Ni      0.0000000000     2.8371618880     2.0000000000
Ni      4.9148457300    -1.4185809440     2.0000000000
Ni     -2.4570542700    -1.4185809440     2.0000000000
Ni      0.0345187234    -0.0219895959     3.9906686506
Ni     -7.3332872529    -0.0205271350     3.9970929970
Ni      1.2574298371     2.1090479016     3.9981086770
Ni     -6.1061214153     2.1042281316     4.0017605185
Ni     -1.1958375155    -2.1495425789     3.9888614873
Ni     -8.5615731291    -2.1597422030     3.9935633301
Ni      2.4909200515    -0.0209290578     3.9889124626
Ni     -4.8775455868    -0.0288695998     4.0155932973
Ni      3.7235299523     2.1102350339     3.9932622384
Ni     -3.6483031855     2.1055811522     4.0174271749
Ni      1.2597529797    -2.1544756242     3.9969618463
Ni     -6.1074652262    -2.1506208434     4.0019689283
Ni      4.9550771908    -0.0234645643     3.9935565644
Ni     -2.4269867653    -0.0199772708     3.9982338911
Ni      6.1741097051     2.1083418571     4.0046158614
Ni     -1.1996729370     2.1123145435     4.0000024585
Ni      3.7197951829    -2.1539414756     3.9921760547
Ni     -3.6589301935    -2.1514998115     3.9994955107
Ni      1.2136841869     0.7163863979     5.9963073096
Ni     -6.1473437226     0.7096773911     6.0218176054
Ni      2.4453295017     2.8415084524     5.9971730433
Ni     -4.9231971923     2.8360653972     6.0327934449
Ni     -0.0226348385    -1.4110330430     6.0020236029
Ni     -7.3908667378    -1.4145678834     5.9981301391
Ni      3.6669417345     0.7157583701     5.9869138182
Ni     -3.7108784987     0.7190435175     6.0328517480
Ni      4.9057976617     2.8388244163     6.0411982092
Ni     -2.4814248435     2.8298458387     6.0521186228
Ni      2.4355069788    -1.4085502466     5.9888639843
Ni     -4.9252928465    -1.4026264080     6.0548563839
Ni      6.1341025786     0.7315238745     6.0218817427
Ni     -1.2402669783     0.7221835538     5.9926808095
Ni      7.3408175190     2.8291688103     6.0248565089
Ni     -0.0225097209     2.8466795557     6.0142376281
Ni      4.9088271165    -1.4251457534     5.9900387779
Ni     -2.4790699264    -1.4211153466     5.9913638200
Ni      0.0337137405    -0.0099863123     8.0038502320
Ni     -7.3606520147    -0.0334139511     7.9835827732
Ni      1.2525382386     2.1076756093     8.0014158677
Ni      8.5596645315     2.1514300915     7.9633346422
Ni     -1.1983605499    -2.1613845897     8.0018652759
Ni     -8.5927669864    -2.1264268734     8.0165035337
Ni      2.4708324722    -0.0109047600     8.0065027389
Ni     -4.8995212632    -0.0584838282     8.1493062015
Ni      3.6789469906     2.1047412898     7.9888648741
Ni     -3.6333178494     2.1270714900     8.1546283531
Ni      1.2394335961    -2.1164979174     7.9892760222
Ni     -6.1305722611    -2.1461024656     7.9989212299
Ni      4.9150163145    -0.0283439881     7.9490640309
Ni     -2.3653823178    -0.0601929248     7.9425724452
Ni      6.1349712758     2.1197335004     8.1598232492
Ni     -1.1861990586     2.1067384809     8.0263285947
Ni      3.6953023012    -2.1157302873     7.9694462946
Ni     -3.6468332403    -2.1628724713     8.0264725749
O       5.9486020032     1.9536774433    10.1568983318
H       6.2023593986     1.0444615420    10.4395396161
H       7.6485803319     2.9982816350    10.7947394844
H       2.3841835216    -2.5662265370    10.9995346326
C       6.5922936452     2.8570131008    11.0871865803
O       6.8828593053     0.8516013498    12.3925733789
H      -6.8879959571     0.8254517200    12.3248078773
C       6.4620997723     2.2299052156    12.4710261049
H       5.3979785171     2.1706601767    12.7461907790
C       7.1981974178     3.0342299686    13.5247288963
H       3.2389656514    -2.2859498111    13.4051121917
H       8.2901195875     2.9478942375    13.3576433856
O       6.8260697992     2.5426661176    14.8120038538
H       7.2522042786     3.0948827032    15.4870039972
O      -4.3927237137     1.0982075682     9.5865509607
H      -3.6717371060     0.6667680985    10.0888232085
88
Step 2 | NEB Image 2 | Cartesian Angstrom
Ni      1.2285271350     0.7092904720     2.0000000000
Ni     -6.1433728650     0.7092904720     2.0000000000
Ni      2.4570542700     2.8371618880     2.0000000000
Ni     -4.9148457300     2.8371618880     2.0000000000
Ni      0.0000000000    -1.4185809440     2.0000000000
Ni     -7.3719000000    -1.4185809440     2.0000000000
Ni      3.6855814050     0.7092904720     2.0000000000
Ni     -3.6863185950     0.7092904720     2.0000000000
Ni      4.9141085400     2.8371618880     2.0000000000
Ni     -2.4577914600     2.8371618880     2.0000000000
Ni      2.4570542700    -1.4185809440     2.0000000000
Ni     -4.9148457300    -1.4185809440     2.0000000000
Ni      6.1433728650     0.7092904720     2.0000000000
Ni     -1.2285271350     0.7092904720     2.0000000000
Ni      7.3719000000     2.8371618880     2.0000000000
Ni      0.0000000000     2.8371618880     2.0000000000
Ni      4.9148457300    -1.4185809440     2.0000000000
Ni     -2.4570542700    -1.4185809440     2.0000000000
Ni      0.0385775470    -0.0156132850     3.9932252373
Ni     -7.3182495541    -0.0079959714     4.0044979915
Ni      1.2616075663     2.1170887975     3.9982808410
Ni     -6.1032007370     2.1144983023     4.0279740277
Ni     -1.1915959412    -2.1408771985     3.9903272004
Ni     -8.5539932906    -2.1510520058     4.0003939092
Ni      2.4965995920    -0.0186326422     3.9926188218
Ni     -4.8763629996    -0.0100941858     4.0285337595
Ni      3.7289826224     2.1142010035     3.9957648984
Ni     -3.6422113131     2.1184433000     4.0205073933
Ni      1.2648429858    -2.1478034600     3.9989743459
Ni     -6.0983902221    -2.1378903429     4.0064668946
Ni      4.9647270455    -0.0197612732     3.9955241580
Ni     -2.4242786392    -0.0078986535     4.0007784960
Ni      6.1824021501     2.1145625374     4.0036037927
Ni     -1.1951684667     2.1218000425     4.0008969300
Ni      3.7269789770    -2.1538947215     3.9988941332
Ni     -3.6554840070    -2.1346418183     4.0034450071
Ni      1.2219361819     0.7281190988     5.9962638248
Ni     -6.1153403205     0.7462315140     6.0866832514
Ni      2.4509257585     2.8552173897     5.9923693147
Ni     -4.9146714275     2.8428697424     6.0504289419
Ni     -0.0099247125    -1.4019286436     6.0064953486
Ni     -7.3725634555    -1.3953097355     6.0032661800
Ni      3.6749486023     0.7227530363     5.9864636076
Ni     -3.6917728329     0.7379582039     6.0472648861
Ni      4.9174070476     2.8447962014     6.0402045070
Ni     -2.4669547308     2.8585589381     6.0543248237
Ni      2.4440187586    -1.4056038311     5.9991287013
Ni     -4.9089349972    -1.3665311592     6.0681608576
Ni      6.1504388882     0.7300462751     6.0131023471
Ni     -1.2289292654     0.7372930647     5.9964183070
Ni      7.3502836823     2.8339811605     6.0588567655
Ni     -0.0126343816     2.8703905780     6.0093476969
Ni      4.9129901072    -1.4182373885     5.9945590553
Ni     -2.4628342316    -1.4023335488     5.9968060228
Ni      0.0471713358    -0.0010506575     8.0051156291
Ni     -7.3111170989    -0.0241473557     7.9863506818
Ni      1.2602367559     2.1259769148     7.9982346897
Ni      8.5740121799     2.2212883219     8.1273340096
Ni     -1.1862987571    -2.1453073762     8.0061018677
Ni     -8.5544312072    -2.0866270019     7.9954544955
Ni      2.4663479301     0.0075983612     8.0056363793
Ni     -4.8097981245    -0.0065078423     8.2494490711
Ni      3.6721174239     2.1252105416     7.9819338315
Ni     -3.5765229478     2.1692389266     8.1314535963
Ni      1.2458241464    -2.1210058523     8.0126896594
Ni     -6.0792969915    -2.1019073410     8.0137307140
Ni      4.9084699885    -0.0144662932     7.9551933940
Ni     -2.3442016374    -0.0390441102     7.9602511548
Ni      6.1095610398     2.0968801801     8.1332769860
Ni     -1.1564090392     2.1312114694     8.0153231002
Ni      3.6743546225    -2.0747109518     7.9885889953
Ni     -3.6269278885    -2.1363942552     8.0329936985
O       6.1283149804     1.4936839904    10.0601952389
H       9.0771869559     2.4826815377     9.7155511255
H       8.1929406467     2.3819385164     9.7112885041
H       1.7024191303    -3.2474867269    10.9811190653
C       6.0358060127     2.2504148194    11.0465826872
O       7.3987407799     0.6565263374    12.2187647791
H      -7.5138005520     0.3085835618    11.3133940035
C       6.7301531954     1.8958674903    12.3225124267
H       5.9074182083     1.8734796977    13.0719710314
C       7.6077844700     3.0392270101    12.9356350278
H       3.4627649951    -2.3528458744    12.7563266014
H       8.6076384769     3.0313483783    12.4731833998
O       7.6755395680     2.7741694507    14.3411235681
H       8.2679377969     3.4211718398    14.7613918935
O      -4.0951363106     1.1682074291     9.6781578937
H      -3.3108402723     0.9276702986    10.2113666497
88
Step 3 | NEB Image 3 | Cartesian Angstrom
Ni      1.2285271350     0.7092904720     2.0000000000
Ni     -6.1433728650     0.7092904720     2.0000000000
Ni      2.4570542700     2.8371618880     2.0000000000
Ni     -4.9148457300     2.8371618880     2.0000000000
Ni      0.0000000000    -1.4185809440     2.0000000000
Ni     -7.3719000000    -1.4185809440     2.0000000000
Ni      3.6855814050     0.7092904720     2.0000000000
Ni     -3.6863185950     0.7092904720     2.0000000000
Ni      4.9141085400     2.8371618880     2.0000000000
Ni     -2.4577914600     2.8371618880     2.0000000000
Ni      2.4570542700    -1.4185809440     2.0000000000
Ni     -4.9148457300    -1.4185809440     2.0000000000
Ni      6.1433728650     0.7092904720     2.0000000000
Ni     -1.2285271350     0.7092904720     2.0000000000
Ni      7.3719000000     2.8371618880     2.0000000000
Ni      0.0000000000     2.8371618880     2.0000000000
Ni      4.9148457300    -1.4185809440     2.0000000000
Ni     -2.4570542700    -1.4185809440     2.0000000000
Ni      0.0336615452    -0.0122358657     3.9963683488
Ni     -7.3367191008    -0.0183245777     3.9979241637
Ni      1.2553401810     2.1116009801     3.9966153874
Ni     -6.1003806378     2.1148558351     3.9959544749
Ni     -1.1937904743    -2.1414316213     3.9947118832
Ni     -8.5677468951    -2.1385544164     4.0088045549
Ni      2.4933133972    -0.0079469010     4.0014874205
Ni     -4.8767413444    -0.0178292084     3.9972289897
Ni      3.7187114776     2.1076899647     3.9973366803
Ni     -3.6514001777     2.1173427993     4.0107711319
Ni      1.2652161212    -2.1413473535     3.9920227873
Ni     -6.1124458043    -2.1487387824     4.0048394490
Ni      4.9491329524    -0.0144300690     4.0097613592
Ni     -2.4253050324    -0.0139598259     3.9964126603
Ni      6.1825092398     2.1119613002     3.9972748296
Ni     -1.2029408603     2.1175652729     4.0029728394
Ni      3.7238301851    -2.1339671926     3.9849824563
Ni     -3.6517289349    -2.1474971463     3.9945240225
Ni      1.2127053191     0.7272988991     6.0145098601
Ni     -6.1718917242     0.7200008111     6.0055266356
Ni      2.4306122204     2.8553660050     5.9900409792
Ni     -4.9070889669     2.8552351988     6.0273987513
Ni     -0.0251860353    -1.3952901040     6.0031420529
Ni     -7.3765329743    -1.3829144160     6.0349292021
Ni      3.6826320609     0.7200359446     6.0445087809
Ni     -3.7048116454     0.7429909046     6.0243189252
Ni      4.8907291391     2.8637147724     5.9944836772
Ni     -2.4915013088     2.8427613323     6.0654890096
Ni      2.4360451226    -1.3938692581     6.0002320740
Ni     -4.9275830461    -1.4124142824     6.0044927406
Ni      6.1244387000     0.7233586108     6.0075074748
Ni     -1.2474587406     0.7303465684     6.0034875789
Ni      7.3636968110     2.8679924334     5.9809522863
Ni     -0.0270058504     2.8537329675     6.0136587561
Ni      4.9102134011    -1.3836661794     6.0354185509
Ni     -2.4871554240    -1.4009040224     6.0014577422
Ni     -0.0008237039     0.0113742326     8.0114366505
Ni     -7.3497722003     0.0024889925     8.1147318848
Ni      1.2351364701     2.1321266822     8.0111753196
Ni      8.6179408933     2.1550957886     7.9310249741
Ni     -1.2254846177    -2.1205761197     7.9969558079
Ni     -8.5825299373    -2.1349861820     8.0009764822
Ni      2.4468340646     0.0091686822     8.0264820292
Ni     -4.9007841497    -0.0216113007     7.9694112302
Ni      3.6450427090     2.1740314247     7.9707508480
Ni     -3.6729265202     2.1092908335     8.1764074049
Ni      1.2184097191    -2.0964218243     8.0027148197
Ni     -6.1266903508    -2.1168837793     8.0256272787
Ni      4.8826642876    -0.0167073145     8.1527485426
Ni     -2.4304529970    -0.0164307405     7.9813348746
Ni      6.1579149718     2.2036252377     7.9663312039
Ni     -1.2016262627     2.1245386137     8.0229470608
Ni      3.6865495935    -2.0967363378     7.9908639088
Ni     -3.6771915715    -2.1319045092     8.0197023499
O       6.0830207405     0.9362641989     9.3815005443
H      10.4655349470     2.7618453640    10.5797613517
H       6.7747082022     2.4066428998    10.6753019901
H       1.4268796621    -4.5216928531    10.9865525185
C       6.1202705802     1.5097891562    10.7087919211
O       7.1429016363    -0.5048739608    11.3916917274
H      -7.6278555888    -0.6607951942    10.3794830193
C       6.6560924983     0.6267532918    11.7830278713
H       6.5433001981     3.3696999823    13.0804208404
C       7.5226996986     3.6890590113    13.4651595474
H       3.8851378051    -1.5905602187    13.4533030659
H       8.3033920813     3.2928733227    12.7828466230
O       7.6311692391     3.1557264349    14.7875166690
H       8.3771518094     3.5897346283    15.2326455983
O      -3.9861862654     1.8871374955    10.2557707061
H      -3.1268832863     1.6994226992    10.6795771133
88
Step 4 | NEB Image 4 | Cartesian Angstrom
Ni      1.2285271350     0.7092904720     2.0000000000
Ni     -6.1433728650     0.7092904720     2.0000000000
Ni      2.4570542700     2.8371618880     2.0000000000
Ni     -4.9148457300     2.8371618880     2.0000000000
Ni      0.0000000000    -1.4185809440     2.0000000000
Ni     -7.3719000000    -1.4185809440     2.0000000000
Ni      3.6855814050     0.7092904720     2.0000000000
Ni     -3.6863185950     0.7092904720     2.0000000000
Ni      4.9141085400     2.8371618880     2.0000000000
Ni     -2.4577914600     2.8371618880     2.0000000000
Ni      2.4570542700    -1.4185809440     2.0000000000
Ni     -4.9148457300    -1.4185809440     2.0000000000
Ni      6.1433728650     0.7092904720     2.0000000000
Ni     -1.2285271350     0.7092904720     2.0000000000
Ni      7.3719000000     2.8371618880     2.0000000000
Ni      0.0000000000     2.8371618880     2.0000000000
Ni      4.9148457300    -1.4185809440     2.0000000000
Ni     -2.4570542700    -1.4185809440     2.0000000000
Ni      0.0378571954    -0.0144648988     3.9993497195
Ni     -7.3350116225    -0.0134164126     3.9977191430
Ni      1.2637774824     2.1110398699     3.9993582606
Ni     -6.1057735799     2.1198925364     3.9975224427
Ni     -1.1905966414    -2.1406684557     3.9984798937
Ni     -8.5667529305    -2.1415271548     4.0034684445
Ni      2.4975254650    -0.0107406948     4.0039407396
Ni     -4.8749025226    -0.0130318403     3.9903051814
Ni      3.7256685858     2.1096639465     4.0071233854
Ni     -3.6554430422     2.1135483186     4.0006416920
Ni      1.2662159915    -2.1453171142     4.0004487830
Ni     -6.1069391733    -2.1441980775     3.9976017533
Ni      4.9494478841    -0.0174893413     4.0081520442
Ni     -2.4240224721    -0.0123217284     4.0000926743
Ni      6.1818667208     2.1183764738     4.0022438878
Ni     -1.1927314450     2.1149322794     3.9944888445
Ni      3.7218417695    -2.1387269981     3.9911813460
Ni     -3.6453511284    -2.1456679308     3.9919503579
Ni      1.2150014074     0.7296151760     6.0136667775
Ni     -6.1575650887     0.7248929614     6.0039324067
Ni      2.4402148627     2.8563664777     5.9976777462
Ni     -4.9025238720     2.8554419078     6.0253295408
Ni     -0.0181104162    -1.3967010618     6.0104617541
Ni     -7.3822616669    -1.3819589393     5.9968626270
Ni      3.6800447204     0.7209267094     6.0487095797
Ni     -3.6998628316     0.7415889276     6.0388493001
Ni      4.9028377072     2.8620154513     6.0286148420
Ni     -2.4782382148     2.8199574106     6.0007449448
Ni      2.4357534209    -1.3936141741     6.0039921438
Ni     -4.9067283246    -1.3967590178     5.9797377141
Ni      6.1186578933     0.7406020432     6.0093824907
Ni     -1.2405194086     0.7254509839     5.9996411585
Ni      7.3621240647     2.8539613232     6.0146277333
Ni     -0.0195675284     2.8610123481     6.0078243587
Ni      4.9093256473    -1.3909216287     6.0326107076
Ni     -2.4753232623    -1.4005211006     6.0024898063
Ni      0.0077016708     0.0116485983     8.0139712323
Ni     -7.2869677602    -0.1235638541     8.1909180734
Ni      1.2451407772     2.1332289384     8.0114996114
Ni      8.6474583357     2.1640410155     7.9602394509
Ni     -1.2132439086    -2.1204523628     8.0068564797
Ni     -8.5734666291    -2.1286732630     7.9837307724
Ni      2.4470367774     0.0133430527     8.0279366546
Ni     -4.8844026406    -0.0121485572     7.9944090048
Ni      3.6545199084     2.1652958366     7.9960704361
Ni     -3.6702521834     2.1159638322     8.1764291880
Ni      1.2242890572    -2.0939236087     8.0210311721
Ni     -6.0730761342    -2.1502512952     7.9432539319
Ni      4.8946411285    -0.0115100426     8.1301655739
Ni     -2.4143739931    -0.0199856922     7.9938396594
Ni      6.1539583126     2.1972673905     8.0809171611
Ni     -1.1806156622     2.1061712739     7.9966307320
Ni      3.6871132150    -2.0987353618     7.9955649433
Ni     -3.6467181132    -2.1278856725     8.0178705491
O       6.1529392210     0.7853156150     9.4303650563
H      11.0971069245     3.1029804485    10.5316483074
H       6.8805883579     1.8381495282    11.0733453155
H       1.6555293327    -5.4073061153    11.3359516441
C       6.3113039628     0.9272540745    10.8261054081
O       7.7144364602    -1.0819299046    11.1279070967
H      -6.8226209664    -0.9954055938     9.0883482662
C       7.1041555924    -0.1783905967    11.5179293334
H       8.0952336031     4.3116039677    11.7733382710
C       8.3504785401     4.3112451497    12.8381459981
H       3.8538145192    -1.5755199007    13.3881229627
H       9.2733327182     4.8955476297    12.9714590433
O       8.5217976295     2.9466522366    13.2202702267
H       8.6880996817     2.9127351433    14.1759264607
O      -3.6719140383     2.1570617022    10.2781192559
H      -2.7846789459     1.8046534666    10.4902805736
88
Step 5 | NEB Image 5 | Cartesian Angstrom
Ni      1.2285271350     0.7092904720     2.0000000000
Ni     -6.1433728650     0.7092904720     2.0000000000
Ni      2.4570542700     2.8371618880     2.0000000000
Ni     -4.9148457300     2.8371618880     2.0000000000
Ni      0.0000000000    -1.4185809440     2.0000000000
Ni     -7.3719000000    -1.4185809440     2.0000000000
Ni      3.6855814050     0.7092904720     2.0000000000
Ni     -3.6863185950     0.7092904720     2.0000000000
Ni      4.9141085400     2.8371618880     2.0000000000
Ni     -2.4577914600     2.8371618880     2.0000000000
Ni      2.4570542700    -1.4185809440     2.0000000000
Ni     -4.9148457300    -1.4185809440     2.0000000000
Ni      6.1433728650     0.7092904720     2.0000000000
Ni     -1.2285271350     0.7092904720     2.0000000000
Ni      7.3719000000     2.8371618880     2.0000000000
Ni      0.0000000000     2.8371618880     2.0000000000
Ni      4.9148457300    -1.4185809440     2.0000000000
Ni     -2.4570542700    -1.4185809440     2.0000000000
Ni      0.0464326620    -0.0306468460     3.9976675890
Ni     -7.3257303870    -0.0255862300     3.9933782980
Ni      1.2739848450     2.0960038070     3.9979157030
Ni     -6.1026021170     2.1049500680     4.0019149180
Ni     -1.1827110610    -2.1546561820     3.9989053170
Ni     -8.5597082650    -2.1592869340     3.9982394010
Ni      2.5024778430    -0.0256743600     4.0031952220
Ni     -4.8641413240    -0.0227350050     3.9956475690
Ni      3.7346756480     2.0985190290     4.0083618800
Ni     -3.6458198020     2.0991473590     4.0056686860
Ni      1.2703768650    -2.1597674920     4.0015811390
Ni     -6.0933336510    -2.1603781540     3.9902680500
Ni      4.9590538200    -0.0289845540     4.0074783820
Ni     -2.4167678920    -0.0248088220     4.0022401470
Ni      6.1885777810     2.1026461420     4.0098077600
Ni     -1.1844811720     2.0985803670     3.9964394390
Ni      3.7245308300    -2.1560713310     3.9888953010
Ni     -3.6351397940    -2.1574140910     3.9933365850
Ni      1.2278611130     0.7073057200     6.0134419810
Ni     -6.1428898530     0.6957346210     6.0102358510
Ni      2.4563605190     2.8356121920     5.9987058000
Ni     -4.8924583120     2.8187736320     6.0264580820
Ni      0.0002252210    -1.4241376010     6.0155868270
Ni     -7.3667991100    -1.4101212980     5.9895528060
Ni      3.6921281460     0.7008202940     6.0360645010
Ni     -3.6779272240     0.7256007260     6.0512861550
Ni      4.9267336850     2.8309168990     6.0432780270
Ni     -2.4664659500     2.8157315660     6.0151173370
Ni      2.4509011280    -1.4197685090     6.0062316800
Ni     -4.8985683740    -1.4191884620     5.9881596610
Ni      6.1372839650     0.7115480370     6.0073921100
Ni     -1.2256557510     0.7019370040     6.0032560690
Ni      7.3730564330     2.8242126570     6.0269074010
Ni     -0.0034566730     2.8405670140     6.0010880700
Ni      4.9162369820    -1.4189308570     6.0083232610
Ni     -2.4596272260    -1.4182314770     6.0084483810
Ni      0.0277268390    -0.0168450280     8.0180888710
Ni     -7.3091221710    -0.0327920680     8.0371701400
Ni      1.2611452740     2.1078740620     8.0062525300
Ni      8.6667549770     2.1138793650     7.9801313330
Ni     -1.1942402360    -2.1496555940     8.0109921590
Ni     -8.5668484660    -2.1735761150     7.9430911750
Ni      2.4712577410    -0.0190631580     8.0243063390
Ni     -4.8670711400    -0.0431110720     7.9967287920
Ni      3.6750137580     2.1321536040     7.9940007810
Ni     -3.6274773380     2.0999917070     8.2089215290
Ni      1.2517815200    -2.1329879940     8.0267060850
Ni     -6.0785108950    -2.1534189890     7.9361595560
Ni      4.9123316280    -0.0512787390     8.0829089500
Ni     -2.4007725170    -0.0429334740     8.0081832520
Ni      6.1908597070     2.1505617180     8.1094472440
Ni     -1.1654360560     2.0989982700     7.9806126390
Ni      3.7077660390    -2.1419918620     7.9975968800
Ni     -3.6463297530    -2.1524111230     8.0158878220
O       6.1707187590     0.6663307040     9.3727337630
H      11.2555922500     3.1706166680    10.5266232770
H       7.1149227860     1.0824741990    11.1550798120
H       1.6297081310    -5.3793991980    11.2177269450
C       6.2238707100     0.5353136510    10.8108846880
O       7.5718415080    -1.5277099790    10.9241884940
H      -6.8828388710    -1.2337967880    10.0124245870
C       6.2850334910    -0.9302036460    11.2182633770
H       9.1791669060     4.9099545600    10.6626973770
C       9.7467965870     5.2786349730    12.7161077750
H       5.0959169980    -0.6608682970    12.9933131080
H      10.5457770910     5.8077082870    13.2666670860
O       9.6783811350     3.9068622240    13.1006105230
H      10.5447055700     3.5019751520    12.9206205020
O      -3.5153567700     2.2005093110    10.2599052050
H      -2.6227032800     1.8412518110    10.4321503050
