88
Step 1 | NEB Image 1 | Cartesian Angstrom
Ni      1.2285271350     0.7092904720     2.0000000000
Ni     -6.1433728650     0.7092904720     2.0000000000
Ni      2.4570542700     2.8371618880     2.0000000000
Ni     -4.9148457300     2.8371618880     2.0000000000
Ni      0.0000000000    -1.4185809440     2.0000000000
Ni     -7.3719000000    -1.4185809440     2.0000000000
Ni      3.6855814050     0.7092904720     2.0000000000
Ni     -3.6863185950     0.7092904720     2.0000000000
Ni      4.9141085400     2.8371618880     2.0000000000
Ni     -2.4577914600     2.8371618880     2.0000000000
Ni      2.4570542700    -1.4185809440     2.0000000000
Ni     -4.9148457300    -1.4185809440     2.0000000000
Ni      6.1433728650     0.7092904720     2.0000000000
Ni     -1.2285271350     0.7092904720     2.0000000000
Ni      7.3719000000     2.8371618880     2.0000000000
Ni      0.0000000000     2.8371618880     2.0000000000
Ni      4.9148457300    -1.4185809440     2.0000000000
Ni     -2.4570542700    -1.4185809440     2.0000000000
Ni      0.0345187234    -0.0219895959     3.9906686506
Ni     -7.3332872529    -0.0205271350     3.9970929970
Ni      1.2574298371     2.1090479016     3.9981086770
Ni     -6.1061214153     2.1042281316     4.0017605185
Ni     -1.1958375155    -2.1495425789     3.9888614873
Ni     -8.5615731291    -2.1597422030     3.9935633301
Ni      2.4909200515    -0.0209290578     3.9889124626
Ni     -4.8775455868    -0.0288695998     4.0155932973
Ni      3.7235299523     2.1102350339     3.9932622384
Ni     -3.6483031855     2.1055811522     4.0174271749
Ni      1.2597529797    -2.1544756242     3.9969618463
Ni     -6.1074652262    -2.1506208434     4.0019689283
Ni      4.9550771908    -0.0234645643     3.9935565644
Ni     -2.4269867653    -0.0199772708     3.9982338911
Ni      6.1741097051     2.1083418571     4.0046158614
Ni     -1.1996729370     2.1123145435     4.0000024585
Ni      3.7197951829    -2.1539414756     3.9921760547
Ni     -3.6589301935    -2.1514998115     3.9994955107
Ni      1.2136841869     0.7163863979     5.9963073096
Ni     -6.1473437226     0.7096773911     6.0218176054
Ni      2.4453295017     2.8415084524     5.9971730433
Ni     -4.9231971923     2.8360653972     6.0327934449
Ni     -0.0226348385    -1.4110330430     6.0020236029
Ni     -7.3908667378    -1.4145678834     5.9981301391
Ni      3.6669417345     0.7157583701     5.9869138182
Ni     -3.7108784987     0.7190435175     6.0328517480
Ni      4.9057976617     2.8388244163     6.0411982092
Ni     -2.4814248435     2.8298458387     6.0521186228
Ni      2.4355069788    -1.4085502466     5.9888639843
Ni     -4.9252928465    -1.4026264080     6.0548563839
Ni      6.1341025786     0.7315238745     6.0218817427
Ni     -1.2402669783     0.7221835538     5.9926808095
Ni      7.3408175190     2.8291688103     6.0248565089
Ni     -0.0225097209     2.8466795557     6.0142376281
Ni      4.9088271165    -1.4251457534     5.9900387779
Ni     -2.4790699264    -1.4211153466     5.9913638200
Ni      0.0337137405    -0.0099863123     8.0038502320
Ni     -7.3606520147    -0.0334139511     7.9835827732
Ni      1.2525382386     2.1076756093     8.0014158677
Ni      8.5596645315     2.1514300915     7.9633346422
Ni     -1.1983605499    -2.1613845897     8.0018652759
Ni     -8.5927669864    -2.1264268734     8.0165035337
Ni      2.4708324722    -0.0109047600     8.0065027389
Ni     -4.8995212632    -0.0584838282     8.1493062015
Ni      3.6789469906     2.1047412898     7.9888648741
Ni     -3.6333178494     2.1270714900     8.1546283531
Ni      1.2394335961    -2.1164979174     7.9892760222
Ni     -6.1305722611    -2.1461024656     7.9989212299
Ni      4.9150163145    -0.0283439881     7.9490640309
Ni     -2.3653823178    -0.0601929248     7.9425724452
Ni      6.1349712758     2.1197335004     8.1598232492
Ni     -1.1861990586     2.1067384809     8.0263285947
Ni      3.6953023012    -2.1157302873     7.9694462946
Ni     -3.6468332403    -2.1628724713     8.0264725749
O       5.9486020032     1.9536774433    10.1568983318
H       6.2023593986     1.0444615420    10.4395396161
H       7.6485803319     2.9982816350    10.7947394844
H       2.3841835216    -2.5662265370    10.9995346326
C       6.5922936452     2.8570131008    11.0871865803
O       6.8828593053     0.8516013498    12.3925733789
H      -6.8879959571     0.8254517200    12.3248078773
C       6.4620997723     2.2299052156    12.4710261049
H       5.3979785171     2.1706601767    12.7461907790
C       7.1981974178     3.0342299686    13.5247288963
H       3.2389656514    -2.2859498111    13.4051121917
H       8.2901195875     2.9478942375    13.3576433856
O       6.8260697992     2.5426661176    14.8120038538
H       7.2522042786     3.0948827032    15.4870039972
O      -4.3927237137     1.0982075682     9.5865509607
H      -3.6717371060     0.6667680985    10.0888232085
88
Step 2 | NEB Image 2 | Cartesian Angstrom
Ni      1.2285271350     0.7092904720     2.0000000000
Ni     -6.1433728650     0.7092904720     2.0000000000
Ni      2.4570542700     2.8371618880     2.0000000000
Ni     -4.9148457300     2.8371618880     2.0000000000
Ni      0.0000000000    -1.4185809440     2.0000000000
Ni     -7.3719000000    -1.4185809440     2.0000000000
Ni      3.6855814050     0.7092904720     2.0000000000
Ni     -3.6863185950     0.7092904720     2.0000000000
Ni      4.9141085400     2.8371618880     2.0000000000
Ni     -2.4577914600     2.8371618880     2.0000000000
Ni      2.4570542700    -1.4185809440     2.0000000000
Ni     -4.9148457300    -1.4185809440     2.0000000000
Ni      6.1433728650     0.7092904720     2.0000000000
Ni     -1.2285271350     0.7092904720     2.0000000000
Ni      7.3719000000     2.8371618880     2.0000000000
Ni      0.0000000000     2.8371618880     2.0000000000
Ni      4.9148457300    -1.4185809440     2.0000000000
Ni     -2.4570542700    -1.4185809440     2.0000000000
Ni      0.0342891746    -0.0130346519     3.9934407434
Ni     -7.3211765562    -0.0040628067     4.0073056250
Ni      1.2576451965     2.1195606592     3.9969490434
Ni     -6.1080886951     2.1179918740     4.0335719658
Ni     -1.1951813689    -2.1374463647     3.9898516903
Ni     -8.5582075871    -2.1485538791     4.0044688198
Ni      2.4931987219    -0.0157865480     3.9933714587
Ni     -4.8818204738    -0.0056354489     4.0292416054
Ni      3.7260172412     2.1172416327     3.9963581089
Ni     -3.6484322516     2.1227131364     4.0215284960
Ni      1.2613921260    -2.1443349615     3.9999825860
Ni     -6.1032320593    -2.1339216793     4.0065183959
Ni      4.9616748916    -0.0162956255     3.9977629191
Ni     -2.4297426246    -0.0042307211     4.0001904948
Ni      6.1811694728     2.1199021425     4.0072842978
Ni     -1.1998777325     2.1246547901     3.9991416683
Ni      3.7227556944    -2.1527133520     4.0033825295
Ni     -3.6594574171    -2.1313039697     4.0020816486
Ni      1.2145992100     0.7338560645     5.9963091756
Ni     -6.1191698318     0.7583443465     6.1031258277
Ni      2.4432296693     2.8615367184     5.9899700432
Ni     -4.9287094116     2.8465106552     6.0644748235
Ni     -0.0154796927    -1.3968879185     6.0078478840
Ni     -7.3795789895    -1.3873406852     6.0088100975
Ni      3.6685556975     0.7291494950     5.9892468828
Ni     -3.6994637094     0.7447007050     6.0483836213
Ni      4.9139425156     2.8518930804     6.0412395756
Ni     -2.4748092511     2.8666676953     6.0500024459
Ni      2.4388693406    -1.4011892931     6.0032567085
Ni     -4.9162743609    -1.3580577117     6.0647793621
Ni      6.1431281189     0.7364001567     6.0131758942
Ni     -1.2372772102     0.7430337553     5.9951084863
Ni      7.3551068406     2.8333195437     6.0843192221
Ni     -0.0193905224     2.8766499238     6.0055472916
Ni      4.9041122793    -1.4084757982     5.9970788411
Ni     -2.4700132777    -1.3958346792     5.9952454094
Ni      0.0354274068     0.0091399305     8.0040173310
Ni     -7.3140615062    -0.0067003343     7.9887067588
Ni      1.2490757551     2.1364010874     7.9969805213
Ni      8.5677876259     2.2428853086     8.1988867547
Ni     -1.1980088684    -2.1344046089     8.0041490876
Ni     -8.5663866746    -2.0725312966     7.9977465188
Ni      2.4561534487     0.0164329939     8.0061482526
Ni     -4.8080033555     0.0189429717     8.2665499000
Ni      3.6622810115     2.1382078391     7.9790879216
Ni     -3.5887574109     2.1885166696     8.1253653015
Ni      1.2361123490    -2.1116420975     8.0184884214
Ni     -6.0844738323    -2.0857005441     8.0112696286
Ni      4.8968733939    -0.0011053000     7.9616662251
Ni     -2.3559761101    -0.0281142877     7.9608420795
Ni      6.1112920480     2.1137128562     8.1322227966
Ni     -1.1659386180     2.1431147128     8.0088229190
Ni      3.6688049801    -2.0677092082     7.9982252331
Ni     -3.6385083457    -2.1241567484     8.0308492205
O       6.1226016837     1.3760836918    10.0219437443
H       9.0552264495     2.5935582374     9.7625230798
H       8.2494006098     2.3098297070     9.8198036180
H       1.4531277126    -3.6125332128    11.1061431793
C       5.9281272518     2.0094942260    11.0781024294
O       7.4093313789     0.4582446760    12.1299603964
H      -7.4644808585     0.1636193173    11.1963104093
C       6.6970526350     1.6690467244    12.3149768881
H       5.9333548672     1.6032179640    13.1195122275
C       7.5349213367     2.8766133305    12.9158072042
H       3.4043420230    -2.5277778048    12.6498205204
H       8.5562513289     2.8430030493    12.5126784325
O       7.5350638372     2.7311306892    14.3445475318
H       8.1661051638     3.3654314791    14.7310253217
O      -4.0510333249     1.2204420080     9.6927768410
H      -3.2318735313     1.0305642700    10.1943329114
88
Step 3 | NEB Image 3 | Cartesian Angstrom
Ni      1.2285271350     0.7092904720     2.0000000000
Ni     -6.1433728650     0.7092904720     2.0000000000
Ni      2.4570542700     2.8371618880     2.0000000000
Ni     -4.9148457300     2.8371618880     2.0000000000
Ni      0.0000000000    -1.4185809440     2.0000000000
Ni     -7.3719000000    -1.4185809440     2.0000000000
Ni      3.6855814050     0.7092904720     2.0000000000
Ni     -3.6863185950     0.7092904720     2.0000000000
Ni      4.9141085400     2.8371618880     2.0000000000
Ni     -2.4577914600     2.8371618880     2.0000000000
Ni      2.4570542700    -1.4185809440     2.0000000000
Ni     -4.9148457300    -1.4185809440     2.0000000000
Ni      6.1433728650     0.7092904720     2.0000000000
Ni     -1.2285271350     0.7092904720     2.0000000000
Ni      7.3719000000     2.8371618880     2.0000000000
Ni      0.0000000000     2.8371618880     2.0000000000
Ni      4.9148457300    -1.4185809440     2.0000000000
Ni     -2.4570542700    -1.4185809440     2.0000000000
Ni      0.0284984701    -0.0084566141     3.9967444732
Ni     -7.3413795437    -0.0123149626     4.0001771732
Ni      1.2516452223     2.1157662585     3.9967014734
Ni     -6.1068517449     2.1191346494     3.9989341081
Ni     -1.1994815844    -2.1363466820     3.9956170734
Ni     -8.5718250828    -2.1359731219     4.0073345568
Ni      2.4887948738    -0.0049019965     4.0012017584
Ni     -4.8821251741    -0.0120756336     3.9988841784
Ni      3.7147138503     2.1135974079     3.9989827544
Ni     -3.6566690288     2.1206235628     4.0112098110
Ni      1.2590040118    -2.1381081558     3.9945006457
Ni     -6.1158770081    -2.1434624245     4.0035446181
Ni      4.9458247321    -0.0095226357     4.0098819378
Ni     -2.4314660202    -0.0091408584     3.9978004822
Ni      6.1765472744     2.1167371955     4.0011313265
Ni     -1.2066810804     2.1213243286     4.0016593203
Ni      3.7173366410    -2.1322060551     3.9860202519
Ni     -3.6562788137    -2.1421483250     3.9946273082
Ni      1.2028636121     0.7353287403     6.0128597224
Ni     -6.1788528248     0.7260344858     6.0126221201
Ni      2.4238039949     2.8628650113     5.9908855392
Ni     -4.9162911832     2.8596695376     6.0287617697
Ni     -0.0323726076    -1.3890011176     6.0052053352
Ni     -7.3863761992    -1.3748725416     6.0289183310
Ni      3.6724735797     0.7286892165     6.0398093532
Ni     -3.7126391375     0.7514165864     6.0314233792
Ni      4.8862282370     2.8692091551     6.0046741928
Ni     -2.4990473515     2.8524161592     6.0562403513
Ni      2.4266441929    -1.3869498890     6.0011836861
Ni     -4.9340565283    -1.4026324829     6.0047100404
Ni      6.1171951196     0.7343725666     6.0143494926
Ni     -1.2568804025     0.7373110010     6.0026901236
Ni      7.3543582266     2.8707447724     5.9904484562
Ni     -0.0343400898     2.8631206326     6.0105261209
Ni      4.8986060056    -1.3794720112     6.0264317295
Ni     -2.4945212338    -1.3927477841     6.0033059361
Ni     -0.0117069294     0.0224044450     8.0113699313
Ni     -7.3552032222     0.0062203790     8.1246773078
Ni      1.2242024588     2.1427635361     8.0094820899
Ni      8.6117722482     2.1625745904     7.9436386472
Ni     -1.2350542796    -2.1114880210     7.9995270391
Ni     -8.5950765636    -2.1260866972     7.9879413267
Ni      2.4356335538     0.0210450065     8.0239752562
Ni     -4.9083483509    -0.0108766163     7.9805484905
Ni      3.6353913177     2.1812189162     7.9745293777
Ni     -3.6806331168     2.1216289574     8.1766346652
Ni      1.2080440998    -2.0851361771     8.0092057298
Ni     -6.1336081521    -2.1075140695     8.0150369881
Ni      4.8744501525    -0.0094695618     8.1278077161
Ni     -2.4397846337    -0.0070211761     7.9875827198
Ni      6.1501685395     2.2207953998     8.0018021454
Ni     -1.2102500095     2.1352355720     8.0130840723
Ni      3.6758573791    -2.0882588249     7.9919594453
Ni     -3.6872444566    -2.1216368081     8.0211747482
O       6.0712795672     0.9061834862     9.3701424586
H      10.6076528064     2.9032996921    10.5571718423
H       6.7395191724     2.1589631891    10.8788287070
H       1.3781430496    -4.7970296873    11.0563268436
C       6.0782326266     1.2777118038    10.7578463723
O       7.1551822637    -0.7863590027    11.2007935996
H      -7.5369730380    -0.8200967921    10.1577457129
C       6.5976659648     0.2552419957    11.7129921010
H       6.4656818198     3.2069019061    13.2174198260
C       7.4543038828     3.5822952931    13.5134030442
H       3.8146624804    -1.7176296204    13.3104933042
H       8.2165213058     3.0742659624    12.8929301938
O       7.5950408627     3.2814021910    14.9016278833
H       8.4126833525     3.6912930023    15.2270446104
O      -3.8767424622     2.0051232132    10.2697440214
H      -2.9728086304     1.8553565499    10.6091833058
88
Step 4 | NEB Image 4 | Cartesian Angstrom
Ni      1.2285271350     0.7092904720     2.0000000000
Ni     -6.1433728650     0.7092904720     2.0000000000
Ni      2.4570542700     2.8371618880     2.0000000000
Ni     -4.9148457300     2.8371618880     2.0000000000
Ni      0.0000000000    -1.4185809440     2.0000000000
Ni     -7.3719000000    -1.4185809440     2.0000000000
Ni      3.6855814050     0.7092904720     2.0000000000
Ni     -3.6863185950     0.7092904720     2.0000000000
Ni      4.9141085400     2.8371618880     2.0000000000
Ni     -2.4577914600     2.8371618880     2.0000000000
Ni      2.4570542700    -1.4185809440     2.0000000000
Ni     -4.9148457300    -1.4185809440     2.0000000000
Ni      6.1433728650     0.7092904720     2.0000000000
Ni     -1.2285271350     0.7092904720     2.0000000000
Ni      7.3719000000     2.8371618880     2.0000000000
Ni      0.0000000000     2.8371618880     2.0000000000
Ni      4.9148457300    -1.4185809440     2.0000000000
Ni     -2.4570542700    -1.4185809440     2.0000000000
Ni      0.0409198321    -0.0225586118     3.9983949558
Ni     -7.3366911532    -0.0169061559     4.0029679622
Ni      1.2683885111     2.1037532092     3.9970519797
Ni     -6.1046827714     2.1080276277     4.0016246099
Ni     -1.1878189288    -2.1491784772     3.9972962394
Ni     -8.5629559931    -2.1465914678     4.0029506284
Ni      2.5009274331    -0.0186532162     4.0049484229
Ni     -4.8742544180    -0.0171152296     3.9993751996
Ni      3.7279197880     2.1026174991     4.0089958476
Ni     -3.6492095639     2.1094106278     4.0009975662
Ni      1.2677747573    -2.1546546331     4.0018706818
Ni     -6.1030815953    -2.1500211112     3.9968101923
Ni      4.9545461846    -0.0197433389     4.0126876579
Ni     -2.4223484397    -0.0190381868     3.9963361931
Ni      6.1824796338     2.1057221506     4.0088464606
Ni     -1.1917059511     2.1088555827     3.9945367401
Ni      3.7229442819    -2.1473613811     3.9924677703
Ni     -3.6450663196    -2.1491379336     3.9923821927
Ni      1.2205469253     0.7184443773     6.0123870332
Ni     -6.1563486323     0.7063951009     6.0205694435
Ni      2.4482834472     2.8437361001     5.9993489007
Ni     -4.9007222666     2.8367530235     6.0193004021
Ni     -0.0109301585    -1.4118439751     6.0088689699
Ni     -7.3717582992    -1.3946354341     6.0122278006
Ni      3.6892483132     0.7087187699     6.0515275871
Ni     -3.6911331173     0.7327421640     6.0321884509
Ni      4.9137049101     2.8413360822     6.0345270306
Ni     -2.4730971223     2.8399171085     6.0193252720
Ni      2.4396158851    -1.4059432637     6.0069473005
Ni     -4.9103863807    -1.4117721910     6.0002512912
Ni      6.1339404319     0.7171563743     6.0324810201
Ni     -1.2401758089     0.7185318592     5.9955870069
Ni      7.3650974714     2.8424181502     6.0128210395
Ni     -0.0094487038     2.8508189367     5.9990039070
Ni      4.9076387252    -1.4004498936     6.0215537854
Ni     -2.4705375925    -1.4089924541     6.0013542466
Ni      0.0164240805    -0.0062578910     8.0090959436
Ni     -7.3387010457    -0.0074416230     8.0998179784
Ni      1.2505626553     2.1162658560     8.0102516655
Ni      8.6455753343     2.1446201586     7.9657419092
Ni     -1.2055158182    -2.1359578104     8.0061662281
Ni     -8.5891924018    -2.1551050389     7.9593183686
Ni      2.4560146153    -0.0043709009     8.0309582894
Ni     -4.8465601505    -0.0095654408     8.0117349953
Ni      3.6657149942     2.1462504312     7.9997550644
Ni     -3.6463901680     2.1090571398     8.1353180550
Ni      1.2339965523    -2.1198588869     8.0228184708
Ni     -6.0964145603    -2.1593735901     7.9931596196
Ni      4.8992167100    -0.0397645176     8.1278032813
Ni     -2.4096952402    -0.0325487268     7.9922048747
Ni      6.1711688768     2.1763571457     8.0763027076
Ni     -1.1717770641     2.1085542710     7.9817616129
Ni      3.6870693889    -2.1211279190     7.9963727489
Ni     -3.6429841825    -2.1494629273     8.0150920520
O       6.1338534013     0.7609288167     9.4371791360
H      11.2291966910     3.1592040480    10.4513845611
H       6.8996744383     1.8006906734    11.0792616640
H       1.6028972881    -5.3355863963    11.3126133411
C       6.2763306575     0.9189715069    10.8434764268
O       7.4956167217    -1.2236986919    11.1575085295
H      -6.0494596456    -0.7563380086     8.9026778376
C       6.9634125803    -0.2325462731    11.5398864784
H       8.0285718483     4.4347415567    11.7082986591
C       8.1921495049     4.3179072469    12.7877136100
H       3.6366335798    -1.6533746243    13.3238279617
H       9.0894490163     4.8947902035    13.0711838890
O       8.3606900171     2.9160924194    13.0238378848
H       8.5573220417     2.7833328407    13.9656571290
O      -3.6096959520     2.2058124118    10.2367733127
H      -2.7392343322     1.8024239723    10.4280367305
88
Step 5 | NEB Image 5 | Cartesian Angstrom
Ni      1.2285271350     0.7092904720     2.0000000000
Ni     -6.1433728650     0.7092904720     2.0000000000
Ni      2.4570542700     2.8371618880     2.0000000000
Ni     -4.9148457300     2.8371618880     2.0000000000
Ni      0.0000000000    -1.4185809440     2.0000000000
Ni     -7.3719000000    -1.4185809440     2.0000000000
Ni      3.6855814050     0.7092904720     2.0000000000
Ni     -3.6863185950     0.7092904720     2.0000000000
Ni      4.9141085400     2.8371618880     2.0000000000
Ni     -2.4577914600     2.8371618880     2.0000000000
Ni      2.4570542700    -1.4185809440     2.0000000000
Ni     -4.9148457300    -1.4185809440     2.0000000000
Ni      6.1433728650     0.7092904720     2.0000000000
Ni     -1.2285271350     0.7092904720     2.0000000000
Ni      7.3719000000     2.8371618880     2.0000000000
Ni      0.0000000000     2.8371618880     2.0000000000
Ni      4.9148457300    -1.4185809440     2.0000000000
Ni     -2.4570542700    -1.4185809440     2.0000000000
Ni      0.0464326620    -0.0306468460     3.9976675890
Ni     -7.3257303870    -0.0255862300     3.9933782980
Ni      1.2739848450     2.0960038070     3.9979157030
Ni     -6.1026021170     2.1049500680     4.0019149180
Ni     -1.1827110610    -2.1546561820     3.9989053170
Ni     -8.5597082650    -2.1592869340     3.9982394010
Ni      2.5024778430    -0.0256743600     4.0031952220
Ni     -4.8641413240    -0.0227350050     3.9956475690
Ni      3.7346756480     2.0985190290     4.0083618800
Ni     -3.6458198020     2.0991473590     4.0056686860
Ni      1.2703768650    -2.1597674920     4.0015811390
Ni     -6.0933336510    -2.1603781540     3.9902680500
Ni      4.9590538200    -0.0289845540     4.0074783820
Ni     -2.4167678920    -0.0248088220     4.0022401470
Ni      6.1885777810     2.1026461420     4.0098077600
Ni     -1.1844811720     2.0985803670     3.9964394390
Ni      3.7245308300    -2.1560713310     3.9888953010
Ni     -3.6351397940    -2.1574140910     3.9933365850
Ni      1.2278611130     0.7073057200     6.0134419810
Ni     -6.1428898530     0.6957346210     6.0102358510
Ni      2.4563605190     2.8356121920     5.9987058000
Ni     -4.8924583120     2.8187736320     6.0264580820
Ni      0.0002252210    -1.4241376010     6.0155868270
Ni     -7.3667991100    -1.4101212980     5.9895528060
Ni      3.6921281460     0.7008202940     6.0360645010
Ni     -3.6779272240     0.7256007260     6.0512861550
Ni      4.9267336850     2.8309168990     6.0432780270
Ni     -2.4664659500     2.8157315660     6.0151173370
Ni      2.4509011280    -1.4197685090     6.0062316800
Ni     -4.8985683740    -1.4191884620     5.9881596610
Ni      6.1372839650     0.7115480370     6.0073921100
Ni     -1.2256557510     0.7019370040     6.0032560690
Ni      7.3730564330     2.8242126570     6.0269074010
Ni     -0.0034566730     2.8405670140     6.0010880700
Ni      4.9162369820    -1.4189308570     6.0083232610
Ni     -2.4596272260    -1.4182314770     6.0084483810
Ni      0.0277268390    -0.0168450280     8.0180888710
Ni     -7.3091221710    -0.0327920680     8.0371701400
Ni      1.2611452740     2.1078740620     8.0062525300
Ni      8.6667549770     2.1138793650     7.9801313330
Ni     -1.1942402360    -2.1496555940     8.0109921590
Ni     -8.5668484660    -2.1735761150     7.9430911750
Ni      2.4712577410    -0.0190631580     8.0243063390
Ni     -4.8670711400    -0.0431110720     7.9967287920
Ni      3.6750137580     2.1321536040     7.9940007810
Ni     -3.6274773380     2.0999917070     8.2089215290
Ni      1.2517815200    -2.1329879940     8.0267060850
Ni     -6.0785108950    -2.1534189890     7.9361595560
Ni      4.9123316280    -0.0512787390     8.0829089500
Ni     -2.4007725170    -0.0429334740     8.0081832520
Ni      6.1908597070     2.1505617180     8.1094472440
Ni     -1.1654360560     2.0989982700     7.9806126390
Ni      3.7077660390    -2.1419918620     7.9975968800
Ni     -3.6463297530    -2.1524111230     8.0158878220
O       6.1707187590     0.6663307040     9.3727337630
H      11.2555922500     3.1706166680    10.5266232770
H       7.1149227860     1.0824741990    11.1550798120
H       1.6297081310    -5.3793991980    11.2177269450
C       6.2238707100     0.5353136510    10.8108846880
O       7.5718415080    -1.5277099790    10.9241884940
H      -6.8828388710    -1.2337967880    10.0124245870
C       6.2850334910    -0.9302036460    11.2182633770
H       9.1791669060     4.9099545600    10.6626973770
C       9.7467965870     5.2786349730    12.7161077750
H       5.0959169980    -0.6608682970    12.9933131080
H      10.5457770910     5.8077082870    13.2666670860
O       9.6783811350     3.9068622240    13.1006105230
H      10.5447055700     3.5019751520    12.9206205020
O      -3.5153567700     2.2005093110    10.2599052050
H      -2.6227032800     1.8412518110    10.4321503050
