88
Step 1 | NEB Image 1 | Cartesian Angstrom
Ni      1.2285271350     0.7092904720     2.0000000000
Ni     -6.1433728650     0.7092904720     2.0000000000
Ni      2.4570542700     2.8371618880     2.0000000000
Ni     -4.9148457300     2.8371618880     2.0000000000
Ni      0.0000000000    -1.4185809440     2.0000000000
Ni     -7.3719000000    -1.4185809440     2.0000000000
Ni      3.6855814050     0.7092904720     2.0000000000
Ni     -3.6863185950     0.7092904720     2.0000000000
Ni      4.9141085400     2.8371618880     2.0000000000
Ni     -2.4577914600     2.8371618880     2.0000000000
Ni      2.4570542700    -1.4185809440     2.0000000000
Ni     -4.9148457300    -1.4185809440     2.0000000000
Ni      6.1433728650     0.7092904720     2.0000000000
Ni     -1.2285271350     0.7092904720     2.0000000000
Ni      7.3719000000     2.8371618880     2.0000000000
Ni      0.0000000000     2.8371618880     2.0000000000
Ni      4.9148457300    -1.4185809440     2.0000000000
Ni     -2.4570542700    -1.4185809440     2.0000000000
Ni      0.0345187234    -0.0219895959     3.9906686506
Ni     -7.3332872529    -0.0205271350     3.9970929970
Ni      1.2574298371     2.1090479016     3.9981086770
Ni     -6.1061214153     2.1042281316     4.0017605185
Ni     -1.1958375155    -2.1495425789     3.9888614873
Ni     -8.5615731291    -2.1597422030     3.9935633301
Ni      2.4909200515    -0.0209290578     3.9889124626
Ni     -4.8775455868    -0.0288695998     4.0155932973
Ni      3.7235299523     2.1102350339     3.9932622384
Ni     -3.6483031855     2.1055811522     4.0174271749
Ni      1.2597529797    -2.1544756242     3.9969618463
Ni     -6.1074652262    -2.1506208434     4.0019689283
Ni      4.9550771908    -0.0234645643     3.9935565644
Ni     -2.4269867653    -0.0199772708     3.9982338911
Ni      6.1741097051     2.1083418571     4.0046158614
Ni     -1.1996729370     2.1123145435     4.0000024585
Ni      3.7197951829    -2.1539414756     3.9921760547
Ni     -3.6589301935    -2.1514998115     3.9994955107
Ni      1.2136841869     0.7163863979     5.9963073096
Ni     -6.1473437226     0.7096773911     6.0218176054
Ni      2.4453295017     2.8415084524     5.9971730433
Ni     -4.9231971923     2.8360653972     6.0327934449
Ni     -0.0226348385    -1.4110330430     6.0020236029
Ni     -7.3908667378    -1.4145678834     5.9981301391
Ni      3.6669417345     0.7157583701     5.9869138182
Ni     -3.7108784987     0.7190435175     6.0328517480
Ni      4.9057976617     2.8388244163     6.0411982092
Ni     -2.4814248435     2.8298458387     6.0521186228
Ni      2.4355069788    -1.4085502466     5.9888639843
Ni     -4.9252928465    -1.4026264080     6.0548563839
Ni      6.1341025786     0.7315238745     6.0218817427
Ni     -1.2402669783     0.7221835538     5.9926808095
Ni      7.3408175190     2.8291688103     6.0248565089
Ni     -0.0225097209     2.8466795557     6.0142376281
Ni      4.9088271165    -1.4251457534     5.9900387779
Ni     -2.4790699264    -1.4211153466     5.9913638200
Ni      0.0337137405    -0.0099863123     8.0038502320
Ni     -7.3606520147    -0.0334139511     7.9835827732
Ni      1.2525382386     2.1076756093     8.0014158677
Ni      8.5596645315     2.1514300915     7.9633346422
Ni     -1.1983605499    -2.1613845897     8.0018652759
Ni     -8.5927669864    -2.1264268734     8.0165035337
Ni      2.4708324722    -0.0109047600     8.0065027389
Ni     -4.8995212632    -0.0584838282     8.1493062015
Ni      3.6789469906     2.1047412898     7.9888648741
Ni     -3.6333178494     2.1270714900     8.1546283531
Ni      1.2394335961    -2.1164979174     7.9892760222
Ni     -6.1305722611    -2.1461024656     7.9989212299
Ni      4.9150163145    -0.0283439881     7.9490640309
Ni     -2.3653823178    -0.0601929248     7.9425724452
Ni      6.1349712758     2.1197335004     8.1598232492
Ni     -1.1861990586     2.1067384809     8.0263285947
Ni      3.6953023012    -2.1157302873     7.9694462946
Ni     -3.6468332403    -2.1628724713     8.0264725749
O       5.9486020032     1.9536774433    10.1568983318
H       6.2023593986     1.0444615420    10.4395396161
H       7.6485803319     2.9982816350    10.7947394844
H       2.3841835216    -2.5662265370    10.9995346326
C       6.5922936452     2.8570131008    11.0871865803
O       6.8828593053     0.8516013498    12.3925733789
H      -6.8879959571     0.8254517200    12.3248078773
C       6.4620997723     2.2299052156    12.4710261049
H       5.3979785171     2.1706601767    12.7461907790
C       7.1981974178     3.0342299686    13.5247288963
H       3.2389656514    -2.2859498111    13.4051121917
H       8.2901195875     2.9478942375    13.3576433856
O       6.8260697992     2.5426661176    14.8120038538
H       7.2522042786     3.0948827032    15.4870039972
O      -4.3927237137     1.0982075682     9.5865509607
H      -3.6717371060     0.6667680985    10.0888232085
88
Step 2 | NEB Image 2 | Cartesian Angstrom
Ni      1.2285271350     0.7092904720     2.0000000000
Ni     -6.1433728650     0.7092904720     2.0000000000
Ni      2.4570542700     2.8371618880     2.0000000000
Ni     -4.9148457300     2.8371618880     2.0000000000
Ni      0.0000000000    -1.4185809440     2.0000000000
Ni     -7.3719000000    -1.4185809440     2.0000000000
Ni      3.6855814050     0.7092904720     2.0000000000
Ni     -3.6863185950     0.7092904720     2.0000000000
Ni      4.9141085400     2.8371618880     2.0000000000
Ni     -2.4577914600     2.8371618880     2.0000000000
Ni      2.4570542700    -1.4185809440     2.0000000000
Ni     -4.9148457300    -1.4185809440     2.0000000000
Ni      6.1433728650     0.7092904720     2.0000000000
Ni     -1.2285271350     0.7092904720     2.0000000000
Ni      7.3719000000     2.8371618880     2.0000000000
Ni      0.0000000000     2.8371618880     2.0000000000
Ni      4.9148457300    -1.4185809440     2.0000000000
Ni     -2.4570542700    -1.4185809440     2.0000000000
Ni      0.0391007885    -0.0150831491     3.9928822611
Ni     -7.3187720876    -0.0072667074     4.0046147289
Ni      1.2620753607     2.1174590926     3.9980041529
Ni     -6.1041160408     2.1146024856     4.0302197560
Ni     -1.1914042474    -2.1405523678     3.9898461001
Ni     -8.5544058033    -2.1513934389     4.0002304546
Ni      2.4973249151    -0.0182557005     3.9922228268
Ni     -4.8778826821    -0.0101318020     4.0268898466
Ni      3.7292105914     2.1148073251     3.9957652563
Ni     -3.6431320524     2.1192026902     4.0190310264
Ni      1.2646421977    -2.1472998177     3.9983491666
Ni     -6.0994179508    -2.1372703311     4.0047236202
Ni      4.9649268147    -0.0188442233     3.9954909295
Ni     -2.4240748430    -0.0077932112     3.9991728435
Ni      6.1832959850     2.1159419481     4.0053500129
Ni     -1.1951857966     2.1224649532     3.9997224897
Ni      3.7265917112    -2.1553698113     3.9990887685
Ni     -3.6556566362    -2.1346616241     4.0021702181
Ni      1.2227298943     0.7281030564     5.9953494758
Ni     -6.1153572782     0.7498598332     6.0916057560
Ni      2.4516419160     2.8553361503     5.9918175351
Ni     -4.9189526175     2.8402704451     6.0548065650
Ni     -0.0098108553    -1.4013510235     6.0055833895
Ni     -7.3729739897    -1.3943539870     6.0031277790
Ni      3.6757289638     0.7236163472     5.9869007750
Ni     -3.6918661631     0.7372012878     6.0410234993
Ni      4.9188230477     2.8456704944     6.0402377809
Ni     -2.4679418808     2.8587429463     6.0502581239
Ni      2.4457182256    -1.4065131695     5.9983637710
Ni     -4.9095378722    -1.3678976384     6.0633620797
Ni      6.1500521473     0.7311177627     6.0132428901
Ni     -1.2284542516     0.7378578077     5.9931753075
Ni      7.3555528004     2.8305340807     6.0708239541
Ni     -0.0115492279     2.8691526216     6.0071994350
Ni      4.9120453003    -1.4159936592     5.9910911808
Ni     -2.4631316527    -1.4033532482     5.9933357845
Ni      0.0463636269     0.0001136649     8.0037780534
Ni     -7.3137755426    -0.0187684585     7.9859194374
Ni      1.2604819418     2.1258416778     7.9980145201
Ni      8.5681978506     2.2303327391     8.1465829546
Ni     -1.1869061570    -2.1446851596     8.0043187780
Ni     -8.5562562656    -2.0847221362     7.9922878479
Ni      2.4670622310     0.0078352014     8.0039730742
Ni     -4.8138935875    -0.0053037772     8.2394136218
Ni      3.6726412231     2.1265407002     7.9815038079
Ni     -3.5804291300     2.1654872831     8.1275758484
Ni      1.2459847767    -2.1180935528     8.0113130598
Ni     -6.0809742644    -2.1028527862     8.0093962875
Ni      4.9091266489    -0.0123078173     7.9567423411
Ni     -2.3446428614    -0.0401324422     7.9541208796
Ni      6.1119534069     2.1035435545     8.1355350013
Ni     -1.1577617650     2.1310946920     8.0131277267
Ni      3.6767095676    -2.0726853835     7.9894712917
Ni     -3.6277317693    -2.1372866537     8.0293637777
O       6.1214839174     1.5011791234    10.0551417365
H       9.0544813925     2.5139384789     9.7022380657
H       8.2254110899     2.3630448986     9.7292431534
H       1.6857714655    -3.2654575939    11.0161437921
C       6.0182140690     2.2325369252    11.0585422948
O       7.3855494441     0.6291822746    12.2031764842
H      -7.5015096889     0.2926570898    11.2877513379
C       6.7175320595     1.8693347338    12.3269186262
H       5.9080560872     1.8388142987    13.0910270591
C       7.5894796265     3.0212789504    12.9328713438
H       3.4471787311    -2.3713470851    12.7406119170
H       8.5874537829     3.0065744067    12.4707229259
O       7.6553340815     2.7860709338    14.3450774166
H       8.2739075205     3.4208337807    14.7473462945
O      -4.0936752412     1.1576138184     9.6658588368
H      -3.3065696538     0.9012345971    10.1869538815
88
Step 3 | NEB Image 3 | Cartesian Angstrom
Ni      1.2285271350     0.7092904720     2.0000000000
Ni     -6.1433728650     0.7092904720     2.0000000000
Ni      2.4570542700     2.8371618880     2.0000000000
Ni     -4.9148457300     2.8371618880     2.0000000000
Ni      0.0000000000    -1.4185809440     2.0000000000
Ni     -7.3719000000    -1.4185809440     2.0000000000
Ni      3.6855814050     0.7092904720     2.0000000000
Ni     -3.6863185950     0.7092904720     2.0000000000
Ni      4.9141085400     2.8371618880     2.0000000000
Ni     -2.4577914600     2.8371618880     2.0000000000
Ni      2.4570542700    -1.4185809440     2.0000000000
Ni     -4.9148457300    -1.4185809440     2.0000000000
Ni      6.1433728650     0.7092904720     2.0000000000
Ni     -1.2285271350     0.7092904720     2.0000000000
Ni      7.3719000000     2.8371618880     2.0000000000
Ni      0.0000000000     2.8371618880     2.0000000000
Ni      4.9148457300    -1.4185809440     2.0000000000
Ni     -2.4570542700    -1.4185809440     2.0000000000
Ni      0.0330099999    -0.0118850789     3.9964224135
Ni     -7.3376220688    -0.0180816301     3.9992093691
Ni      1.2546981252     2.1120903496     3.9965416122
Ni     -6.1016029444     2.1149677634     3.9968025992
Ni     -1.1950065687    -2.1407323433     3.9947869527
Ni     -8.5684487260    -2.1381847655     4.0089758555
Ni      2.4927035113    -0.0081741339     4.0012870149
Ni     -4.8778290477    -0.0171941447     3.9977887614
Ni      3.7176697521     2.1082618802     3.9973308605
Ni     -3.6522450847     2.1181177132     4.0107799692
Ni      1.2640016581    -2.1414833109     3.9925607779
Ni     -6.1135040196    -2.1478203575     4.0053746272
Ni      4.9486676336    -0.0140089583     4.0099798620
Ni     -2.4262283449    -0.0130502219     3.9965817062
Ni      6.1809813619     2.1117414533     3.9984006670
Ni     -1.2036627483     2.1184369389     4.0029580920
Ni      3.7224493410    -2.1341435617     3.9854455393
Ni     -3.6529652528    -2.1465536386     3.9946584642
Ni      1.2107938225     0.7285826828     6.0133604875
Ni     -6.1732827777     0.7204022666     6.0071227242
Ni      2.4288672010     2.8563502639     5.9896438729
Ni     -4.9095754497     2.8565561666     6.0266270529
Ni     -0.0269825145    -1.3945715742     6.0034243230
Ni     -7.3789044496    -1.3817184228     6.0359198725
Ni      3.6808426074     0.7213109776     6.0423455558
Ni     -3.7067312631     0.7444732716     6.0239625991
Ni      4.8891541923     2.8641404148     5.9957521176
Ni     -2.4935592244     2.8448728588     6.0638773730
Ni      2.4335372749    -1.3930775498     6.0005918880
Ni     -4.9296268719    -1.4112999762     6.0047404168
Ni      6.1236153472     0.7241405883     6.0105261125
Ni     -1.2492352716     0.7319228962     6.0027156319
Ni      7.3614580438     2.8685910726     5.9815938435
Ni     -0.0289490229     2.8553132583     6.0125499873
Ni      4.9070928468    -1.3827554149     6.0336817204
Ni     -2.4893651586    -1.3997120784     6.0012407811
Ni     -0.0020911479     0.0126974433     8.0111399939
Ni     -7.3480487124     0.0033550742     8.1224138790
Ni      1.2322219591     2.1332696012     8.0105956044
Ni      8.6157295735     2.1567770726     7.9319848428
Ni     -1.2279707170    -2.1197922433     7.9979233010
Ni     -8.5861330647    -2.1324104159     7.9996548885
Ni      2.4466464327     0.0113596835     8.0251582318
Ni     -4.9012061388    -0.0210197186     7.9712147279
Ni      3.6429957576     2.1747192645     7.9714332019
Ni     -3.6748720255     2.1111038941     8.1727324193
Ni      1.2161328220    -2.0941916178     8.0049529111
Ni     -6.1286757894    -2.1157995076     8.0259192604
Ni      4.8854518918    -0.0124445565     8.1492606102
Ni     -2.4318289445    -0.0153272484     7.9811767399
Ni      6.1564069477     2.2077124613     7.9715224515
Ni     -1.2038695485     2.1258612208     8.0211619885
Ni      3.6854003680    -2.0935592996     7.9920712755
Ni     -3.6797206965    -2.1312537213     8.0205186278
O       6.0841302068     0.9392608264     9.3849563335
H      10.4678900917     2.7683558474    10.5699996287
H       6.7800233141     2.3830293756    10.7015281793
H       1.4216831312    -4.5272619233    10.9830301831
C       6.1134237595     1.4964589628    10.7157960566
O       7.1374421469    -0.5185265655    11.3874265059
H      -7.6150170862    -0.6623739145    10.3714079516
C       6.6348391277     0.6027894204    11.7867287484
H       6.5249625579     3.3436789191    13.1086305250
C       7.5056407547     3.6723230212    13.4764396543
H       3.8700217738    -1.6104306709    13.4324327007
H       8.2808455877     3.2559423581    12.8045721708
O       7.6203918946     3.1754675891    14.8091740093
H       8.3828212696     3.5996071320    15.2342196089
O      -3.9793095154     1.8931562300    10.2516096974
H      -3.1146217601     1.7129402067    10.6678679870
88
Step 4 | NEB Image 4 | Cartesian Angstrom
Ni      1.2285271350     0.7092904720     2.0000000000
Ni     -6.1433728650     0.7092904720     2.0000000000
Ni      2.4570542700     2.8371618880     2.0000000000
Ni     -4.9148457300     2.8371618880     2.0000000000
Ni      0.0000000000    -1.4185809440     2.0000000000
Ni     -7.3719000000    -1.4185809440     2.0000000000
Ni      3.6855814050     0.7092904720     2.0000000000
Ni     -3.6863185950     0.7092904720     2.0000000000
Ni      4.9141085400     2.8371618880     2.0000000000
Ni     -2.4577914600     2.8371618880     2.0000000000
Ni      2.4570542700    -1.4185809440     2.0000000000
Ni     -4.9148457300    -1.4185809440     2.0000000000
Ni      6.1433728650     0.7092904720     2.0000000000
Ni     -1.2285271350     0.7092904720     2.0000000000
Ni      7.3719000000     2.8371618880     2.0000000000
Ni      0.0000000000     2.8371618880     2.0000000000
Ni      4.9148457300    -1.4185809440     2.0000000000
Ni     -2.4570542700    -1.4185809440     2.0000000000
Ni      0.0396307057    -0.0159560757     3.9972703233
Ni     -7.3368164875    -0.0098918340     3.9968514839
Ni      1.2652675771     2.1107270793     3.9995895558
Ni     -6.1077009158     2.1198394862     3.9999254029
Ni     -1.1886405262    -2.1414541956     3.9965473609
Ni     -8.5675904150    -2.1416661058     4.0032261079
Ni      2.4966798564    -0.0101438273     4.0033561076
Ni     -4.8755735201    -0.0109894509     3.9871353328
Ni      3.7265220599     2.1088315304     4.0083156270
Ni     -3.6576486236     2.1122350991     3.9968429751
Ni      1.2655651401    -2.1448263979     4.0000747947
Ni     -6.1054514641    -2.1469183306     3.9935539277
Ni      4.9506677638    -0.0167277783     4.0098907898
Ni     -2.4248260299    -0.0122596118     4.0000020822
Ni      6.1809966978     2.1179906461     4.0027576290
Ni     -1.1903116059     2.1124537783     3.9899187132
Ni      3.7216887466    -2.1382722648     3.9948219130
Ni     -3.6433909846    -2.1471420177     3.9895568606
Ni      1.2147874899     0.7304923650     6.0135027293
Ni     -6.1638573900     0.7233617890     6.0107310694
Ni      2.4398811671     2.8556550942     5.9971196106
Ni     -4.9006568888     2.8539622803     6.0314504692
Ni     -0.0167187266    -1.3980219170     6.0101211064
Ni     -7.3758590087    -1.3817474992     5.9968944221
Ni      3.6827275707     0.7198454037     6.0496321809
Ni     -3.7023124889     0.7402906630     6.0405214282
Ni      4.9063380343     2.8599603959     6.0326342241
Ni     -2.4739494132     2.8243428986     6.0018838582
Ni      2.4374051059    -1.3940497535     6.0049613436
Ni     -4.9080114934    -1.3978342641     5.9795990887
Ni      6.1259282360     0.7381910669     6.0222529761
Ni     -1.2390223621     0.7210263242     5.9959540407
Ni      7.3595917299     2.8552672794     6.0166289840
Ni     -0.0222878081     2.8612601311     6.0091124758
Ni      4.9111635938    -1.3887679518     6.0348813158
Ni     -2.4720851031    -1.4025477033     5.9996280286
Ni      0.0115354941     0.0068837297     8.0150173931
Ni     -7.3452483616    -0.0004449302     8.0883651978
Ni      1.2461903443     2.1327028177     8.0130802235
Ni      8.6338224186     2.1548845769     7.9570984164
Ni     -1.2081155521    -2.1223643967     8.0071281448
Ni     -8.5749702087    -2.1391074790     7.9840573368
Ni      2.4491050029     0.0133113336     8.0289436611
Ni     -4.8775075669    -0.0140834937     7.9919280475
Ni      3.6592175172     2.1641367924     7.9955337595
Ni     -3.6668418288     2.1123367023     8.1682893145
Ni      1.2292565290    -2.0992881020     8.0216938375
Ni     -6.0750237581    -2.1533719806     7.9543516176
Ni      4.8931816477    -0.0117208688     8.1251172396
Ni     -2.4142587246    -0.0224499013     7.9938390345
Ni      6.1656020004     2.1813312237     8.0765561356
Ni     -1.1828629856     2.1083795405     7.9904167978
Ni      3.6886921308    -2.1041654383     7.9963297831
Ni     -3.6469824691    -2.1301149532     8.0148522218
O       6.1527692892     0.7762414062     9.4393037984
H      11.1152426064     3.1095623463    10.5095244238
H       6.8685053840     1.8604040739    11.0683914109
H       1.6361006429    -5.3821277502    11.3379106766
C       6.3071604745     0.9357331215    10.8500460453
O       7.6756045604    -1.1122898154    11.2046559300
H      -6.7206023587    -1.1403233949     9.0201341604
C       7.0776710794    -0.1507484462    11.5598311884
H       8.0738012821     4.3076498499    11.7699209846
C       8.3262154471     4.3069004733    12.8381876722
H       3.8281791962    -1.5757620116    13.3881539280
H       9.2554248042     4.8844709261    12.9804433285
O       8.4865275496     2.9379412874    13.2213733699
H       8.6854484061     2.9069248579    14.1714992521
O      -3.6701329823     2.1587661712    10.2751548391
H      -2.7841483878     1.7995117349    10.4820413801
88
Step 5 | NEB Image 5 | Cartesian Angstrom
Ni      1.2285271350     0.7092904720     2.0000000000
Ni     -6.1433728650     0.7092904720     2.0000000000
Ni      2.4570542700     2.8371618880     2.0000000000
Ni     -4.9148457300     2.8371618880     2.0000000000
Ni      0.0000000000    -1.4185809440     2.0000000000
Ni     -7.3719000000    -1.4185809440     2.0000000000
Ni      3.6855814050     0.7092904720     2.0000000000
Ni     -3.6863185950     0.7092904720     2.0000000000
Ni      4.9141085400     2.8371618880     2.0000000000
Ni     -2.4577914600     2.8371618880     2.0000000000
Ni      2.4570542700    -1.4185809440     2.0000000000
Ni     -4.9148457300    -1.4185809440     2.0000000000
Ni      6.1433728650     0.7092904720     2.0000000000
Ni     -1.2285271350     0.7092904720     2.0000000000
Ni      7.3719000000     2.8371618880     2.0000000000
Ni      0.0000000000     2.8371618880     2.0000000000
Ni      4.9148457300    -1.4185809440     2.0000000000
Ni     -2.4570542700    -1.4185809440     2.0000000000
Ni      0.0464326620    -0.0306468460     3.9976675890
Ni     -7.3257303870    -0.0255862300     3.9933782980
Ni      1.2739848450     2.0960038070     3.9979157030
Ni     -6.1026021170     2.1049500680     4.0019149180
Ni     -1.1827110610    -2.1546561820     3.9989053170
Ni     -8.5597082650    -2.1592869340     3.9982394010
Ni      2.5024778430    -0.0256743600     4.0031952220
Ni     -4.8641413240    -0.0227350050     3.9956475690
Ni      3.7346756480     2.0985190290     4.0083618800
Ni     -3.6458198020     2.0991473590     4.0056686860
Ni      1.2703768650    -2.1597674920     4.0015811390
Ni     -6.0933336510    -2.1603781540     3.9902680500
Ni      4.9590538200    -0.0289845540     4.0074783820
Ni     -2.4167678920    -0.0248088220     4.0022401470
Ni      6.1885777810     2.1026461420     4.0098077600
Ni     -1.1844811720     2.0985803670     3.9964394390
Ni      3.7245308300    -2.1560713310     3.9888953010
Ni     -3.6351397940    -2.1574140910     3.9933365850
Ni      1.2278611130     0.7073057200     6.0134419810
Ni     -6.1428898530     0.6957346210     6.0102358510
Ni      2.4563605190     2.8356121920     5.9987058000
Ni     -4.8924583120     2.8187736320     6.0264580820
Ni      0.0002252210    -1.4241376010     6.0155868270
Ni     -7.3667991100    -1.4101212980     5.9895528060
Ni      3.6921281460     0.7008202940     6.0360645010
Ni     -3.6779272240     0.7256007260     6.0512861550
Ni      4.9267336850     2.8309168990     6.0432780270
Ni     -2.4664659500     2.8157315660     6.0151173370
Ni      2.4509011280    -1.4197685090     6.0062316800
Ni     -4.8985683740    -1.4191884620     5.9881596610
Ni      6.1372839650     0.7115480370     6.0073921100
Ni     -1.2256557510     0.7019370040     6.0032560690
Ni      7.3730564330     2.8242126570     6.0269074010
Ni     -0.0034566730     2.8405670140     6.0010880700
Ni      4.9162369820    -1.4189308570     6.0083232610
Ni     -2.4596272260    -1.4182314770     6.0084483810
Ni      0.0277268390    -0.0168450280     8.0180888710
Ni     -7.3091221710    -0.0327920680     8.0371701400
Ni      1.2611452740     2.1078740620     8.0062525300
Ni      8.6667549770     2.1138793650     7.9801313330
Ni     -1.1942402360    -2.1496555940     8.0109921590
Ni     -8.5668484660    -2.1735761150     7.9430911750
Ni      2.4712577410    -0.0190631580     8.0243063390
Ni     -4.8670711400    -0.0431110720     7.9967287920
Ni      3.6750137580     2.1321536040     7.9940007810
Ni     -3.6274773380     2.0999917070     8.2089215290
Ni      1.2517815200    -2.1329879940     8.0267060850
Ni     -6.0785108950    -2.1534189890     7.9361595560
Ni      4.9123316280    -0.0512787390     8.0829089500
Ni     -2.4007725170    -0.0429334740     8.0081832520
Ni      6.1908597070     2.1505617180     8.1094472440
Ni     -1.1654360560     2.0989982700     7.9806126390
Ni      3.7077660390    -2.1419918620     7.9975968800
Ni     -3.6463297530    -2.1524111230     8.0158878220
O       6.1707187590     0.6663307040     9.3727337630
H      11.2555922500     3.1706166680    10.5266232770
H       7.1149227860     1.0824741990    11.1550798120
H       1.6297081310    -5.3793991980    11.2177269450
C       6.2238707100     0.5353136510    10.8108846880
O       7.5718415080    -1.5277099790    10.9241884940
H      -6.8828388710    -1.2337967880    10.0124245870
C       6.2850334910    -0.9302036460    11.2182633770
H       9.1791669060     4.9099545600    10.6626973770
C       9.7467965870     5.2786349730    12.7161077750
H       5.0959169980    -0.6608682970    12.9933131080
H      10.5457770910     5.8077082870    13.2666670860
O       9.6783811350     3.9068622240    13.1006105230
H      10.5447055700     3.5019751520    12.9206205020
O      -3.5153567700     2.2005093110    10.2599052050
H      -2.6227032800     1.8412518110    10.4321503050
