88
Step 1 | NEB Image 1 | Cartesian Angstrom
Ni      1.2285271350     0.7092904720     2.0000000000
Ni     -6.1433728650     0.7092904720     2.0000000000
Ni      2.4570542700     2.8371618880     2.0000000000
Ni     -4.9148457300     2.8371618880     2.0000000000
Ni      0.0000000000    -1.4185809440     2.0000000000
Ni     -7.3719000000    -1.4185809440     2.0000000000
Ni      3.6855814050     0.7092904720     2.0000000000
Ni     -3.6863185950     0.7092904720     2.0000000000
Ni      4.9141085400     2.8371618880     2.0000000000
Ni     -2.4577914600     2.8371618880     2.0000000000
Ni      2.4570542700    -1.4185809440     2.0000000000
Ni     -4.9148457300    -1.4185809440     2.0000000000
Ni      6.1433728650     0.7092904720     2.0000000000
Ni     -1.2285271350     0.7092904720     2.0000000000
Ni      7.3719000000     2.8371618880     2.0000000000
Ni      0.0000000000     2.8371618880     2.0000000000
Ni      4.9148457300    -1.4185809440     2.0000000000
Ni     -2.4570542700    -1.4185809440     2.0000000000
Ni      0.0345187234    -0.0219895959     3.9906686506
Ni     -7.3332872529    -0.0205271350     3.9970929970
Ni      1.2574298371     2.1090479016     3.9981086770
Ni     -6.1061214153     2.1042281316     4.0017605185
Ni     -1.1958375155    -2.1495425789     3.9888614873
Ni     -8.5615731291    -2.1597422030     3.9935633301
Ni      2.4909200515    -0.0209290578     3.9889124626
Ni     -4.8775455868    -0.0288695998     4.0155932973
Ni      3.7235299523     2.1102350339     3.9932622384
Ni     -3.6483031855     2.1055811522     4.0174271749
Ni      1.2597529797    -2.1544756242     3.9969618463
Ni     -6.1074652262    -2.1506208434     4.0019689283
Ni      4.9550771908    -0.0234645643     3.9935565644
Ni     -2.4269867653    -0.0199772708     3.9982338911
Ni      6.1741097051     2.1083418571     4.0046158614
Ni     -1.1996729370     2.1123145435     4.0000024585
Ni      3.7197951829    -2.1539414756     3.9921760547
Ni     -3.6589301935    -2.1514998115     3.9994955107
Ni      1.2136841869     0.7163863979     5.9963073096
Ni     -6.1473437226     0.7096773911     6.0218176054
Ni      2.4453295017     2.8415084524     5.9971730433
Ni     -4.9231971923     2.8360653972     6.0327934449
Ni     -0.0226348385    -1.4110330430     6.0020236029
Ni     -7.3908667378    -1.4145678834     5.9981301391
Ni      3.6669417345     0.7157583701     5.9869138182
Ni     -3.7108784987     0.7190435175     6.0328517480
Ni      4.9057976617     2.8388244163     6.0411982092
Ni     -2.4814248435     2.8298458387     6.0521186228
Ni      2.4355069788    -1.4085502466     5.9888639843
Ni     -4.9252928465    -1.4026264080     6.0548563839
Ni      6.1341025786     0.7315238745     6.0218817427
Ni     -1.2402669783     0.7221835538     5.9926808095
Ni      7.3408175190     2.8291688103     6.0248565089
Ni     -0.0225097209     2.8466795557     6.0142376281
Ni      4.9088271165    -1.4251457534     5.9900387779
Ni     -2.4790699264    -1.4211153466     5.9913638200
Ni      0.0337137405    -0.0099863123     8.0038502320
Ni     -7.3606520147    -0.0334139511     7.9835827732
Ni      1.2525382386     2.1076756093     8.0014158677
Ni      8.5596645315     2.1514300915     7.9633346422
Ni     -1.1983605499    -2.1613845897     8.0018652759
Ni     -8.5927669864    -2.1264268734     8.0165035337
Ni      2.4708324722    -0.0109047600     8.0065027389
Ni     -4.8995212632    -0.0584838282     8.1493062015
Ni      3.6789469906     2.1047412898     7.9888648741
Ni     -3.6333178494     2.1270714900     8.1546283531
Ni      1.2394335961    -2.1164979174     7.9892760222
Ni     -6.1305722611    -2.1461024656     7.9989212299
Ni      4.9150163145    -0.0283439881     7.9490640309
Ni     -2.3653823178    -0.0601929248     7.9425724452
Ni      6.1349712758     2.1197335004     8.1598232492
Ni     -1.1861990586     2.1067384809     8.0263285947
Ni      3.6953023012    -2.1157302873     7.9694462946
Ni     -3.6468332403    -2.1628724713     8.0264725749
O       5.9486020032     1.9536774433    10.1568983318
H       6.2023593986     1.0444615420    10.4395396161
H       7.6485803319     2.9982816350    10.7947394844
H       2.3841835216    -2.5662265370    10.9995346326
C       6.5922936452     2.8570131008    11.0871865803
O       6.8828593053     0.8516013498    12.3925733789
H      -6.8879959571     0.8254517200    12.3248078773
C       6.4620997723     2.2299052156    12.4710261049
H       5.3979785171     2.1706601767    12.7461907790
C       7.1981974178     3.0342299686    13.5247288963
H       3.2389656514    -2.2859498111    13.4051121917
H       8.2901195875     2.9478942375    13.3576433856
O       6.8260697992     2.5426661176    14.8120038538
H       7.2522042786     3.0948827032    15.4870039972
O      -4.3927237137     1.0982075682     9.5865509607
H      -3.6717371060     0.6667680985    10.0888232085
88
Step 2 | NEB Image 2 | Cartesian Angstrom
Ni      1.2285271350     0.7092904720     2.0000000000
Ni     -6.1433728650     0.7092904720     2.0000000000
Ni      2.4570542700     2.8371618880     2.0000000000
Ni     -4.9148457300     2.8371618880     2.0000000000
Ni      0.0000000000    -1.4185809440     2.0000000000
Ni     -7.3719000000    -1.4185809440     2.0000000000
Ni      3.6855814050     0.7092904720     2.0000000000
Ni     -3.6863185950     0.7092904720     2.0000000000
Ni      4.9141085400     2.8371618880     2.0000000000
Ni     -2.4577914600     2.8371618880     2.0000000000
Ni      2.4570542700    -1.4185809440     2.0000000000
Ni     -4.9148457300    -1.4185809440     2.0000000000
Ni      6.1433728650     0.7092904720     2.0000000000
Ni     -1.2285271350     0.7092904720     2.0000000000
Ni      7.3719000000     2.8371618880     2.0000000000
Ni      0.0000000000     2.8371618880     2.0000000000
Ni      4.9148457300    -1.4185809440     2.0000000000
Ni     -2.4570542700    -1.4185809440     2.0000000000
Ni      0.0414246130    -0.0218487442     3.9926282351
Ni     -7.3152243838    -0.0134028998     4.0058752712
Ni      1.2638306508     2.1109229283     3.9977284488
Ni     -6.1004031454     2.1096526480     4.0292197650
Ni     -1.1888744031    -2.1472314976     3.9897520462
Ni     -8.5510768998    -2.1568255175     4.0021617614
Ni      2.5004277702    -0.0233437690     3.9932542177
Ni     -4.8750421038    -0.0165165215     4.0290083526
Ni      3.7324854777     2.1087680126     3.9961145476
Ni     -3.6403635738     2.1124899743     4.0212063644
Ni      1.2694426589    -2.1535011037     3.9998568476
Ni     -6.0968086859    -2.1445888301     4.0077207864
Ni      4.9691912729    -0.0245244256     3.9979960321
Ni     -2.4225554537    -0.0147564619     4.0004778704
Ni      6.1867693338     2.1098860119     4.0062606804
Ni     -1.1936922466     2.1151415898     4.0009908330
Ni      3.7305162353    -2.1581342510     4.0002474939
Ni     -3.6538035923    -2.1416264900     4.0027981419
Ni      1.2255882521     0.7196430489     5.9960911455
Ni     -6.1132577149     0.7434203622     6.0907284750
Ni      2.4544600932     2.8458386586     5.9916741167
Ni     -4.9110979274     2.8336504081     6.0565719202
Ni     -0.0065534156    -1.4109944174     6.0045459663
Ni     -7.3685091959    -1.4020203040     6.0061403478
Ni      3.6807136095     0.7156836600     5.9892594630
Ni     -3.6895240941     0.7290781724     6.0463007387
Ni      4.9224845683     2.8373298277     6.0428931183
Ni     -2.4655402696     2.8475665257     6.0571539770
Ni      2.4494630282    -1.4119155866     6.0016364220
Ni     -4.9077843291    -1.3756928937     6.0671540685
Ni      6.1557544399     0.7245170824     6.0178949324
Ni     -1.2263614401     0.7269537025     5.9951314561
Ni      7.3576805000     2.8287443717     6.0651127685
Ni     -0.0105170992     2.8596449253     6.0081534484
Ni      4.9182675491    -1.4238051708     5.9963735092
Ni     -2.4611302224    -1.4121498171     5.9952941209
Ni      0.0496814511    -0.0106971622     8.0035771438
Ni     -7.3061069627    -0.0303993411     7.9899540492
Ni      1.2626869947     2.1183728145     7.9976472597
Ni      8.5796123562     2.2204491101     8.1305902619
Ni     -1.1841072757    -2.1531347330     8.0035147855
Ni     -8.5494558112    -2.0935543802     7.9953691414
Ni      2.4706040086     0.0016663666     8.0077683518
Ni     -4.8130400417    -0.0165289599     8.2389608987
Ni      3.6771222351     2.1191235377     7.9846011750
Ni     -3.5716002415     2.1479941239     8.1439432517
Ni      1.2489881461    -2.1263863959     8.0108364254
Ni     -6.0793996986    -2.1166681919     8.0146195573
Ni      4.9134279398    -0.0191663890     7.9604784387
Ni     -2.3442469271    -0.0492822977     7.9595883831
Ni      6.1215740432     2.0915893633     8.1367993467
Ni     -1.1533561209     2.1184347502     8.0167730329
Ni      3.6795339921    -2.0795026125     7.9933933045
Ni     -3.6259570492    -2.1475783975     8.0299805644
O       6.1761453667     1.5543077151    10.0632869049
H       9.0687009101     2.3596073402     9.7591093359
H       8.2528037148     2.5756128723     9.7138719289
H       1.8000613683    -3.1382665037    10.9321449610
C       6.0996260431     2.3404919650    11.0282869777
O       7.3724345935     0.7231968919    12.2516953797
H      -7.5074886317     0.3781687887    11.3387956336
C       6.7525328061     1.9900250517    12.3255897769
H       5.9071164057     2.0059853760    13.0508193520
C       7.6469857549     3.1026746677    12.9679514873
H       3.5077661234    -2.2796632463    12.8323321737
H       8.6446398487     3.1108174751    12.5018509273
O       7.7168834315     2.7866199671    14.3635226142
H       8.3128960570     3.4141824560    14.8078648248
O      -4.1105561199     1.1448297374     9.6881835362
H      -3.3514049483     0.8786271036    10.2450569630
88
Step 3 | NEB Image 3 | Cartesian Angstrom
Ni      1.2285271350     0.7092904720     2.0000000000
Ni     -6.1433728650     0.7092904720     2.0000000000
Ni      2.4570542700     2.8371618880     2.0000000000
Ni     -4.9148457300     2.8371618880     2.0000000000
Ni      0.0000000000    -1.4185809440     2.0000000000
Ni     -7.3719000000    -1.4185809440     2.0000000000
Ni      3.6855814050     0.7092904720     2.0000000000
Ni     -3.6863185950     0.7092904720     2.0000000000
Ni      4.9141085400     2.8371618880     2.0000000000
Ni     -2.4577914600     2.8371618880     2.0000000000
Ni      2.4570542700    -1.4185809440     2.0000000000
Ni     -4.9148457300    -1.4185809440     2.0000000000
Ni      6.1433728650     0.7092904720     2.0000000000
Ni     -1.2285271350     0.7092904720     2.0000000000
Ni      7.3719000000     2.8371618880     2.0000000000
Ni      0.0000000000     2.8371618880     2.0000000000
Ni      4.9148457300    -1.4185809440     2.0000000000
Ni     -2.4570542700    -1.4185809440     2.0000000000
Ni      0.0344019461    -0.0149773015     3.9966169879
Ni     -7.3355503162    -0.0215119905     3.9988253959
Ni      1.2552715323     2.1086689385     3.9974585699
Ni     -6.0989315152     2.1119534651     3.9960451330
Ni     -1.1935227408    -2.1449219936     3.9952181561
Ni     -8.5665235393    -2.1401678652     4.0101026579
Ni      2.4943110131    -0.0097600888     4.0023404140
Ni     -4.8758773574    -0.0216328998     3.9981710324
Ni      3.7185056531     2.1048749790     3.9980817414
Ni     -3.6501634579     2.1144802354     4.0112945235
Ni      1.2663121042    -2.1432504027     3.9918140975
Ni     -6.1121692020    -2.1522392313     4.0066060357
Ni      4.9494706467    -0.0162225817     4.0110198615
Ni     -2.4246671426    -0.0176546697     3.9968549420
Ni      6.1830826102     2.1094143861     3.9968705769
Ni     -1.2030048530     2.1146199000     4.0043479427
Ni      3.7254763944    -2.1352942295     3.9855317641
Ni     -3.6518229103    -2.1514246839     3.9954250390
Ni      1.2155347174     0.7224298268     6.0148662412
Ni     -6.1682502420     0.7153824303     6.0054553682
Ni      2.4321684525     2.8501216524     5.9910879990
Ni     -4.9039225377     2.8523131020     6.0258922205
Ni     -0.0237691813    -1.3998315789     6.0021148946
Ni     -7.3720609865    -1.3872997243     6.0384217112
Ni      3.6866008302     0.7156123941     6.0478465267
Ni     -3.7023977535     0.7386739118     6.0233366627
Ni      4.8918731891     2.8598134467     5.9917190107
Ni     -2.4897329460     2.8370506207     6.0695423781
Ni      2.4390219259    -1.3972882298     5.9998820167
Ni     -4.9251943959    -1.4184606247     6.0054778076
Ni      6.1283725322     0.7172094777     6.0077241107
Ni     -1.2451947558     0.7255018627     6.0032211493
Ni      7.3665906512     2.8654391008     5.9777460473
Ni     -0.0254901144     2.8474236147     6.0151522536
Ni      4.9145364124    -1.3861453149     6.0375021352
Ni     -2.4858470161    -1.4065124136     6.0016004510
Ni      0.0041918465     0.0051324525     8.0108363912
Ni     -7.3400284022    -0.0022747183     8.1200044438
Ni      1.2399699473     2.1253876344     8.0128032118
Ni      8.6217553840     2.1514026506     7.9263739570
Ni     -1.2212471594    -2.1259797217     7.9977046719
Ni     -8.5774345518    -2.1400908900     8.0026375440
Ni      2.4529602619     0.0036955317     8.0280388733
Ni     -4.8936898809    -0.0287483029     7.9684019255
Ni      3.6506290475     2.1693294855     7.9733140908
Ni     -3.6693985543     2.1038334112     8.1815496794
Ni      1.2234148025    -2.1020591869     8.0003671183
Ni     -6.1211738193    -2.1242144309     8.0293156253
Ni      4.8906291550    -0.0178452673     8.1638638566
Ni     -2.4259685224    -0.0218104727     7.9806083697
Ni      6.1597962602     2.1935997271     7.9565666426
Ni     -1.1976866682     2.1172210476     8.0265768385
Ni      3.6922616486    -2.1002857868     7.9899984698
Ni     -3.6721729201    -2.1396436018     8.0205288068
O       6.1111255346     0.9318347508     9.3894008877
H      10.4010966396     2.7003805683    10.6103324425
H       6.8267637314     2.4679636080    10.5929910295
H       1.4769962595    -4.4191719464    10.9398673061
C       6.1634893458     1.5815768917    10.6829935525
O       7.1573160517    -0.3992652951    11.4871548963
H      -7.6100899393    -0.6057014638    10.4891616291
C       6.6849436618     0.7617719063    11.8087306572
H       6.5989442928     3.4060085277    12.9972581854
C       7.5670610758     3.7060375630    13.4188404559
H       3.9157915760    -1.5786662002    13.4959699627
H       8.3599055905     3.3771868192    12.7178120243
O       7.6749325548     3.0689745160    14.6922608747
H       8.3154433271     3.5610382536    15.2301637873
O      -4.0292329317     1.8449282947    10.2581954136
H      -3.1931476906     1.6342772095    10.7153690197
88
Step 4 | NEB Image 4 | Cartesian Angstrom
Ni      1.2285271350     0.7092904720     2.0000000000
Ni     -6.1433728650     0.7092904720     2.0000000000
Ni      2.4570542700     2.8371618880     2.0000000000
Ni     -4.9148457300     2.8371618880     2.0000000000
Ni      0.0000000000    -1.4185809440     2.0000000000
Ni     -7.3719000000    -1.4185809440     2.0000000000
Ni      3.6855814050     0.7092904720     2.0000000000
Ni     -3.6863185950     0.7092904720     2.0000000000
Ni      4.9141085400     2.8371618880     2.0000000000
Ni     -2.4577914600     2.8371618880     2.0000000000
Ni      2.4570542700    -1.4185809440     2.0000000000
Ni     -4.9148457300    -1.4185809440     2.0000000000
Ni      6.1433728650     0.7092904720     2.0000000000
Ni     -1.2285271350     0.7092904720     2.0000000000
Ni      7.3719000000     2.8371618880     2.0000000000
Ni      0.0000000000     2.8371618880     2.0000000000
Ni      4.9148457300    -1.4185809440     2.0000000000
Ni     -2.4570542700    -1.4185809440     2.0000000000
Ni      0.0370469589    -0.0143232561     3.9989703962
Ni     -7.3375077213    -0.0120369100     4.0012493250
Ni      1.2628466173     2.1112407715     3.9984630473
Ni     -6.1056379259     2.1174412829     4.0000965869
Ni     -1.1916698374    -2.1406117452     3.9987213555
Ni     -8.5680773103    -2.1408196125     4.0030007929
Ni      2.4973441607    -0.0100671805     4.0041214049
Ni     -4.8763670948    -0.0123907349     3.9967783245
Ni      3.7240249666     2.1105551712     4.0069633710
Ni     -3.6515451167     2.1160665259     4.0084980112
Ni      1.2649665497    -2.1451273874     4.0005570732
Ni     -6.1076720110    -2.1457289442     3.9975261635
Ni      4.9524561346    -0.0115062524     4.0129330118
Ni     -2.4254492305    -0.0122797939     3.9998144258
Ni      6.1800189085     2.1139177178     4.0080863443
Ni     -1.1972192451     2.1160882963     3.9990249056
Ni      3.7201665870    -2.1386754233     3.9917982312
Ni     -3.6470687111    -2.1446034994     3.9921918338
Ni      1.2139938931     0.7296460951     6.0133299820
Ni     -6.1656993293     0.7181001260     6.0137755423
Ni      2.4398809297     2.8558992891     5.9990741315
Ni     -4.9070809235     2.8503566585     6.0252743506
Ni     -0.0183406760    -1.3980713705     6.0102229568
Ni     -7.3784794929    -1.3820470476     6.0115050909
Ni      3.6840621888     0.7227787689     6.0490450072
Ni     -3.6995657336     0.7480990917     6.0385462174
Ni      4.9038334347     2.8574759510     6.0289463282
Ni     -2.4849967249     2.8490075740     6.0403626370
Ni      2.4352899921    -1.3936096303     6.0055005426
Ni     -4.9195247717    -1.4050542594     5.9958945693
Ni      6.1292571306     0.7297865104     6.0319261266
Ni     -1.2447972382     0.7297788106     6.0010274690
Ni      7.3596829744     2.8567795886     6.0089352427
Ni     -0.0197472135     2.8599727006     6.0043603064
Ni      4.9042962476    -1.3862790656     6.0229068732
Ni     -2.4797554354    -1.3978546945     6.0047441965
Ni      0.0042339618     0.0135172247     8.0131143425
Ni     -7.3224186216    -0.0225378569     8.1388074969
Ni      1.2391391637     2.1343909949     8.0093246185
Ni      8.6324381584     2.1523359855     7.9536297122
Ni     -1.2174779005    -2.1197578430     8.0052611873
Ni     -8.5926727204    -2.1389138891     7.9649110238
Ni      2.4507225004     0.0122974585     8.0272280058
Ni     -4.8814280638    -0.0124257851     7.9855656336
Ni      3.6553055554     2.1662782720     7.9964884839
Ni     -3.6608570985     2.1213532874     8.1786401750
Ni      1.2255919331    -2.0988833601     8.0201810119
Ni     -6.1162180445    -2.1117358853     7.9970570206
Ni      4.8942575584    -0.0160975305     8.1296584646
Ni     -2.4223307384    -0.0140982164     7.9947849147
Ni      6.1653060452     2.1988124475     8.0639722393
Ni     -1.1911091196     2.1291889115     7.9964938740
Ni      3.6870412882    -2.1009324066     7.9962120029
Ni     -3.6694089706    -2.1280733497     8.0155969844
O       6.1649974537     0.8092130081     9.4045339001
H      11.0258967796     3.0775674090    10.5669900928
H       6.9162247795     1.8510347027    11.0466951135
H       1.6769861401    -5.3756106776    11.3009771047
C       6.3457975324     0.9311189400    10.8160150080
O       7.7899162363    -1.0133736185    10.8931436499
H      -6.8840622034    -0.9538630143     9.5435959522
C       7.1301077042    -0.1620596332    11.4876882680
H       8.1508230414     4.2908832078    11.7876042960
C       8.3911295314     4.3133920658    12.8591083039
H       3.8879856151    -1.5513027729    13.3861355158
H       9.3237861203     4.8876870958    12.9944433379
O       8.5285452943     2.9506101079    13.2758797359
H       8.7818085923     2.9422585760    14.2139251322
O      -3.6955004328     2.1432754180    10.2765809498
H      -2.8041106929     1.8163380226    10.5095603655
88
Step 5 | NEB Image 5 | Cartesian Angstrom
Ni      1.2285271350     0.7092904720     2.0000000000
Ni     -6.1433728650     0.7092904720     2.0000000000
Ni      2.4570542700     2.8371618880     2.0000000000
Ni     -4.9148457300     2.8371618880     2.0000000000
Ni      0.0000000000    -1.4185809440     2.0000000000
Ni     -7.3719000000    -1.4185809440     2.0000000000
Ni      3.6855814050     0.7092904720     2.0000000000
Ni     -3.6863185950     0.7092904720     2.0000000000
Ni      4.9141085400     2.8371618880     2.0000000000
Ni     -2.4577914600     2.8371618880     2.0000000000
Ni      2.4570542700    -1.4185809440     2.0000000000
Ni     -4.9148457300    -1.4185809440     2.0000000000
Ni      6.1433728650     0.7092904720     2.0000000000
Ni     -1.2285271350     0.7092904720     2.0000000000
Ni      7.3719000000     2.8371618880     2.0000000000
Ni      0.0000000000     2.8371618880     2.0000000000
Ni      4.9148457300    -1.4185809440     2.0000000000
Ni     -2.4570542700    -1.4185809440     2.0000000000
Ni      0.0464326620    -0.0306468460     3.9976675890
Ni     -7.3257303870    -0.0255862300     3.9933782980
Ni      1.2739848450     2.0960038070     3.9979157030
Ni     -6.1026021170     2.1049500680     4.0019149180
Ni     -1.1827110610    -2.1546561820     3.9989053170
Ni     -8.5597082650    -2.1592869340     3.9982394010
Ni      2.5024778430    -0.0256743600     4.0031952220
Ni     -4.8641413240    -0.0227350050     3.9956475690
Ni      3.7346756480     2.0985190290     4.0083618800
Ni     -3.6458198020     2.0991473590     4.0056686860
Ni      1.2703768650    -2.1597674920     4.0015811390
Ni     -6.0933336510    -2.1603781540     3.9902680500
Ni      4.9590538200    -0.0289845540     4.0074783820
Ni     -2.4167678920    -0.0248088220     4.0022401470
Ni      6.1885777810     2.1026461420     4.0098077600
Ni     -1.1844811720     2.0985803670     3.9964394390
Ni      3.7245308300    -2.1560713310     3.9888953010
Ni     -3.6351397940    -2.1574140910     3.9933365850
Ni      1.2278611130     0.7073057200     6.0134419810
Ni     -6.1428898530     0.6957346210     6.0102358510
Ni      2.4563605190     2.8356121920     5.9987058000
Ni     -4.8924583120     2.8187736320     6.0264580820
Ni      0.0002252210    -1.4241376010     6.0155868270
Ni     -7.3667991100    -1.4101212980     5.9895528060
Ni      3.6921281460     0.7008202940     6.0360645010
Ni     -3.6779272240     0.7256007260     6.0512861550
Ni      4.9267336850     2.8309168990     6.0432780270
Ni     -2.4664659500     2.8157315660     6.0151173370
Ni      2.4509011280    -1.4197685090     6.0062316800
Ni     -4.8985683740    -1.4191884620     5.9881596610
Ni      6.1372839650     0.7115480370     6.0073921100
Ni     -1.2256557510     0.7019370040     6.0032560690
Ni      7.3730564330     2.8242126570     6.0269074010
Ni     -0.0034566730     2.8405670140     6.0010880700
Ni      4.9162369820    -1.4189308570     6.0083232610
Ni     -2.4596272260    -1.4182314770     6.0084483810
Ni      0.0277268390    -0.0168450280     8.0180888710
Ni     -7.3091221710    -0.0327920680     8.0371701400
Ni      1.2611452740     2.1078740620     8.0062525300
Ni      8.6667549770     2.1138793650     7.9801313330
Ni     -1.1942402360    -2.1496555940     8.0109921590
Ni     -8.5668484660    -2.1735761150     7.9430911750
Ni      2.4712577410    -0.0190631580     8.0243063390
Ni     -4.8670711400    -0.0431110720     7.9967287920
Ni      3.6750137580     2.1321536040     7.9940007810
Ni     -3.6274773380     2.0999917070     8.2089215290
Ni      1.2517815200    -2.1329879940     8.0267060850
Ni     -6.0785108950    -2.1534189890     7.9361595560
Ni      4.9123316280    -0.0512787390     8.0829089500
Ni     -2.4007725170    -0.0429334740     8.0081832520
Ni      6.1908597070     2.1505617180     8.1094472440
Ni     -1.1654360560     2.0989982700     7.9806126390
Ni      3.7077660390    -2.1419918620     7.9975968800
Ni     -3.6463297530    -2.1524111230     8.0158878220
O       6.1707187590     0.6663307040     9.3727337630
H      11.2555922500     3.1706166680    10.5266232770
H       7.1149227860     1.0824741990    11.1550798120
H       1.6297081310    -5.3793991980    11.2177269450
C       6.2238707100     0.5353136510    10.8108846880
O       7.5718415080    -1.5277099790    10.9241884940
H      -6.8828388710    -1.2337967880    10.0124245870
C       6.2850334910    -0.9302036460    11.2182633770
H       9.1791669060     4.9099545600    10.6626973770
C       9.7467965870     5.2786349730    12.7161077750
H       5.0959169980    -0.6608682970    12.9933131080
H      10.5457770910     5.8077082870    13.2666670860
O       9.6783811350     3.9068622240    13.1006105230
H      10.5447055700     3.5019751520    12.9206205020
O      -3.5153567700     2.2005093110    10.2599052050
H      -2.6227032800     1.8412518110    10.4321503050
