88
Step 1 | NEB Image 1 | Cartesian Angstrom
Ni      1.2285271350     0.7092904720     2.0000000000
Ni     -6.1433728650     0.7092904720     2.0000000000
Ni      2.4570542700     2.8371618880     2.0000000000
Ni     -4.9148457300     2.8371618880     2.0000000000
Ni      0.0000000000    -1.4185809440     2.0000000000
Ni     -7.3719000000    -1.4185809440     2.0000000000
Ni      3.6855814050     0.7092904720     2.0000000000
Ni     -3.6863185950     0.7092904720     2.0000000000
Ni      4.9141085400     2.8371618880     2.0000000000
Ni     -2.4577914600     2.8371618880     2.0000000000
Ni      2.4570542700    -1.4185809440     2.0000000000
Ni     -4.9148457300    -1.4185809440     2.0000000000
Ni      6.1433728650     0.7092904720     2.0000000000
Ni     -1.2285271350     0.7092904720     2.0000000000
Ni      7.3719000000     2.8371618880     2.0000000000
Ni      0.0000000000     2.8371618880     2.0000000000
Ni      4.9148457300    -1.4185809440     2.0000000000
Ni     -2.4570542700    -1.4185809440     2.0000000000
Ni      0.0345187234    -0.0219895959     3.9906686506
Ni     -7.3332872529    -0.0205271350     3.9970929970
Ni      1.2574298371     2.1090479016     3.9981086770
Ni     -6.1061214153     2.1042281316     4.0017605185
Ni     -1.1958375155    -2.1495425789     3.9888614873
Ni     -8.5615731291    -2.1597422030     3.9935633301
Ni      2.4909200515    -0.0209290578     3.9889124626
Ni     -4.8775455868    -0.0288695998     4.0155932973
Ni      3.7235299523     2.1102350339     3.9932622384
Ni     -3.6483031855     2.1055811522     4.0174271749
Ni      1.2597529797    -2.1544756242     3.9969618463
Ni     -6.1074652262    -2.1506208434     4.0019689283
Ni      4.9550771908    -0.0234645643     3.9935565644
Ni     -2.4269867653    -0.0199772708     3.9982338911
Ni      6.1741097051     2.1083418571     4.0046158614
Ni     -1.1996729370     2.1123145435     4.0000024585
Ni      3.7197951829    -2.1539414756     3.9921760547
Ni     -3.6589301935    -2.1514998115     3.9994955107
Ni      1.2136841869     0.7163863979     5.9963073096
Ni     -6.1473437226     0.7096773911     6.0218176054
Ni      2.4453295017     2.8415084524     5.9971730433
Ni     -4.9231971923     2.8360653972     6.0327934449
Ni     -0.0226348385    -1.4110330430     6.0020236029
Ni     -7.3908667378    -1.4145678834     5.9981301391
Ni      3.6669417345     0.7157583701     5.9869138182
Ni     -3.7108784987     0.7190435175     6.0328517480
Ni      4.9057976617     2.8388244163     6.0411982092
Ni     -2.4814248435     2.8298458387     6.0521186228
Ni      2.4355069788    -1.4085502466     5.9888639843
Ni     -4.9252928465    -1.4026264080     6.0548563839
Ni      6.1341025786     0.7315238745     6.0218817427
Ni     -1.2402669783     0.7221835538     5.9926808095
Ni      7.3408175190     2.8291688103     6.0248565089
Ni     -0.0225097209     2.8466795557     6.0142376281
Ni      4.9088271165    -1.4251457534     5.9900387779
Ni     -2.4790699264    -1.4211153466     5.9913638200
Ni      0.0337137405    -0.0099863123     8.0038502320
Ni     -7.3606520147    -0.0334139511     7.9835827732
Ni      1.2525382386     2.1076756093     8.0014158677
Ni      8.5596645315     2.1514300915     7.9633346422
Ni     -1.1983605499    -2.1613845897     8.0018652759
Ni     -8.5927669864    -2.1264268734     8.0165035337
Ni      2.4708324722    -0.0109047600     8.0065027389
Ni     -4.8995212632    -0.0584838282     8.1493062015
Ni      3.6789469906     2.1047412898     7.9888648741
Ni     -3.6333178494     2.1270714900     8.1546283531
Ni      1.2394335961    -2.1164979174     7.9892760222
Ni     -6.1305722611    -2.1461024656     7.9989212299
Ni      4.9150163145    -0.0283439881     7.9490640309
Ni     -2.3653823178    -0.0601929248     7.9425724452
Ni      6.1349712758     2.1197335004     8.1598232492
Ni     -1.1861990586     2.1067384809     8.0263285947
Ni      3.6953023012    -2.1157302873     7.9694462946
Ni     -3.6468332403    -2.1628724713     8.0264725749
O       5.9486020032     1.9536774433    10.1568983318
H       6.2023593986     1.0444615420    10.4395396161
H       7.6485803319     2.9982816350    10.7947394844
H       2.3841835216    -2.5662265370    10.9995346326
C       6.5922936452     2.8570131008    11.0871865803
O       6.8828593053     0.8516013498    12.3925733789
H      -6.8879959571     0.8254517200    12.3248078773
C       6.4620997723     2.2299052156    12.4710261049
H       5.3979785171     2.1706601767    12.7461907790
C       7.1981974178     3.0342299686    13.5247288963
H       3.2389656514    -2.2859498111    13.4051121917
H       8.2901195875     2.9478942375    13.3576433856
O       6.8260697992     2.5426661176    14.8120038538
H       7.2522042786     3.0948827032    15.4870039972
O      -4.3927237137     1.0982075682     9.5865509607
H      -3.6717371060     0.6667680985    10.0888232085
88
Step 2 | NEB Image 2 | Cartesian Angstrom
Ni      1.2285271350     0.7092904720     2.0000000000
Ni     -6.1433728650     0.7092904720     2.0000000000
Ni      2.4570542700     2.8371618880     2.0000000000
Ni     -4.9148457300     2.8371618880     2.0000000000
Ni      0.0000000000    -1.4185809440     2.0000000000
Ni     -7.3719000000    -1.4185809440     2.0000000000
Ni      3.6855814050     0.7092904720     2.0000000000
Ni     -3.6863185950     0.7092904720     2.0000000000
Ni      4.9141085400     2.8371618880     2.0000000000
Ni     -2.4577914600     2.8371618880     2.0000000000
Ni      2.4570542700    -1.4185809440     2.0000000000
Ni     -4.9148457300    -1.4185809440     2.0000000000
Ni      6.1433728650     0.7092904720     2.0000000000
Ni     -1.2285271350     0.7092904720     2.0000000000
Ni      7.3719000000     2.8371618880     2.0000000000
Ni      0.0000000000     2.8371618880     2.0000000000
Ni      4.9148457300    -1.4185809440     2.0000000000
Ni     -2.4570542700    -1.4185809440     2.0000000000
Ni      0.0409951968    -0.0212953502     3.9927366075
Ni     -7.3154854188    -0.0129869432     4.0055610069
Ni      1.2634336802     2.1115457246     3.9977418910
Ni     -6.1005794663     2.1102346840     4.0283500019
Ni     -1.1892024460    -2.1465731496     3.9898523778
Ni     -8.5513228854    -2.1559926990     4.0018983261
Ni      2.4997719383    -0.0227124145     3.9931078041
Ni     -4.8748763674    -0.0159123185     4.0291454671
Ni      3.7318784173     2.1092750518     3.9959894127
Ni     -3.6402480872     2.1130470846     4.0212144355
Ni      1.2690254813    -2.1529936691     3.9999256903
Ni     -6.0968396097    -2.1438855842     4.0079418610
Ni      4.9686564086    -0.0241107213     3.9979559615
Ni     -2.4227470231    -0.0140551530     4.0008903006
Ni      6.1860226825     2.1102243320     4.0055521936
Ni     -1.1937828511     2.1157711009     4.0011443588
Ni      3.7301043264    -2.1572208494     3.9999768986
Ni     -3.6538779721    -2.1409080946     4.0030484781
Ni      1.2249695631     0.7207721753     5.9961575620
Ni     -6.1137981416     0.7440318339     6.0896422610
Ni      2.4538143064     2.8468896710     5.9916285930
Ni     -4.9113629756     2.8347547455     6.0553105066
Ni     -0.0070583719    -1.4100255290     6.0048353211
Ni     -7.3689376466    -1.4013687517     6.0062177780
Ni      3.6800404480     0.7163360304     5.9889746705
Ni     -3.6900096547     0.7303189924     6.0473242366
Ni      4.9215390415     2.8381178238     6.0425981172
Ni     -2.4655031362     2.8487849996     6.0572880567
Ni      2.4484969200    -1.4107878660     6.0015661562
Ni     -4.9078031386    -1.3744345943     6.0677671153
Ni      6.1551864894     0.7251524721     6.0172973263
Ni     -1.2267594189     0.7280654220     5.9956526204
Ni      7.3565355706     2.8296341212     6.0629740695
Ni     -0.0108396286     2.8610133730     6.0084171046
Ni      4.9177830801    -1.4234051431     5.9967190021
Ni     -2.4613261189    -1.4108519394     5.9959259064
Ni      0.0494073824    -0.0097309523     8.0039220169
Ni     -7.3062896901    -0.0299815171     7.9892975639
Ni      1.2621354995     2.1194677645     7.9977088885
Ni      8.5803284531     2.2196002469     8.1287510306
Ni     -1.1843415887    -2.1521065860     8.0040469014
Ni     -8.5500453749    -2.0932630808     7.9959108570
Ni      2.4698491499     0.0023048924     8.0077871724
Ni     -4.8119336094    -0.0151829417     8.2416025382
Ni      3.6761106604     2.1197260730     7.9843270466
Ni     -3.5718651002     2.1503633360     8.1436263512
Ni      1.2485417523    -2.1261132419     8.0112820191
Ni     -6.0791238200    -2.1149801266     8.0151692360
Ni      4.9126539310    -0.0191569442     7.9597765498
Ni     -2.3442815826    -0.0478470971     7.9606646220
Ni      6.1204345807     2.0915395292     8.1357185923
Ni     -1.1535530426     2.1199580990     8.0169546420
Ni      3.6785400970    -2.0802324555     7.9924397677
Ni     -3.6259154907    -2.1462290395     8.0308622515
O       6.1717057682     1.5451348662    10.0631649357
H       9.0686572370     2.3689718943     9.7550627011
H       8.2450009597     2.5562725833     9.7112758191
H       1.7907520834    -3.1502904067    10.9331652858
C       6.0946956371     2.3313001164    11.0282033409
O       7.3763418752     0.7188885582    12.2490235485
H      -7.5100550495     0.3707779543    11.3383713021
C       6.7520287784     1.9834481624    12.3241350689
H       5.9076475510     1.9966705478    13.0507732363
C       7.6449868698     3.0978464873    12.9647915506
H       3.5053080902    -2.2850683667    12.8269979733
H       8.6428861513     3.1053548805    12.4991356504
O       7.7147678555     2.7839801414    14.3609737591
H       8.3068341975     3.4151353379    14.8053614674
O      -4.1086035114     1.1497802549     9.6893953024
H      -3.3469791693     0.8891178053    10.2454615111
88
Step 3 | NEB Image 3 | Cartesian Angstrom
Ni      1.2285271350     0.7092904720     2.0000000000
Ni     -6.1433728650     0.7092904720     2.0000000000
Ni      2.4570542700     2.8371618880     2.0000000000
Ni     -4.9148457300     2.8371618880     2.0000000000
Ni      0.0000000000    -1.4185809440     2.0000000000
Ni     -7.3719000000    -1.4185809440     2.0000000000
Ni      3.6855814050     0.7092904720     2.0000000000
Ni     -3.6863185950     0.7092904720     2.0000000000
Ni      4.9141085400     2.8371618880     2.0000000000
Ni     -2.4577914600     2.8371618880     2.0000000000
Ni      2.4570542700    -1.4185809440     2.0000000000
Ni     -4.9148457300    -1.4185809440     2.0000000000
Ni      6.1433728650     0.7092904720     2.0000000000
Ni     -1.2285271350     0.7092904720     2.0000000000
Ni      7.3719000000     2.8371618880     2.0000000000
Ni      0.0000000000     2.8371618880     2.0000000000
Ni      4.9148457300    -1.4185809440     2.0000000000
Ni     -2.4570542700    -1.4185809440     2.0000000000
Ni      0.0343719215    -0.0146535727     3.9965865498
Ni     -7.3355117860    -0.0212005090     3.9985490315
Ni      1.2553214671     2.1089539942     3.9974005979
Ni     -6.0988528991     2.1123014048     3.9959832830
Ni     -1.1934309781    -2.1446192957     3.9951320240
Ni     -8.5664873282    -2.1400363801     4.0099965979
Ni      2.4942693919    -0.0094402288     4.0022887693
Ni     -4.8758201947    -0.0213306220     3.9980661772
Ni      3.7186406126     2.1051440946     3.9980235459
Ni     -3.6501204496     2.1147079834     4.0113279225
Ni      1.2663363300    -2.1429450564     3.9917599942
Ni     -6.1120170995    -2.1520052854     4.0064054230
Ni      4.9494483886    -0.0160549918     4.0108913215
Ni     -2.4246488829    -0.0173616463     3.9968116903
Ni      6.1831992866     2.1098017150     3.9967487878
Ni     -1.2029307791     2.1148604359     4.0042744862
Ni      3.7255062119    -2.1350440068     3.9854520715
Ni     -3.6516950780    -2.1511459522     3.9953541256
Ni      1.2154396997     0.7228615422     6.0148926266
Ni     -6.1683653811     0.7158864805     6.0052260164
Ni      2.4322158061     2.8505659194     5.9909034543
Ni     -4.9038423207     2.8524492367     6.0261062530
Ni     -0.0236423534    -1.3993556298     6.0020666804
Ni     -7.3721566013    -1.3870124787     6.0377703653
Ni      3.6863596889     0.7159392096     6.0476905923
Ni     -3.7023771809     0.7389863470     6.0234335674
Ni      4.8919722959     2.8602106841     5.9917166319
Ni     -2.4896233512     2.8374474246     6.0692758042
Ni      2.4391082763    -1.3969248485     5.9997479860
Ni     -4.9251614252    -1.4179368090     6.0053035117
Ni      6.1280095298     0.7177861278     6.0071304749
Ni     -1.2452404820     0.7259258195     6.0032682276
Ni      7.3666631931     2.8656544910     5.9779247857
Ni     -0.0254419574     2.8479048492     6.0150507832
Ni      4.9145602185    -1.3860301087     6.0374140520
Ni     -2.4857250442    -1.4060614870     6.0014892090
Ni      0.0037270022     0.0057514666     8.0109299045
Ni     -7.3415457610    -0.0018036278     8.1180205532
Ni      1.2398315549     2.1260529446     8.0126764323
Ni      8.6216761679     2.1516057983     7.9268970657
Ni     -1.2214058230    -2.1254117456     7.9974752688
Ni     -8.5774185033    -2.1398854785     8.0026065273
Ni      2.4521267242     0.0039976497     8.0280837462
Ni     -4.8944587972    -0.0279654185     7.9684107670
Ni      3.6503056016     2.1697279372     7.9729411596
Ni     -3.6694366449     2.1042315953     8.1815161909
Ni      1.2231865726    -2.1017113138     8.0002780445
Ni     -6.1214540145    -2.1234861239     8.0287656316
Ni      4.8894997392    -0.0182161481     8.1631673113
Ni     -2.4263097744    -0.0212778776     7.9806737508
Ni      6.1597286865     2.1940147551     7.9570012823
Ni     -1.1978004253     2.1179875523     8.0263829275
Ni      3.6917689712    -2.1003544067     7.9898714930
Ni     -3.6724287757    -2.1388265149     8.0202675302
O       6.1072272959     0.9322480988     9.3884499938
H      10.4074510047     2.7063078955    10.6077147050
H       6.8201709696     2.4639699747    10.5983478712
H       1.4722006726    -4.4296195257    10.9457269519
C       6.1594306244     1.5754895839    10.6849713713
O       7.1560342326    -0.4088415240    11.4773517463
H      -7.6142559987    -0.6115448432    10.4782113296
C       6.6846107080     0.7505806725    11.8054960738
H       6.5948120100     3.4043550013    13.0040844608
C       7.5638081520     3.7058520712    13.4227200644
H       3.9141680705    -1.5783226899    13.4935247530
H       8.3555296001     3.3718601218    12.7227757463
O       7.6710565729     3.0763756416    14.7001150516
H       8.3214958689     3.5632698720    15.2305390843
O      -4.0254034871     1.8487257734    10.2584010092
H      -3.1873260654     1.6396433726    10.7127272917
88
Step 4 | NEB Image 4 | Cartesian Angstrom
Ni      1.2285271350     0.7092904720     2.0000000000
Ni     -6.1433728650     0.7092904720     2.0000000000
Ni      2.4570542700     2.8371618880     2.0000000000
Ni     -4.9148457300     2.8371618880     2.0000000000
Ni      0.0000000000    -1.4185809440     2.0000000000
Ni     -7.3719000000    -1.4185809440     2.0000000000
Ni      3.6855814050     0.7092904720     2.0000000000
Ni     -3.6863185950     0.7092904720     2.0000000000
Ni      4.9141085400     2.8371618880     2.0000000000
Ni     -2.4577914600     2.8371618880     2.0000000000
Ni      2.4570542700    -1.4185809440     2.0000000000
Ni     -4.9148457300    -1.4185809440     2.0000000000
Ni      6.1433728650     0.7092904720     2.0000000000
Ni     -1.2285271350     0.7092904720     2.0000000000
Ni      7.3719000000     2.8371618880     2.0000000000
Ni      0.0000000000     2.8371618880     2.0000000000
Ni      4.9148457300    -1.4185809440     2.0000000000
Ni     -2.4570542700    -1.4185809440     2.0000000000
Ni      0.0371537581    -0.0143645571     3.9990677514
Ni     -7.3374780771    -0.0120314930     4.0015178141
Ni      1.2630490317     2.1111556943     3.9985012258
Ni     -6.1055207012     2.1173361229     4.0001825644
Ni     -1.1915549086    -2.1406521545     3.9987964242
Ni     -8.5679128088    -2.1408431532     4.0030721458
Ni      2.4975303854    -0.0101447949     4.0041883882
Ni     -4.8763204779    -0.0123981085     3.9969077906
Ni      3.7241803233     2.1105075760     4.0070639202
Ni     -3.6513569877     2.1160755250     4.0085879365
Ni      1.2651028642    -2.1452639817     4.0006705719
Ni     -6.1075829087    -2.1457264982     3.9976969230
Ni      4.9526465334    -0.0114810577     4.0130293161
Ni     -2.4253774776    -0.0122696246     3.9999147612
Ni      6.1800615789     2.1137858515     4.0081838709
Ni     -1.1971290730     2.1160720175     3.9990631066
Ni      3.7202264594    -2.1387306256     3.9919115975
Ni     -3.6469798439    -2.1445831980     3.9921446996
Ni      1.2140874430     0.7296166111     6.0133001976
Ni     -6.1657119057     0.7178785372     6.0141385160
Ni      2.4400522185     2.8558590404     5.9991138008
Ni     -4.9068705117     2.8503642391     6.0253902411
Ni     -0.0182265550    -1.3981113533     6.0102292143
Ni     -7.3783034545    -1.3820024811     6.0117640854
Ni      3.6842572957     0.7227200023     6.0491060366
Ni     -3.6995776119     0.7480428020     6.0388387503
Ni      4.9040801640     2.8572912696     6.0291741335
Ni     -2.4847036467     2.8495670095     6.0409819368
Ni      2.4353715383    -1.3936461147     6.0055399479
Ni     -4.9195004525    -1.4052457466     5.9961279889
Ni      6.1298852347     0.7294683049     6.0331193038
Ni     -1.2447721306     0.7298722814     6.0010699953
Ni      7.3597391165     2.8566712914     6.0089491561
Ni     -0.0195799075     2.8599964090     6.0041750809
Ni      4.9044346083    -1.3863959635     6.0229656655
Ni     -2.4796592020    -1.3978276905     6.0047543268
Ni      0.0044367062     0.0134979808     8.0131023838
Ni     -7.3211579853    -0.0241508844     8.1448241584
Ni      1.2392548671     2.1343684992     8.0093169612
Ni      8.6322790253     2.1523398080     7.9535042947
Ni     -1.2172540369    -2.1197841390     8.0052549785
Ni     -8.5932218027    -2.1391625227     7.9651605136
Ni      2.4507378287     0.0122925799     8.0272295912
Ni     -4.8805129446    -0.0120290085     7.9858704420
Ni      3.6555267056     2.1661407350     7.9967129601
Ni     -3.6604004183     2.1211100572     8.1780963143
Ni      1.2256506391    -2.0989911429     8.0202624094
Ni     -6.1168983848    -2.1106638450     8.0005294903
Ni      4.8940545788    -0.0160274434     8.1292400331
Ni     -2.4219608877    -0.0141981677     7.9949356753
Ni      6.1656021407     2.1986368609     8.0642093559
Ni     -1.1907292509     2.1294074020     7.9964126463
Ni      3.6869995266    -2.1010966670     7.9962303444
Ni     -3.6691492476    -2.1281676257     8.0154297326
O       6.1636765445     0.8087868238     9.4064571277
H      11.0309672140     3.0793110881    10.5664476192
H       6.9142171163     1.8484499062    11.0490992576
H       1.6749129409    -5.3812807604    11.3018357151
C       6.3433429935     0.9299188430    10.8162733249
O       7.7880839901    -1.0191277937    10.9063676620
H      -6.8786890077    -0.9615933094     9.5051328115
C       7.1292774832    -0.1660051544    11.4858293119
H       8.1448545504     4.2925508414    11.7865102476
C       8.3887166807     4.3132629778    12.8569971607
H       3.8864227534    -1.5542064794    13.3875723514
H       9.3206876973     4.8890294735    12.9907509979
O       8.5311988302     2.9502642738    13.2710018670
H       8.7708316122     2.9406844230    14.2122619581
O      -3.6932601678     2.1447124488    10.2768042982
H      -2.8023501628     1.8157181215    10.5087254708
88
Step 5 | NEB Image 5 | Cartesian Angstrom
Ni      1.2285271350     0.7092904720     2.0000000000
Ni     -6.1433728650     0.7092904720     2.0000000000
Ni      2.4570542700     2.8371618880     2.0000000000
Ni     -4.9148457300     2.8371618880     2.0000000000
Ni      0.0000000000    -1.4185809440     2.0000000000
Ni     -7.3719000000    -1.4185809440     2.0000000000
Ni      3.6855814050     0.7092904720     2.0000000000
Ni     -3.6863185950     0.7092904720     2.0000000000
Ni      4.9141085400     2.8371618880     2.0000000000
Ni     -2.4577914600     2.8371618880     2.0000000000
Ni      2.4570542700    -1.4185809440     2.0000000000
Ni     -4.9148457300    -1.4185809440     2.0000000000
Ni      6.1433728650     0.7092904720     2.0000000000
Ni     -1.2285271350     0.7092904720     2.0000000000
Ni      7.3719000000     2.8371618880     2.0000000000
Ni      0.0000000000     2.8371618880     2.0000000000
Ni      4.9148457300    -1.4185809440     2.0000000000
Ni     -2.4570542700    -1.4185809440     2.0000000000
Ni      0.0464326620    -0.0306468460     3.9976675890
Ni     -7.3257303870    -0.0255862300     3.9933782980
Ni      1.2739848450     2.0960038070     3.9979157030
Ni     -6.1026021170     2.1049500680     4.0019149180
Ni     -1.1827110610    -2.1546561820     3.9989053170
Ni     -8.5597082650    -2.1592869340     3.9982394010
Ni      2.5024778430    -0.0256743600     4.0031952220
Ni     -4.8641413240    -0.0227350050     3.9956475690
Ni      3.7346756480     2.0985190290     4.0083618800
Ni     -3.6458198020     2.0991473590     4.0056686860
Ni      1.2703768650    -2.1597674920     4.0015811390
Ni     -6.0933336510    -2.1603781540     3.9902680500
Ni      4.9590538200    -0.0289845540     4.0074783820
Ni     -2.4167678920    -0.0248088220     4.0022401470
Ni      6.1885777810     2.1026461420     4.0098077600
Ni     -1.1844811720     2.0985803670     3.9964394390
Ni      3.7245308300    -2.1560713310     3.9888953010
Ni     -3.6351397940    -2.1574140910     3.9933365850
Ni      1.2278611130     0.7073057200     6.0134419810
Ni     -6.1428898530     0.6957346210     6.0102358510
Ni      2.4563605190     2.8356121920     5.9987058000
Ni     -4.8924583120     2.8187736320     6.0264580820
Ni      0.0002252210    -1.4241376010     6.0155868270
Ni     -7.3667991100    -1.4101212980     5.9895528060
Ni      3.6921281460     0.7008202940     6.0360645010
Ni     -3.6779272240     0.7256007260     6.0512861550
Ni      4.9267336850     2.8309168990     6.0432780270
Ni     -2.4664659500     2.8157315660     6.0151173370
Ni      2.4509011280    -1.4197685090     6.0062316800
Ni     -4.8985683740    -1.4191884620     5.9881596610
Ni      6.1372839650     0.7115480370     6.0073921100
Ni     -1.2256557510     0.7019370040     6.0032560690
Ni      7.3730564330     2.8242126570     6.0269074010
Ni     -0.0034566730     2.8405670140     6.0010880700
Ni      4.9162369820    -1.4189308570     6.0083232610
Ni     -2.4596272260    -1.4182314770     6.0084483810
Ni      0.0277268390    -0.0168450280     8.0180888710
Ni     -7.3091221710    -0.0327920680     8.0371701400
Ni      1.2611452740     2.1078740620     8.0062525300
Ni      8.6667549770     2.1138793650     7.9801313330
Ni     -1.1942402360    -2.1496555940     8.0109921590
Ni     -8.5668484660    -2.1735761150     7.9430911750
Ni      2.4712577410    -0.0190631580     8.0243063390
Ni     -4.8670711400    -0.0431110720     7.9967287920
Ni      3.6750137580     2.1321536040     7.9940007810
Ni     -3.6274773380     2.0999917070     8.2089215290
Ni      1.2517815200    -2.1329879940     8.0267060850
Ni     -6.0785108950    -2.1534189890     7.9361595560
Ni      4.9123316280    -0.0512787390     8.0829089500
Ni     -2.4007725170    -0.0429334740     8.0081832520
Ni      6.1908597070     2.1505617180     8.1094472440
Ni     -1.1654360560     2.0989982700     7.9806126390
Ni      3.7077660390    -2.1419918620     7.9975968800
Ni     -3.6463297530    -2.1524111230     8.0158878220
O       6.1707187590     0.6663307040     9.3727337630
H      11.2555922500     3.1706166680    10.5266232770
H       7.1149227860     1.0824741990    11.1550798120
H       1.6297081310    -5.3793991980    11.2177269450
C       6.2238707100     0.5353136510    10.8108846880
O       7.5718415080    -1.5277099790    10.9241884940
H      -6.8828388710    -1.2337967880    10.0124245870
C       6.2850334910    -0.9302036460    11.2182633770
H       9.1791669060     4.9099545600    10.6626973770
C       9.7467965870     5.2786349730    12.7161077750
H       5.0959169980    -0.6608682970    12.9933131080
H      10.5457770910     5.8077082870    13.2666670860
O       9.6783811350     3.9068622240    13.1006105230
H      10.5447055700     3.5019751520    12.9206205020
O      -3.5153567700     2.2005093110    10.2599052050
H      -2.6227032800     1.8412518110    10.4321503050
