88
Step 1 | NEB Image 1 | Cartesian Angstrom
Ni      1.2285271350     0.7092904720     2.0000000000
Ni     -6.1433728650     0.7092904720     2.0000000000
Ni      2.4570542700     2.8371618880     2.0000000000
Ni     -4.9148457300     2.8371618880     2.0000000000
Ni      0.0000000000    -1.4185809440     2.0000000000
Ni     -7.3719000000    -1.4185809440     2.0000000000
Ni      3.6855814050     0.7092904720     2.0000000000
Ni     -3.6863185950     0.7092904720     2.0000000000
Ni      4.9141085400     2.8371618880     2.0000000000
Ni     -2.4577914600     2.8371618880     2.0000000000
Ni      2.4570542700    -1.4185809440     2.0000000000
Ni     -4.9148457300    -1.4185809440     2.0000000000
Ni      6.1433728650     0.7092904720     2.0000000000
Ni     -1.2285271350     0.7092904720     2.0000000000
Ni      7.3719000000     2.8371618880     2.0000000000
Ni      0.0000000000     2.8371618880     2.0000000000
Ni      4.9148457300    -1.4185809440     2.0000000000
Ni     -2.4570542700    -1.4185809440     2.0000000000
Ni      0.0345187234    -0.0219895959     3.9906686506
Ni     -7.3332872529    -0.0205271350     3.9970929970
Ni      1.2574298371     2.1090479016     3.9981086770
Ni     -6.1061214153     2.1042281316     4.0017605185
Ni     -1.1958375155    -2.1495425789     3.9888614873
Ni     -8.5615731291    -2.1597422030     3.9935633301
Ni      2.4909200515    -0.0209290578     3.9889124626
Ni     -4.8775455868    -0.0288695998     4.0155932973
Ni      3.7235299523     2.1102350339     3.9932622384
Ni     -3.6483031855     2.1055811522     4.0174271749
Ni      1.2597529797    -2.1544756242     3.9969618463
Ni     -6.1074652262    -2.1506208434     4.0019689283
Ni      4.9550771908    -0.0234645643     3.9935565644
Ni     -2.4269867653    -0.0199772708     3.9982338911
Ni      6.1741097051     2.1083418571     4.0046158614
Ni     -1.1996729370     2.1123145435     4.0000024585
Ni      3.7197951829    -2.1539414756     3.9921760547
Ni     -3.6589301935    -2.1514998115     3.9994955107
Ni      1.2136841869     0.7163863979     5.9963073096
Ni     -6.1473437226     0.7096773911     6.0218176054
Ni      2.4453295017     2.8415084524     5.9971730433
Ni     -4.9231971923     2.8360653972     6.0327934449
Ni     -0.0226348385    -1.4110330430     6.0020236029
Ni     -7.3908667378    -1.4145678834     5.9981301391
Ni      3.6669417345     0.7157583701     5.9869138182
Ni     -3.7108784987     0.7190435175     6.0328517480
Ni      4.9057976617     2.8388244163     6.0411982092
Ni     -2.4814248435     2.8298458387     6.0521186228
Ni      2.4355069788    -1.4085502466     5.9888639843
Ni     -4.9252928465    -1.4026264080     6.0548563839
Ni      6.1341025786     0.7315238745     6.0218817427
Ni     -1.2402669783     0.7221835538     5.9926808095
Ni      7.3408175190     2.8291688103     6.0248565089
Ni     -0.0225097209     2.8466795557     6.0142376281
Ni      4.9088271165    -1.4251457534     5.9900387779
Ni     -2.4790699264    -1.4211153466     5.9913638200
Ni      0.0337137405    -0.0099863123     8.0038502320
Ni     -7.3606520147    -0.0334139511     7.9835827732
Ni      1.2525382386     2.1076756093     8.0014158677
Ni      8.5596645315     2.1514300915     7.9633346422
Ni     -1.1983605499    -2.1613845897     8.0018652759
Ni     -8.5927669864    -2.1264268734     8.0165035337
Ni      2.4708324722    -0.0109047600     8.0065027389
Ni     -4.8995212632    -0.0584838282     8.1493062015
Ni      3.6789469906     2.1047412898     7.9888648741
Ni     -3.6333178494     2.1270714900     8.1546283531
Ni      1.2394335961    -2.1164979174     7.9892760222
Ni     -6.1305722611    -2.1461024656     7.9989212299
Ni      4.9150163145    -0.0283439881     7.9490640309
Ni     -2.3653823178    -0.0601929248     7.9425724452
Ni      6.1349712758     2.1197335004     8.1598232492
Ni     -1.1861990586     2.1067384809     8.0263285947
Ni      3.6953023012    -2.1157302873     7.9694462946
Ni     -3.6468332403    -2.1628724713     8.0264725749
O       5.9486020032     1.9536774433    10.1568983318
H       6.2023593986     1.0444615420    10.4395396161
H       7.6485803319     2.9982816350    10.7947394844
H       2.3841835216    -2.5662265370    10.9995346326
C       6.5922936452     2.8570131008    11.0871865803
O       6.8828593053     0.8516013498    12.3925733789
H      -6.8879959571     0.8254517200    12.3248078773
C       6.4620997723     2.2299052156    12.4710261049
H       5.3979785171     2.1706601767    12.7461907790
C       7.1981974178     3.0342299686    13.5247288963
H       3.2389656514    -2.2859498111    13.4051121917
H       8.2901195875     2.9478942375    13.3576433856
O       6.8260697992     2.5426661176    14.8120038538
H       7.2522042786     3.0948827032    15.4870039972
O      -4.3927237137     1.0982075682     9.5865509607
H      -3.6717371060     0.6667680985    10.0888232085
88
Step 2 | NEB Image 2 | Cartesian Angstrom
Ni      1.2285271350     0.7092904720     2.0000000000
Ni     -6.1433728650     0.7092904720     2.0000000000
Ni      2.4570542700     2.8371618880     2.0000000000
Ni     -4.9148457300     2.8371618880     2.0000000000
Ni      0.0000000000    -1.4185809440     2.0000000000
Ni     -7.3719000000    -1.4185809440     2.0000000000
Ni      3.6855814050     0.7092904720     2.0000000000
Ni     -3.6863185950     0.7092904720     2.0000000000
Ni      4.9141085400     2.8371618880     2.0000000000
Ni     -2.4577914600     2.8371618880     2.0000000000
Ni      2.4570542700    -1.4185809440     2.0000000000
Ni     -4.9148457300    -1.4185809440     2.0000000000
Ni      6.1433728650     0.7092904720     2.0000000000
Ni     -1.2285271350     0.7092904720     2.0000000000
Ni      7.3719000000     2.8371618880     2.0000000000
Ni      0.0000000000     2.8371618880     2.0000000000
Ni      4.9148457300    -1.4185809440     2.0000000000
Ni     -2.4570542700    -1.4185809440     2.0000000000
Ni      0.0479291369    -0.0289858022     3.9905180173
Ni     -7.3183627764    -0.0192784542     4.0057738879
Ni      1.2695642781     2.1040843865     3.9973184612
Ni     -6.0976069033     2.1025364780     4.0186142325
Ni     -1.1840723074    -2.1555334903     3.9879367996
Ni     -8.5501265650    -2.1648367227     3.9997605207
Ni      2.5060009375    -0.0282145382     3.9920300951
Ni     -4.8744624434    -0.0266799405     4.0207860428
Ni      3.7371547379     2.1034342949     3.9971656872
Ni     -3.6388565810     2.1051387134     4.0168236204
Ni      1.2718313467    -2.1608479015     3.9985846341
Ni     -6.0978737889    -2.1520668546     4.0010055187
Ni      4.9714301394    -0.0274811996     3.9956154338
Ni     -2.4174780346    -0.0236426107     3.9945692679
Ni      6.1890444671     2.1054901508     4.0120209211
Ni     -1.1898761708     2.1081602224     3.9961499207
Ni      3.7322780427    -2.1654936891     3.9983222387
Ni     -3.6509481753    -2.1515438607     3.9972454928
Ni      1.2337063418     0.7070495714     5.9945798845
Ni     -6.1148221867     0.7288812610     6.0717810841
Ni      2.4645123181     2.8324501443     5.9942979064
Ni     -4.9105669944     2.8173575587     6.0539342729
Ni     -0.0028275360    -1.4218087245     6.0022191353
Ni     -7.3654506581    -1.4155271560     6.0015639591
Ni      3.6875993209     0.7065914715     5.9921111187
Ni     -3.6854217358     0.7113449908     6.0256656499
Ni      4.9319790915     2.8275868717     6.0519311617
Ni     -2.4617126238     2.8298564635     6.0468400745
Ni      2.4542840246    -1.4225870301     5.9930243563
Ni     -4.9061682240    -1.3995973212     6.0523372795
Ni      6.1574456304     0.7202042975     6.0277971528
Ni     -1.2187600846     0.7149875076     5.9848011367
Ni      7.3735025300     2.8105260613     6.0688465493
Ni     -0.0023266237     2.8406031772     6.0033171915
Ni      4.9234945035    -1.4284974095     5.9856406787
Ni     -2.4576850175    -1.4307732715     5.9844716524
Ni      0.0585677626    -0.0245784032     8.0000331745
Ni     -7.3080792048    -0.0427343810     7.9856000481
Ni      1.2733717356     2.1001503775     7.9973700864
Ni      8.5946106550     2.1929156609     8.1495848248
Ni     -1.1750331072    -2.1720198556     8.0007243001
Ni     -8.5498443271    -2.1130496589     7.9810342952
Ni      2.4842106855    -0.0170756333     8.0063773533
Ni     -4.8352556235    -0.0540985887     8.1729284200
Ni      3.6913754256     2.1000529518     7.9926863162
Ni     -3.5654387761     2.1085510221     8.1286013581
Ni      1.2578777951    -2.1311676192     8.0044754931
Ni     -6.0840913148    -2.1496377998     8.0023143324
Ni      4.9270791581    -0.0306770841     7.9653328634
Ni     -2.3333330412    -0.0745393886     7.9339454604
Ni      6.1374515743     2.0964392528     8.1684992077
Ni     -1.1480170263     2.0965710679     8.0144771509
Ni      3.7020107490    -2.0986029871     7.9730009504
Ni     -3.6200969141    -2.1720296183     8.0169345369
O       6.2452833596     1.7453735616    10.0798336078
H       9.0411596164     2.2975931725    10.0043578809
H       8.5327914988     2.8981994505     9.8020542431
H       1.9831130149    -2.9080446640    10.9825145029
C       6.1677831330     2.4986878755    11.0662097578
O       7.3422724130     0.7882524170    12.2873590889
H      -7.4609287012     0.4920136319    11.3516962522
C       6.7391275665     2.0622325516    12.3737885392
H       5.8808374958     2.0543764981    13.0803393900
C       7.6460165507     3.1512451684    13.0121789484
H       3.5195286241    -2.2284565656    12.8558035183
H       8.6371092605     3.1299003735    12.5335136765
O       7.7177763377     2.8574045924    14.4084291849
H       8.4278328743     3.3870771274    14.8080720181
O      -4.1685795578     1.0557697511     9.6238744081
H      -3.4294709287     0.6600244796    10.1279975527
88
Step 3 | NEB Image 3 | Cartesian Angstrom
Ni      1.2285271350     0.7092904720     2.0000000000
Ni     -6.1433728650     0.7092904720     2.0000000000
Ni      2.4570542700     2.8371618880     2.0000000000
Ni     -4.9148457300     2.8371618880     2.0000000000
Ni      0.0000000000    -1.4185809440     2.0000000000
Ni     -7.3719000000    -1.4185809440     2.0000000000
Ni      3.6855814050     0.7092904720     2.0000000000
Ni     -3.6863185950     0.7092904720     2.0000000000
Ni      4.9141085400     2.8371618880     2.0000000000
Ni     -2.4577914600     2.8371618880     2.0000000000
Ni      2.4570542700    -1.4185809440     2.0000000000
Ni     -4.9148457300    -1.4185809440     2.0000000000
Ni      6.1433728650     0.7092904720     2.0000000000
Ni     -1.2285271350     0.7092904720     2.0000000000
Ni      7.3719000000     2.8371618880     2.0000000000
Ni      0.0000000000     2.8371618880     2.0000000000
Ni      4.9148457300    -1.4185809440     2.0000000000
Ni     -2.4570542700    -1.4185809440     2.0000000000
Ni      0.0339857782    -0.0168710341     3.9977540082
Ni     -7.3367598143    -0.0248658673     4.0014107993
Ni      1.2551993870     2.1070483474     3.9981863792
Ni     -6.1015430243     2.1084495705     3.9974185968
Ni     -1.1934984491    -2.1468544811     3.9956019796
Ni     -8.5674066621    -2.1413536132     4.0108914470
Ni      2.4928334137    -0.0127286125     4.0028197838
Ni     -4.8773220572    -0.0234670651     3.9985831973
Ni      3.7178526408     2.1029198317     3.9994812906
Ni     -3.6510919512     2.1132048715     4.0105538946
Ni      1.2654895517    -2.1461845872     3.9934674413
Ni     -6.1138082103    -2.1539956734     4.0085982723
Ni      4.9484830463    -0.0180861883     4.0116139777
Ni     -2.4248373023    -0.0188604544     3.9966627637
Ni      6.1808411328     2.1054392430     3.9984995484
Ni     -1.2039982295     2.1136843716     4.0053456411
Ni      3.7235955706    -2.1390151663     3.9875302203
Ni     -3.6525630586    -2.1528020848     3.9954899865
Ni      1.2130673010     0.7200191048     6.0154691036
Ni     -6.1709493485     0.7085758984     6.0091800090
Ni      2.4304679875     2.8470159551     5.9931970630
Ni     -4.9096590509     2.8493052928     6.0227137420
Ni     -0.0257191964    -1.4034086868     6.0038530628
Ni     -7.3749313923    -1.3906439057     6.0469071814
Ni      3.6846430329     0.7121812743     6.0477219766
Ni     -3.7064034196     0.7353779808     6.0209638428
Ni      4.8905027659     2.8538198901     5.9967916333
Ni     -2.4949819552     2.8337119380     6.0736284307
Ni      2.4352684493    -1.4007410292     6.0030107599
Ni     -4.9283870530    -1.4224208573     6.0063268572
Ni      6.1297755153     0.7090380758     6.0151010255
Ni     -1.2471115233     0.7235849494     6.0039567337
Ni      7.3598548165     2.8606042846     5.9797484940
Ni     -0.0289936479     2.8446637440     6.0157182313
Ni      4.9087522550    -1.3895773078     6.0374707341
Ni     -2.4880601901    -1.4093448034     6.0009580756
Ni      0.0037106247    -0.0016927715     8.0121858891
Ni     -7.3226012238    -0.0153114207     8.1516021712
Ni      1.2360422681     2.1198015015     8.0130462390
Ni      8.6157499802     2.1476539587     7.9217336997
Ni     -1.2245405565    -2.1313380112     7.9982824402
Ni     -8.5854554551    -2.1454613723     8.0000511499
Ni      2.4556916309    -0.0011382430     8.0271666510
Ni     -4.8902478330    -0.0375540566     7.9695149118
Ni      3.6500634221     2.1615607383     7.9791639066
Ni     -3.6756798462     2.0986161117     8.1798465514
Ni      1.2224577853    -2.1120725456     8.0017491322
Ni     -6.1223852322    -2.1340648678     8.0356973770
Ni      4.9025728010    -0.0111779808     8.1567982256
Ni     -2.4277168003    -0.0256609285     7.9778361298
Ni      6.1565845200     2.1758227391     7.9609585179
Ni     -1.2020741783     2.1109604109     8.0310519149
Ni      3.6907787199    -2.1049038057     7.9940105160
Ni     -3.6742213513    -2.1460220424     8.0204963210
O       6.1890938586     0.9189110987     9.4195882055
H      10.2560806632     2.5576974975    10.6509207143
H       7.0443118163     2.4235438484    10.6020650738
H       1.6000625646    -4.1388741899    10.7461636378
C       6.2205862038     1.6712052750    10.6594586862
O       7.2000244786    -0.1980722340    11.7029004247
H      -7.4045743955    -0.4429737475    10.7303140126
C       6.5721162537     0.9206617957    11.8947332350
H       6.6889066091     3.4182582181    12.8653430207
C       7.6296898046     3.7096259128    13.3492127712
H       3.9368915371    -1.5872547341    13.5226063527
H       8.4603893337     3.4757435641    12.6533099612
O       7.7295066253     2.9594125971    14.5600533947
H       8.2025892821     3.4928546490    15.2166942730
O      -4.1093663558     1.7504223731    10.2532738019
H      -3.3008867762     1.5308554799    10.7529134322
88
Step 4 | NEB Image 4 | Cartesian Angstrom
Ni      1.2285271350     0.7092904720     2.0000000000
Ni     -6.1433728650     0.7092904720     2.0000000000
Ni      2.4570542700     2.8371618880     2.0000000000
Ni     -4.9148457300     2.8371618880     2.0000000000
Ni      0.0000000000    -1.4185809440     2.0000000000
Ni     -7.3719000000    -1.4185809440     2.0000000000
Ni      3.6855814050     0.7092904720     2.0000000000
Ni     -3.6863185950     0.7092904720     2.0000000000
Ni      4.9141085400     2.8371618880     2.0000000000
Ni     -2.4577914600     2.8371618880     2.0000000000
Ni      2.4570542700    -1.4185809440     2.0000000000
Ni     -4.9148457300    -1.4185809440     2.0000000000
Ni      6.1433728650     0.7092904720     2.0000000000
Ni     -1.2285271350     0.7092904720     2.0000000000
Ni      7.3719000000     2.8371618880     2.0000000000
Ni      0.0000000000     2.8371618880     2.0000000000
Ni      4.9148457300    -1.4185809440     2.0000000000
Ni     -2.4570542700    -1.4185809440     2.0000000000
Ni      0.0353289528    -0.0134496785     3.9982861801
Ni     -7.3385497940    -0.0127667623     4.0004829374
Ni      1.2600505204     2.1120822563     3.9982244672
Ni     -6.1065012898     2.1176578231     3.9993058665
Ni     -1.1933446305    -2.1403116416     3.9979893846
Ni     -8.5695197494    -2.1398625572     4.0036551294
Ni      2.4952163518    -0.0090155661     4.0035996461
Ni     -4.8776949355    -0.0131858931     3.9965029099
Ni      3.7215818347     2.1108508005     4.0054994657
Ni     -3.6531467138     2.1163593834     4.0082398653
Ni      1.2635955253    -2.1436002668     3.9990704285
Ni     -6.1096979990    -2.1460390474     3.9981919337
Ni      4.9503300614    -0.0114145449     4.0123141721
Ni     -2.4265590854    -0.0125025377     3.9989435499
Ni      6.1790503620     2.1144934487     4.0062591264
Ni     -1.1993460641     2.1166390427     3.9997517467
Ni      3.7194848778    -2.1374658947     3.9907069030
Ni     -3.6492705991    -2.1449565114     3.9929824326
Ni      1.2124077579     0.7299833000     6.0134808439
Ni     -6.1669286413     0.7193247024     6.0113100791
Ni      2.4367836761     2.8561692040     5.9982130411
Ni     -4.9093242232     2.8514437745     6.0244744024
Ni     -0.0209917738    -1.3970749968     6.0092105758
Ni     -7.3795149898    -1.3826386029     6.0145633806
Ni      3.6826348593     0.7230845610     6.0485777176
Ni     -3.7017814093     0.7472036646     6.0348517487
Ni      4.8998236418     2.8595619153     6.0234983833
Ni     -2.4885118335     2.8459002499     6.0418154884
Ni      2.4341365240    -1.3927986884     6.0049719902
Ni     -4.9220487593    -1.4057378165     5.9968343377
Ni      6.1255196658     0.7306451363     6.0248018849
Ni     -1.2466978289     0.7297689728     6.0010502962
Ni      7.3586503577     2.8592515302     6.0050372317
Ni     -0.0227794343     2.8589958417     6.0068127108
Ni      4.9038845729    -1.3850288442     6.0244784796
Ni     -2.4826695734    -1.3985916891     6.0042123452
Ni      0.0022199824     0.0135286126     8.0126445115
Ni     -7.3299819674    -0.0130986069     8.1120296077
Ni      1.2373580324     2.1340594418     8.0103107257
Ni      8.6305674573     2.1528420688     7.9508136203
Ni     -1.2202424627    -2.1197658220     8.0043739022
Ni     -8.5888713973    -2.1388393584     7.9695803150
Ni      2.4502707785     0.0127092270     8.0269818048
Ni     -4.8875912646    -0.0167904070     7.9829182019
Ni      3.6532189457     2.1678434584     7.9934559814
Ni     -3.6662802716     2.1181275086     8.1788755624
Ni      1.2237087119    -2.0975949484     8.0175420570
Ni     -6.1148608380    -2.1195482977     7.9901067783
Ni      4.8947196555    -0.0163884457     8.1340737536
Ni     -2.4254053620    -0.0148427921     7.9918041013
Ni      6.1616433597     2.2013717767     8.0502596965
Ni     -1.1952159686     2.1268734779     8.0014651039
Ni      3.6874058536    -2.0991218618     7.9960085438
Ni     -3.6721915443    -2.1291545262     8.0179802630
O       6.1734733677     0.8257970521     9.3911595603
H      10.9188931524     3.0205255549    10.5782263853
H       6.9629404132     1.9282941070    10.9772749984
H       1.6982878308    -5.2209024851    11.2792138107
C       6.3635992996     1.0112471312    10.8029156710
O       7.7920625474    -0.9202511033    10.9040319877
H      -6.9076781299    -0.8691537972     9.7701881372
C       7.1189156709    -0.0529319349    11.5325674953
H       8.2526265365     4.2460751587    11.8168867992
C       8.4197994777     4.3127879705    12.9028510238
H       3.9154020811    -1.4765224749    13.3427926728
H       9.3691745489     4.8437398893    13.0732281110
O       8.4433471974     2.9736871303    13.4161706418
H       9.0292764404     2.9529554607    14.1895295158
O      -3.7454839717     2.0918766286    10.2814898862
H      -2.8430217617     1.8094037448    10.5297645407
88
Step 5 | NEB Image 5 | Cartesian Angstrom
Ni      1.2285271350     0.7092904720     2.0000000000
Ni     -6.1433728650     0.7092904720     2.0000000000
Ni      2.4570542700     2.8371618880     2.0000000000
Ni     -4.9148457300     2.8371618880     2.0000000000
Ni      0.0000000000    -1.4185809440     2.0000000000
Ni     -7.3719000000    -1.4185809440     2.0000000000
Ni      3.6855814050     0.7092904720     2.0000000000
Ni     -3.6863185950     0.7092904720     2.0000000000
Ni      4.9141085400     2.8371618880     2.0000000000
Ni     -2.4577914600     2.8371618880     2.0000000000
Ni      2.4570542700    -1.4185809440     2.0000000000
Ni     -4.9148457300    -1.4185809440     2.0000000000
Ni      6.1433728650     0.7092904720     2.0000000000
Ni     -1.2285271350     0.7092904720     2.0000000000
Ni      7.3719000000     2.8371618880     2.0000000000
Ni      0.0000000000     2.8371618880     2.0000000000
Ni      4.9148457300    -1.4185809440     2.0000000000
Ni     -2.4570542700    -1.4185809440     2.0000000000
Ni      0.0464326620    -0.0306468460     3.9976675890
Ni     -7.3257303870    -0.0255862300     3.9933782980
Ni      1.2739848450     2.0960038070     3.9979157030
Ni     -6.1026021170     2.1049500680     4.0019149180
Ni     -1.1827110610    -2.1546561820     3.9989053170
Ni     -8.5597082650    -2.1592869340     3.9982394010
Ni      2.5024778430    -0.0256743600     4.0031952220
Ni     -4.8641413240    -0.0227350050     3.9956475690
Ni      3.7346756480     2.0985190290     4.0083618800
Ni     -3.6458198020     2.0991473590     4.0056686860
Ni      1.2703768650    -2.1597674920     4.0015811390
Ni     -6.0933336510    -2.1603781540     3.9902680500
Ni      4.9590538200    -0.0289845540     4.0074783820
Ni     -2.4167678920    -0.0248088220     4.0022401470
Ni      6.1885777810     2.1026461420     4.0098077600
Ni     -1.1844811720     2.0985803670     3.9964394390
Ni      3.7245308300    -2.1560713310     3.9888953010
Ni     -3.6351397940    -2.1574140910     3.9933365850
Ni      1.2278611130     0.7073057200     6.0134419810
Ni     -6.1428898530     0.6957346210     6.0102358510
Ni      2.4563605190     2.8356121920     5.9987058000
Ni     -4.8924583120     2.8187736320     6.0264580820
Ni      0.0002252210    -1.4241376010     6.0155868270
Ni     -7.3667991100    -1.4101212980     5.9895528060
Ni      3.6921281460     0.7008202940     6.0360645010
Ni     -3.6779272240     0.7256007260     6.0512861550
Ni      4.9267336850     2.8309168990     6.0432780270
Ni     -2.4664659500     2.8157315660     6.0151173370
Ni      2.4509011280    -1.4197685090     6.0062316800
Ni     -4.8985683740    -1.4191884620     5.9881596610
Ni      6.1372839650     0.7115480370     6.0073921100
Ni     -1.2256557510     0.7019370040     6.0032560690
Ni      7.3730564330     2.8242126570     6.0269074010
Ni     -0.0034566730     2.8405670140     6.0010880700
Ni      4.9162369820    -1.4189308570     6.0083232610
Ni     -2.4596272260    -1.4182314770     6.0084483810
Ni      0.0277268390    -0.0168450280     8.0180888710
Ni     -7.3091221710    -0.0327920680     8.0371701400
Ni      1.2611452740     2.1078740620     8.0062525300
Ni      8.6667549770     2.1138793650     7.9801313330
Ni     -1.1942402360    -2.1496555940     8.0109921590
Ni     -8.5668484660    -2.1735761150     7.9430911750
Ni      2.4712577410    -0.0190631580     8.0243063390
Ni     -4.8670711400    -0.0431110720     7.9967287920
Ni      3.6750137580     2.1321536040     7.9940007810
Ni     -3.6274773380     2.0999917070     8.2089215290
Ni      1.2517815200    -2.1329879940     8.0267060850
Ni     -6.0785108950    -2.1534189890     7.9361595560
Ni      4.9123316280    -0.0512787390     8.0829089500
Ni     -2.4007725170    -0.0429334740     8.0081832520
Ni      6.1908597070     2.1505617180     8.1094472440
Ni     -1.1654360560     2.0989982700     7.9806126390
Ni      3.7077660390    -2.1419918620     7.9975968800
Ni     -3.6463297530    -2.1524111230     8.0158878220
O       6.1707187590     0.6663307040     9.3727337630
H      11.2555922500     3.1706166680    10.5266232770
H       7.1149227860     1.0824741990    11.1550798120
H       1.6297081310    -5.3793991980    11.2177269450
C       6.2238707100     0.5353136510    10.8108846880
O       7.5718415080    -1.5277099790    10.9241884940
H      -6.8828388710    -1.2337967880    10.0124245870
C       6.2850334910    -0.9302036460    11.2182633770
H       9.1791669060     4.9099545600    10.6626973770
C       9.7467965870     5.2786349730    12.7161077750
H       5.0959169980    -0.6608682970    12.9933131080
H      10.5457770910     5.8077082870    13.2666670860
O       9.6783811350     3.9068622240    13.1006105230
H      10.5447055700     3.5019751520    12.9206205020
O      -3.5153567700     2.2005093110    10.2599052050
H      -2.6227032800     1.8412518110    10.4321503050
