88
Step 1 | NEB Image 1 | Cartesian Angstrom
Ni      1.2285271350     0.7092904720     2.0000000000
Ni     -6.1433728650     0.7092904720     2.0000000000
Ni      2.4570542700     2.8371618880     2.0000000000
Ni     -4.9148457300     2.8371618880     2.0000000000
Ni      0.0000000000    -1.4185809440     2.0000000000
Ni     -7.3719000000    -1.4185809440     2.0000000000
Ni      3.6855814050     0.7092904720     2.0000000000
Ni     -3.6863185950     0.7092904720     2.0000000000
Ni      4.9141085400     2.8371618880     2.0000000000
Ni     -2.4577914600     2.8371618880     2.0000000000
Ni      2.4570542700    -1.4185809440     2.0000000000
Ni     -4.9148457300    -1.4185809440     2.0000000000
Ni      6.1433728650     0.7092904720     2.0000000000
Ni     -1.2285271350     0.7092904720     2.0000000000
Ni      7.3719000000     2.8371618880     2.0000000000
Ni      0.0000000000     2.8371618880     2.0000000000
Ni      4.9148457300    -1.4185809440     2.0000000000
Ni     -2.4570542700    -1.4185809440     2.0000000000
Ni      0.0345187234    -0.0219895959     3.9906686506
Ni     -7.3332872529    -0.0205271350     3.9970929970
Ni      1.2574298371     2.1090479016     3.9981086770
Ni     -6.1061214153     2.1042281316     4.0017605185
Ni     -1.1958375155    -2.1495425789     3.9888614873
Ni     -8.5615731291    -2.1597422030     3.9935633301
Ni      2.4909200515    -0.0209290578     3.9889124626
Ni     -4.8775455868    -0.0288695998     4.0155932973
Ni      3.7235299523     2.1102350339     3.9932622384
Ni     -3.6483031855     2.1055811522     4.0174271749
Ni      1.2597529797    -2.1544756242     3.9969618463
Ni     -6.1074652262    -2.1506208434     4.0019689283
Ni      4.9550771908    -0.0234645643     3.9935565644
Ni     -2.4269867653    -0.0199772708     3.9982338911
Ni      6.1741097051     2.1083418571     4.0046158614
Ni     -1.1996729370     2.1123145435     4.0000024585
Ni      3.7197951829    -2.1539414756     3.9921760547
Ni     -3.6589301935    -2.1514998115     3.9994955107
Ni      1.2136841869     0.7163863979     5.9963073096
Ni     -6.1473437226     0.7096773911     6.0218176054
Ni      2.4453295017     2.8415084524     5.9971730433
Ni     -4.9231971923     2.8360653972     6.0327934449
Ni     -0.0226348385    -1.4110330430     6.0020236029
Ni     -7.3908667378    -1.4145678834     5.9981301391
Ni      3.6669417345     0.7157583701     5.9869138182
Ni     -3.7108784987     0.7190435175     6.0328517480
Ni      4.9057976617     2.8388244163     6.0411982092
Ni     -2.4814248435     2.8298458387     6.0521186228
Ni      2.4355069788    -1.4085502466     5.9888639843
Ni     -4.9252928465    -1.4026264080     6.0548563839
Ni      6.1341025786     0.7315238745     6.0218817427
Ni     -1.2402669783     0.7221835538     5.9926808095
Ni      7.3408175190     2.8291688103     6.0248565089
Ni     -0.0225097209     2.8466795557     6.0142376281
Ni      4.9088271165    -1.4251457534     5.9900387779
Ni     -2.4790699264    -1.4211153466     5.9913638200
Ni      0.0337137405    -0.0099863123     8.0038502320
Ni     -7.3606520147    -0.0334139511     7.9835827732
Ni      1.2525382386     2.1076756093     8.0014158677
Ni      8.5596645315     2.1514300915     7.9633346422
Ni     -1.1983605499    -2.1613845897     8.0018652759
Ni     -8.5927669864    -2.1264268734     8.0165035337
Ni      2.4708324722    -0.0109047600     8.0065027389
Ni     -4.8995212632    -0.0584838282     8.1493062015
Ni      3.6789469906     2.1047412898     7.9888648741
Ni     -3.6333178494     2.1270714900     8.1546283531
Ni      1.2394335961    -2.1164979174     7.9892760222
Ni     -6.1305722611    -2.1461024656     7.9989212299
Ni      4.9150163145    -0.0283439881     7.9490640309
Ni     -2.3653823178    -0.0601929248     7.9425724452
Ni      6.1349712758     2.1197335004     8.1598232492
Ni     -1.1861990586     2.1067384809     8.0263285947
Ni      3.6953023012    -2.1157302873     7.9694462946
Ni     -3.6468332403    -2.1628724713     8.0264725749
O       5.9486020032     1.9536774433    10.1568983318
H       6.2023593986     1.0444615420    10.4395396161
H       7.6485803319     2.9982816350    10.7947394844
H       2.3841835216    -2.5662265370    10.9995346326
C       6.5922936452     2.8570131008    11.0871865803
O       6.8828593053     0.8516013498    12.3925733789
H      -6.8879959571     0.8254517200    12.3248078773
C       6.4620997723     2.2299052156    12.4710261049
H       5.3979785171     2.1706601767    12.7461907790
C       7.1981974178     3.0342299686    13.5247288963
H       3.2389656514    -2.2859498111    13.4051121917
H       8.2901195875     2.9478942375    13.3576433856
O       6.8260697992     2.5426661176    14.8120038538
H       7.2522042786     3.0948827032    15.4870039972
O      -4.3927237137     1.0982075682     9.5865509607
H      -3.6717371060     0.6667680985    10.0888232085
88
Step 2 | NEB Image 2 | Cartesian Angstrom
Ni      1.2285271350     0.7092904720     2.0000000000
Ni     -6.1433728650     0.7092904720     2.0000000000
Ni      2.4570542700     2.8371618880     2.0000000000
Ni     -4.9148457300     2.8371618880     2.0000000000
Ni      0.0000000000    -1.4185809440     2.0000000000
Ni     -7.3719000000    -1.4185809440     2.0000000000
Ni      3.6855814050     0.7092904720     2.0000000000
Ni     -3.6863185950     0.7092904720     2.0000000000
Ni      4.9141085400     2.8371618880     2.0000000000
Ni     -2.4577914600     2.8371618880     2.0000000000
Ni      2.4570542700    -1.4185809440     2.0000000000
Ni     -4.9148457300    -1.4185809440     2.0000000000
Ni      6.1433728650     0.7092904720     2.0000000000
Ni     -1.2285271350     0.7092904720     2.0000000000
Ni      7.3719000000     2.8371618880     2.0000000000
Ni      0.0000000000     2.8371618880     2.0000000000
Ni      4.9148457300    -1.4185809440     2.0000000000
Ni     -2.4570542700    -1.4185809440     2.0000000000
Ni      0.0478224528    -0.0285220255     3.9906919230
Ni     -7.3172404330    -0.0189308314     4.0065261607
Ni      1.2693270176     2.1042999598     3.9973234722
Ni     -6.0976171483     2.1029548427     4.0216118525
Ni     -1.1840356175    -2.1551611279     3.9879961237
Ni     -8.5495396126    -2.1647342096     4.0009304973
Ni      2.5063525667    -0.0280116960     3.9924514034
Ni     -4.8747597203    -0.0259848380     4.0219395207
Ni      3.7374030920     2.1036502897     3.9971638543
Ni     -3.6390024702     2.1055358843     4.0174348824
Ni      1.2722780356    -2.1601541645     3.9984357041
Ni     -6.0974369511    -2.1519496179     4.0019190737
Ni      4.9720738890    -0.0273139260     3.9961603514
Ni     -2.4177743741    -0.0232451694     3.9947570684
Ni      6.1901056878     2.1060022105     4.0120407346
Ni     -1.1901632658     2.1083256687     3.9965098793
Ni      3.7328876381    -2.1656203159     3.9990774312
Ni     -3.6510392827    -2.1510347675     3.9975967342
Ni      1.2335485426     0.7076202522     5.9948582621
Ni     -6.1135294020     0.7322324092     6.0782877951
Ni      2.4638361730     2.8332264104     5.9935918317
Ni     -4.9112722069     2.8176758095     6.0574578544
Ni     -0.0027231877    -1.4210828136     6.0018680151
Ni     -7.3647235836    -1.4139024029     6.0028912695
Ni      3.6878444402     0.7073247839     5.9925144669
Ni     -3.6854854380     0.7125350343     6.0273962337
Ni      4.9320511185     2.8286143562     6.0504580897
Ni     -2.4624984164     2.8310742107     6.0483774553
Ni      2.4551327647    -1.4222230925     5.9941849854
Ni     -4.9064158344    -1.3972221954     6.0537793412
Ni      6.1581726405     0.7205060613     6.0272053800
Ni     -1.2193113770     0.7154547016     5.9855042255
Ni      7.3744441779     2.8113988974     6.0741703740
Ni     -0.0031318341     2.8416895080     6.0033779269
Ni      4.9235668901    -1.4277045663     5.9863828041
Ni     -2.4579750434    -1.4295097647     5.9849031164
Ni      0.0571846220    -0.0231278419     8.0000132007
Ni     -7.3069497196    -0.0397173660     7.9872038030
Ni      1.2721177928     2.1020612018     7.9972708412
Ni      8.5940007471     2.2014858441     8.1715203055
Ni     -1.1764697862    -2.1697854023     7.9997051323
Ni     -8.5489617345    -2.1092698866     7.9808222633
Ni      2.4828009220    -0.0143946025     8.0067949414
Ni     -4.8326292303    -0.0489183497     8.1797605613
Ni      3.6899207897     2.1031697380     7.9913835498
Ni     -3.5654861378     2.1115729540     8.1305236898
Ni      1.2568716563    -2.1298063007     8.0044193400
Ni     -6.0831237921    -2.1465056263     8.0038310649
Ni      4.9262584337    -0.0280734127     7.9666459954
Ni     -2.3353831037    -0.0721917847     7.9364798867
Ni      6.1361822856     2.0971408578     8.1633907758
Ni     -1.1485987425     2.0982229990     8.0146714073
Ni      3.6997475317    -2.0939424882     7.9764312006
Ni     -3.6212281629    -2.1697973970     8.0173650166
O       6.2372685509     1.7253472369    10.0756044894
H       9.0436532405     2.2875433523     9.9446181082
H       8.4873996764     2.8707410746     9.7815080622
H       1.9604468000    -2.9334169736    10.9752606974
C       6.1603380857     2.4822440027    11.0599165663
O       7.3385872305     0.7794748740    12.2823751062
H      -7.4635908037     0.4806992063    11.3466844348
C       6.7408491864     2.0564890208    12.3665529255
H       5.8863246987     2.0617651342    13.0779980763
C       7.6477473136     3.1494532529    13.0076232196
H       3.5194635252    -2.2293019683    12.8601063134
H       8.6384827499     3.1350086487    12.5283835364
O       7.7208326643     2.8479688779    14.4028907996
H       8.4153643011     3.3919984768    14.8110777473
O      -4.1628015113     1.0664911238     9.6342879731
H      -3.4235822220     0.6844461112    10.1484274995
88
Step 3 | NEB Image 3 | Cartesian Angstrom
Ni      1.2285271350     0.7092904720     2.0000000000
Ni     -6.1433728650     0.7092904720     2.0000000000
Ni      2.4570542700     2.8371618880     2.0000000000
Ni     -4.9148457300     2.8371618880     2.0000000000
Ni      0.0000000000    -1.4185809440     2.0000000000
Ni     -7.3719000000    -1.4185809440     2.0000000000
Ni      3.6855814050     0.7092904720     2.0000000000
Ni     -3.6863185950     0.7092904720     2.0000000000
Ni      4.9141085400     2.8371618880     2.0000000000
Ni     -2.4577914600     2.8371618880     2.0000000000
Ni      2.4570542700    -1.4185809440     2.0000000000
Ni     -4.9148457300    -1.4185809440     2.0000000000
Ni      6.1433728650     0.7092904720     2.0000000000
Ni     -1.2285271350     0.7092904720     2.0000000000
Ni      7.3719000000     2.8371618880     2.0000000000
Ni      0.0000000000     2.8371618880     2.0000000000
Ni      4.9148457300    -1.4185809440     2.0000000000
Ni     -2.4570542700    -1.4185809440     2.0000000000
Ni      0.0343987544    -0.0172564580     3.9976239580
Ni     -7.3362431431    -0.0250997776     4.0016314416
Ni      1.2554185690     2.1067615165     3.9980411283
Ni     -6.1010081849     2.1082012879     3.9972266631
Ni     -1.1935042917    -2.1470176075     3.9956049957
Ni     -8.5669988262    -2.1415307131     4.0108701742
Ni      2.4933531675    -0.0130960279     4.0026942110
Ni     -4.8767720312    -0.0237786731     3.9986756042
Ni      3.7179901451     2.1026326651     3.9991392801
Ni     -3.6507161240     2.1129822519     4.0105405478
Ni      1.2656430142    -2.1465793178     3.9932677217
Ni     -6.1134407345    -2.1541248457     4.0087861981
Ni      4.9490948504    -0.0183174900     4.0114926453
Ni     -2.4245355855    -0.0190559545     3.9967887875
Ni      6.1812626783     2.1050771713     3.9985200757
Ni     -1.2035788968     2.1133967430     4.0052227123
Ni      3.7238845756    -2.1391912970     3.9872698481
Ni     -3.6523040212    -2.1529926871     3.9955553543
Ni      1.2136461822     0.7197248179     6.0151752253
Ni     -6.1700106119     0.7086588807     6.0091555528
Ni      2.4308223932     2.8467447639     5.9929527296
Ni     -4.9087396273     2.8496102274     6.0227253988
Ni     -0.0256266715    -1.4037406137     6.0037429706
Ni     -7.3742119638    -1.3904172527     6.0471757620
Ni      3.6854276298     0.7121225533     6.0472971757
Ni     -3.7056474825     0.7356156975     6.0214468859
Ni      4.8907662987     2.8538796390     5.9961187532
Ni     -2.4941930502     2.8338337418     6.0733138102
Ni      2.4354619223    -1.4009883026     6.0027364297
Ni     -4.9276993835    -1.4226384227     6.0067684471
Ni      6.1306296572     0.7093412171     6.0153131566
Ni     -1.2465751777     0.7232328828     6.0038565523
Ni      7.3609138225     2.8607276882     5.9791754343
Ni     -0.0283554448     2.8445160665     6.0157669503
Ni      4.9093441074    -1.3893918673     6.0371841132
Ni     -2.4878690455    -1.4094686399     6.0013608412
Ni      0.0048258146    -0.0017364971     8.0117863542
Ni     -7.3216419812    -0.0142237934     8.1517194114
Ni      1.2367671858     2.1195884255     8.0130060871
Ni      8.6172709941     2.1481414769     7.9213302799
Ni     -1.2239389562    -2.1315158677     7.9984383233
Ni     -8.5847551711    -2.1439980672     8.0005935726
Ni      2.4572087249    -0.0006258895     8.0267368966
Ni     -4.8889814098    -0.0373265329     7.9695541717
Ni      3.6505300719     2.1620082356     7.9785574079
Ni     -3.6744126546     2.0994014208     8.1801286057
Ni      1.2228098885    -2.1109047347     8.0018354274
Ni     -6.1217140955    -2.1335349801     8.0359879180
Ni      4.9042980248    -0.0110039893     8.1575997597
Ni     -2.4267938887    -0.0258110480     7.9783835542
Ni      6.1572151293     2.1797475217     7.9599099387
Ni     -1.2011948131     2.1107443550     8.0303039735
Ni      3.6918733641    -2.1035214976     7.9935718786
Ni     -3.6734829610    -2.1463699703     8.0213892500
O       6.1821297386     0.9234719072     9.4152287979
H      10.2788886550     2.5823184253    10.6457090715
H       7.0013873559     2.4512657948    10.5932371403
H       1.5707188343    -4.1847184974    10.7761721025
C       6.2123516054     1.6646909710    10.6625473142
O       7.1979075574    -0.2237142654    11.6681432189
H      -7.4623609058    -0.4800246974    10.6912707065
C       6.6076975146     0.9108754022    11.8813174666
H       6.6668366395     3.4130224538    12.8921786079
C       7.6149122516     3.7044226870    13.3613567098
H       3.9329129409    -1.5898432770    13.5186885698
H       8.4348254788     3.4516147419    12.6595106497
O       7.7219183797     2.9727454714    14.5829660156
H       8.2155644197     3.5088819134    15.2221411892
O      -4.0970073503     1.7677562509    10.2531453780
H      -3.2866299708     1.5461845571    10.7488544529
88
Step 4 | NEB Image 4 | Cartesian Angstrom
Ni      1.2285271350     0.7092904720     2.0000000000
Ni     -6.1433728650     0.7092904720     2.0000000000
Ni      2.4570542700     2.8371618880     2.0000000000
Ni     -4.9148457300     2.8371618880     2.0000000000
Ni      0.0000000000    -1.4185809440     2.0000000000
Ni     -7.3719000000    -1.4185809440     2.0000000000
Ni      3.6855814050     0.7092904720     2.0000000000
Ni     -3.6863185950     0.7092904720     2.0000000000
Ni      4.9141085400     2.8371618880     2.0000000000
Ni     -2.4577914600     2.8371618880     2.0000000000
Ni      2.4570542700    -1.4185809440     2.0000000000
Ni     -4.9148457300    -1.4185809440     2.0000000000
Ni      6.1433728650     0.7092904720     2.0000000000
Ni     -1.2285271350     0.7092904720     2.0000000000
Ni      7.3719000000     2.8371618880     2.0000000000
Ni      0.0000000000     2.8371618880     2.0000000000
Ni      4.9148457300    -1.4185809440     2.0000000000
Ni     -2.4570542700    -1.4185809440     2.0000000000
Ni      0.0354727068    -0.0135078734     3.9983602988
Ni     -7.3384894020    -0.0125432687     4.0004598399
Ni      1.2603412058     2.1120551985     3.9982490580
Ni     -6.1065509818     2.1177375104     3.9993919148
Ni     -1.1932043708    -2.1402799968     3.9980939314
Ni     -8.5694376178    -2.1399404471     4.0034753750
Ni      2.4953930214    -0.0091122733     4.0036415808
Ni     -4.8775632150    -0.0129956692     3.9964571541
Ni      3.7218126222     2.1109148364     4.0056894646
Ni     -3.6531112210     2.1163621896     4.0081936784
Ni      1.2636738284    -2.1437134018     3.9992987555
Ni     -6.1094483998    -2.1459106340     3.9979367292
Ni      4.9504648190    -0.0113732317     4.0123365837
Ni     -2.4264823789    -0.0124203814     3.9990203643
Ni      6.1790836783     2.1145691508     4.0065519522
Ni     -1.1990763675     2.1166124821     3.9995787552
Ni      3.7195083949    -2.1376149214     3.9908212851
Ni     -3.6490037018    -2.1448464410     3.9929779866
Ni      1.2125720883     0.7300341251     6.0134548617
Ni     -6.1667709467     0.7193613885     6.0115334539
Ni      2.4371345561     2.8562230381     5.9983764973
Ni     -4.9092706448     2.8513610481     6.0245440292
Ni     -0.0206550293    -1.3971592389     6.0093812631
Ni     -7.3795668108    -1.3824716634     6.0138024240
Ni      3.6826676716     0.7231586773     6.0485928690
Ni     -3.7014770705     0.7475061405     6.0353518421
Ni      4.9003173324     2.8593514324     6.0244530080
Ni     -2.4881863507     2.8461599116     6.0410265832
Ni      2.4342041396    -1.3928508178     6.0050325596
Ni     -4.9216995930    -1.4053806129     5.9965925982
Ni      6.1255845720     0.7308422212     6.0252618146
Ni     -1.2464844012     0.7297936715     6.0010173264
Ni      7.3586336856     2.8589194740     6.0058951097
Ni     -0.0224288836     2.8592385995     6.0065998705
Ni      4.9037235123    -1.3850874501     6.0241297204
Ni     -2.4822915556    -1.3983797635     6.0043843143
Ni      0.0024048442     0.0135996060     8.0126597144
Ni     -7.3299818065    -0.0130106007     8.1120820952
Ni      1.2375493283     2.1341845414     8.0102195212
Ni      8.6309263597     2.1528099564     7.9516502556
Ni     -1.2198953925    -2.1196891550     8.0045786985
Ni     -8.5892766917    -2.1385419204     7.9685450788
Ni      2.4502858662     0.0126968373     8.0270077606
Ni     -4.8871908412    -0.0161742227     7.9833402671
Ni      3.6533753413     2.1676794416     7.9938884117
Ni     -3.6658942438     2.1191124488     8.1791689793
Ni      1.2239828589    -2.0977343980     8.0179438194
Ni     -6.1146813644    -2.1188094738     7.9890053702
Ni      4.8946058050    -0.0164171832     8.1335896997
Ni     -2.4251641914    -0.0145330993     7.9923472308
Ni      6.1620285019     2.2010917691     8.0529261979
Ni     -1.1948433425     2.1271969825     8.0006224878
Ni      3.6872041625    -2.0993005675     7.9960814922
Ni     -3.6719074025    -2.1288142737     8.0178762312
O       6.1722879338     0.8229086354     9.3927196768
H      10.9355329075     3.0320551962    10.5755472572
H       6.9544130627     1.9157662695    10.9894730815
H       1.6946637075    -5.2466690817    11.2838171438
C       6.3610428039     0.9968325084    10.8059431078
O       7.7930544570    -0.9341351660    10.8948828259
H      -6.9058688315    -0.8783546762     9.7540140877
C       7.1205480538    -0.0706810932    11.5269696948
H       8.2329435866     4.2521039277    11.8127967851
C       8.4120557398     4.3102734027    12.8969709998
H       3.9081195168    -1.4887532349    13.3514899421
H       9.3607847526     4.8450790602    13.0615753863
O       8.4538351039     2.9654235516    13.3929723783
H       8.9877091300     2.9571238199    14.2037693999
O      -3.7383385521     2.1020756043    10.2802371933
H      -2.8375481457     1.8122947985    10.5261665155
88
Step 5 | NEB Image 5 | Cartesian Angstrom
Ni      1.2285271350     0.7092904720     2.0000000000
Ni     -6.1433728650     0.7092904720     2.0000000000
Ni      2.4570542700     2.8371618880     2.0000000000
Ni     -4.9148457300     2.8371618880     2.0000000000
Ni      0.0000000000    -1.4185809440     2.0000000000
Ni     -7.3719000000    -1.4185809440     2.0000000000
Ni      3.6855814050     0.7092904720     2.0000000000
Ni     -3.6863185950     0.7092904720     2.0000000000
Ni      4.9141085400     2.8371618880     2.0000000000
Ni     -2.4577914600     2.8371618880     2.0000000000
Ni      2.4570542700    -1.4185809440     2.0000000000
Ni     -4.9148457300    -1.4185809440     2.0000000000
Ni      6.1433728650     0.7092904720     2.0000000000
Ni     -1.2285271350     0.7092904720     2.0000000000
Ni      7.3719000000     2.8371618880     2.0000000000
Ni      0.0000000000     2.8371618880     2.0000000000
Ni      4.9148457300    -1.4185809440     2.0000000000
Ni     -2.4570542700    -1.4185809440     2.0000000000
Ni      0.0464326620    -0.0306468460     3.9976675890
Ni     -7.3257303870    -0.0255862300     3.9933782980
Ni      1.2739848450     2.0960038070     3.9979157030
Ni     -6.1026021170     2.1049500680     4.0019149180
Ni     -1.1827110610    -2.1546561820     3.9989053170
Ni     -8.5597082650    -2.1592869340     3.9982394010
Ni      2.5024778430    -0.0256743600     4.0031952220
Ni     -4.8641413240    -0.0227350050     3.9956475690
Ni      3.7346756480     2.0985190290     4.0083618800
Ni     -3.6458198020     2.0991473590     4.0056686860
Ni      1.2703768650    -2.1597674920     4.0015811390
Ni     -6.0933336510    -2.1603781540     3.9902680500
Ni      4.9590538200    -0.0289845540     4.0074783820
Ni     -2.4167678920    -0.0248088220     4.0022401470
Ni      6.1885777810     2.1026461420     4.0098077600
Ni     -1.1844811720     2.0985803670     3.9964394390
Ni      3.7245308300    -2.1560713310     3.9888953010
Ni     -3.6351397940    -2.1574140910     3.9933365850
Ni      1.2278611130     0.7073057200     6.0134419810
Ni     -6.1428898530     0.6957346210     6.0102358510
Ni      2.4563605190     2.8356121920     5.9987058000
Ni     -4.8924583120     2.8187736320     6.0264580820
Ni      0.0002252210    -1.4241376010     6.0155868270
Ni     -7.3667991100    -1.4101212980     5.9895528060
Ni      3.6921281460     0.7008202940     6.0360645010
Ni     -3.6779272240     0.7256007260     6.0512861550
Ni      4.9267336850     2.8309168990     6.0432780270
Ni     -2.4664659500     2.8157315660     6.0151173370
Ni      2.4509011280    -1.4197685090     6.0062316800
Ni     -4.8985683740    -1.4191884620     5.9881596610
Ni      6.1372839650     0.7115480370     6.0073921100
Ni     -1.2256557510     0.7019370040     6.0032560690
Ni      7.3730564330     2.8242126570     6.0269074010
Ni     -0.0034566730     2.8405670140     6.0010880700
Ni      4.9162369820    -1.4189308570     6.0083232610
Ni     -2.4596272260    -1.4182314770     6.0084483810
Ni      0.0277268390    -0.0168450280     8.0180888710
Ni     -7.3091221710    -0.0327920680     8.0371701400
Ni      1.2611452740     2.1078740620     8.0062525300
Ni      8.6667549770     2.1138793650     7.9801313330
Ni     -1.1942402360    -2.1496555940     8.0109921590
Ni     -8.5668484660    -2.1735761150     7.9430911750
Ni      2.4712577410    -0.0190631580     8.0243063390
Ni     -4.8670711400    -0.0431110720     7.9967287920
Ni      3.6750137580     2.1321536040     7.9940007810
Ni     -3.6274773380     2.0999917070     8.2089215290
Ni      1.2517815200    -2.1329879940     8.0267060850
Ni     -6.0785108950    -2.1534189890     7.9361595560
Ni      4.9123316280    -0.0512787390     8.0829089500
Ni     -2.4007725170    -0.0429334740     8.0081832520
Ni      6.1908597070     2.1505617180     8.1094472440
Ni     -1.1654360560     2.0989982700     7.9806126390
Ni      3.7077660390    -2.1419918620     7.9975968800
Ni     -3.6463297530    -2.1524111230     8.0158878220
O       6.1707187590     0.6663307040     9.3727337630
H      11.2555922500     3.1706166680    10.5266232770
H       7.1149227860     1.0824741990    11.1550798120
H       1.6297081310    -5.3793991980    11.2177269450
C       6.2238707100     0.5353136510    10.8108846880
O       7.5718415080    -1.5277099790    10.9241884940
H      -6.8828388710    -1.2337967880    10.0124245870
C       6.2850334910    -0.9302036460    11.2182633770
H       9.1791669060     4.9099545600    10.6626973770
C       9.7467965870     5.2786349730    12.7161077750
H       5.0959169980    -0.6608682970    12.9933131080
H      10.5457770910     5.8077082870    13.2666670860
O       9.6783811350     3.9068622240    13.1006105230
H      10.5447055700     3.5019751520    12.9206205020
O      -3.5153567700     2.2005093110    10.2599052050
H      -2.6227032800     1.8412518110    10.4321503050
