88
Step 1 | NEB Image 1 | Cartesian Angstrom
Ni      1.2285271350     0.7092904720     2.0000000000
Ni     -6.1433728650     0.7092904720     2.0000000000
Ni      2.4570542700     2.8371618880     2.0000000000
Ni     -4.9148457300     2.8371618880     2.0000000000
Ni      0.0000000000    -1.4185809440     2.0000000000
Ni     -7.3719000000    -1.4185809440     2.0000000000
Ni      3.6855814050     0.7092904720     2.0000000000
Ni     -3.6863185950     0.7092904720     2.0000000000
Ni      4.9141085400     2.8371618880     2.0000000000
Ni     -2.4577914600     2.8371618880     2.0000000000
Ni      2.4570542700    -1.4185809440     2.0000000000
Ni     -4.9148457300    -1.4185809440     2.0000000000
Ni      6.1433728650     0.7092904720     2.0000000000
Ni     -1.2285271350     0.7092904720     2.0000000000
Ni      7.3719000000     2.8371618880     2.0000000000
Ni      0.0000000000     2.8371618880     2.0000000000
Ni      4.9148457300    -1.4185809440     2.0000000000
Ni     -2.4570542700    -1.4185809440     2.0000000000
Ni      0.0345187234    -0.0219895959     3.9906686506
Ni     -7.3332872529    -0.0205271350     3.9970929970
Ni      1.2574298371     2.1090479016     3.9981086770
Ni     -6.1061214153     2.1042281316     4.0017605185
Ni     -1.1958375155    -2.1495425789     3.9888614873
Ni     -8.5615731291    -2.1597422030     3.9935633301
Ni      2.4909200515    -0.0209290578     3.9889124626
Ni     -4.8775455868    -0.0288695998     4.0155932973
Ni      3.7235299523     2.1102350339     3.9932622384
Ni     -3.6483031855     2.1055811522     4.0174271749
Ni      1.2597529797    -2.1544756242     3.9969618463
Ni     -6.1074652262    -2.1506208434     4.0019689283
Ni      4.9550771908    -0.0234645643     3.9935565644
Ni     -2.4269867653    -0.0199772708     3.9982338911
Ni      6.1741097051     2.1083418571     4.0046158614
Ni     -1.1996729370     2.1123145435     4.0000024585
Ni      3.7197951829    -2.1539414756     3.9921760547
Ni     -3.6589301935    -2.1514998115     3.9994955107
Ni      1.2136841869     0.7163863979     5.9963073096
Ni     -6.1473437226     0.7096773911     6.0218176054
Ni      2.4453295017     2.8415084524     5.9971730433
Ni     -4.9231971923     2.8360653972     6.0327934449
Ni     -0.0226348385    -1.4110330430     6.0020236029
Ni     -7.3908667378    -1.4145678834     5.9981301391
Ni      3.6669417345     0.7157583701     5.9869138182
Ni     -3.7108784987     0.7190435175     6.0328517480
Ni      4.9057976617     2.8388244163     6.0411982092
Ni     -2.4814248435     2.8298458387     6.0521186228
Ni      2.4355069788    -1.4085502466     5.9888639843
Ni     -4.9252928465    -1.4026264080     6.0548563839
Ni      6.1341025786     0.7315238745     6.0218817427
Ni     -1.2402669783     0.7221835538     5.9926808095
Ni      7.3408175190     2.8291688103     6.0248565089
Ni     -0.0225097209     2.8466795557     6.0142376281
Ni      4.9088271165    -1.4251457534     5.9900387779
Ni     -2.4790699264    -1.4211153466     5.9913638200
Ni      0.0337137405    -0.0099863123     8.0038502320
Ni     -7.3606520147    -0.0334139511     7.9835827732
Ni      1.2525382386     2.1076756093     8.0014158677
Ni      8.5596645315     2.1514300915     7.9633346422
Ni     -1.1983605499    -2.1613845897     8.0018652759
Ni     -8.5927669864    -2.1264268734     8.0165035337
Ni      2.4708324722    -0.0109047600     8.0065027389
Ni     -4.8995212632    -0.0584838282     8.1493062015
Ni      3.6789469906     2.1047412898     7.9888648741
Ni     -3.6333178494     2.1270714900     8.1546283531
Ni      1.2394335961    -2.1164979174     7.9892760222
Ni     -6.1305722611    -2.1461024656     7.9989212299
Ni      4.9150163145    -0.0283439881     7.9490640309
Ni     -2.3653823178    -0.0601929248     7.9425724452
Ni      6.1349712758     2.1197335004     8.1598232492
Ni     -1.1861990586     2.1067384809     8.0263285947
Ni      3.6953023012    -2.1157302873     7.9694462946
Ni     -3.6468332403    -2.1628724713     8.0264725749
O       5.9486020032     1.9536774433    10.1568983318
H       6.2023593986     1.0444615420    10.4395396161
H       7.6485803319     2.9982816350    10.7947394844
H       2.3841835216    -2.5662265370    10.9995346326
C       6.5922936452     2.8570131008    11.0871865803
O       6.8828593053     0.8516013498    12.3925733789
H      -6.8879959571     0.8254517200    12.3248078773
C       6.4620997723     2.2299052156    12.4710261049
H       5.3979785171     2.1706601767    12.7461907790
C       7.1981974178     3.0342299686    13.5247288963
H       3.2389656514    -2.2859498111    13.4051121917
H       8.2901195875     2.9478942375    13.3576433856
O       6.8260697992     2.5426661176    14.8120038538
H       7.2522042786     3.0948827032    15.4870039972
O      -4.3927237137     1.0982075682     9.5865509607
H      -3.6717371060     0.6667680985    10.0888232085
88
Step 2 | NEB Image 2 | Cartesian Angstrom
Ni      1.2285271350     0.7092904720     2.0000000000
Ni     -6.1433728650     0.7092904720     2.0000000000
Ni      2.4570542700     2.8371618880     2.0000000000
Ni     -4.9148457300     2.8371618880     2.0000000000
Ni      0.0000000000    -1.4185809440     2.0000000000
Ni     -7.3719000000    -1.4185809440     2.0000000000
Ni      3.6855814050     0.7092904720     2.0000000000
Ni     -3.6863185950     0.7092904720     2.0000000000
Ni      4.9141085400     2.8371618880     2.0000000000
Ni     -2.4577914600     2.8371618880     2.0000000000
Ni      2.4570542700    -1.4185809440     2.0000000000
Ni     -4.9148457300    -1.4185809440     2.0000000000
Ni      6.1433728650     0.7092904720     2.0000000000
Ni     -1.2285271350     0.7092904720     2.0000000000
Ni      7.3719000000     2.8371618880     2.0000000000
Ni      0.0000000000     2.8371618880     2.0000000000
Ni      4.9148457300    -1.4185809440     2.0000000000
Ni     -2.4570542700    -1.4185809440     2.0000000000
Ni      0.0375981485    -0.0162174414     3.9938806465
Ni     -7.3177844491    -0.0090916026     4.0036831067
Ni      1.2602104984     2.1172531506     3.9978005682
Ni     -6.1023940149     2.1151422385     4.0222514143
Ni     -1.1920486085    -2.1406321833     3.9906393984
Ni     -8.5532657335    -2.1497501067     4.0000962389
Ni      2.4943618256    -0.0169495236     3.9918463327
Ni     -4.8743396361    -0.0107537277     4.0295417841
Ni      3.7267804268     2.1141480457     3.9953003187
Ni     -3.6396508309     2.1180694817     4.0208104531
Ni      1.2649041428    -2.1483425168     4.0000462014
Ni     -6.0971614674    -2.1378054397     4.0093615987
Ni      4.9638813175    -0.0197989702     3.9970535041
Ni     -2.4241145351    -0.0080402181     4.0037318320
Ni      6.1806750339     2.1141861539     4.0009770176
Ni     -1.1943708530     2.1213604338     4.0019423935
Ni      3.7260317330    -2.1510452350     3.9978573806
Ni     -3.6544866657    -2.1346756848     4.0047465475
Ni      1.2199085097     0.7303479547     5.9971099792
Ni     -6.1176954890     0.7508071757     6.0839126621
Ni      2.4488157832     2.8561481111     5.9918233393
Ni     -4.9162139780     2.8418795701     6.0482874462
Ni     -0.0114573435    -1.4013486755     6.0073007168
Ni     -7.3721600638    -1.3960809805     6.0070743440
Ni      3.6743774822     0.7223400854     5.9875182223
Ni     -3.6939012862     0.7399176546     6.0529573142
Ni      4.9153248469     2.8450872659     6.0403103818
Ni     -2.4662859201     2.8587938886     6.0570702205
Ni      2.4415873183    -1.4029012835     6.0000371283
Ni     -4.9087290392    -1.3639245003     6.0716151238
Ni      6.1493753282     0.7303491731     6.0119559326
Ni     -1.2303080979     0.7380319871     5.9992853120
Ni      7.3512884375     2.8333584584     6.0531159058
Ni     -0.0133408054     2.8721949107     6.0102665606
Ni      4.9128567592    -1.4187230971     5.9960979585
Ni     -2.4635403848    -1.4001525514     6.0003372177
Ni      0.0469115123    -0.0014158813     8.0066357252
Ni     -7.3083483751    -0.0239238165     7.9828369754
Ni      1.2583362985     2.1277770083     7.9988767107
Ni      8.5827227756     2.2168157019     8.1276245117
Ni     -1.1864832736    -2.1436315526     8.0080235937
Ni     -8.5553508678    -2.0901953914     7.9967099560
Ni      2.4648106060     0.0053175626     8.0067406333
Ni     -4.8041417285    -0.0024870167     8.2592769738
Ni      3.6692057684     2.1244180502     7.9820520417
Ni     -3.5752966408     2.1682347568     8.1376228689
Ni      1.2446349132    -2.1230252024     8.0138027424
Ni     -6.0766149845    -2.1018493368     8.0180596839
Ni      4.9070161999    -0.0189195336     7.9553273939
Ni     -2.3443314004    -0.0365523417     7.9675614093
Ni      6.1145068364     2.0933102763     8.1267481143
Ni     -1.1551989455     2.1322386609     8.0181260184
Ni      3.6725899225    -2.0866353941     7.9840282012
Ni     -3.6256193879    -2.1353014600     8.0369802858
O       6.1325037278     1.4731075591    10.0598889199
H       9.0502470556     2.4527715156     9.7111044802
H       8.2003343745     2.3938124143     9.6972758374
H       1.7120213882    -3.2526956663    10.9529927204
C       6.0495077207     2.2510906931    11.0311355930
O       7.4046133786     0.6750997392    12.2209197711
H      -7.5263370670     0.3030537444    11.3280989116
C       6.7435600234     1.9199487388    12.3128525954
H       5.9136741909     1.9101987204    13.0568167651
C       7.6225902685     3.0538336673    12.9379565848
H       3.4809458753    -2.3332598960    12.7787725990
H       8.6210708714     3.0525640304    12.4740642065
O       7.6907860587     2.7670482080    14.3406720968
H       8.2590331273     3.4234997798    14.7796214630
O      -4.0931110534     1.1885791431     9.6941358262
H      -3.3108452859     0.9687999357    10.2389922566
88
Step 3 | NEB Image 3 | Cartesian Angstrom
Ni      1.2285271350     0.7092904720     2.0000000000
Ni     -6.1433728650     0.7092904720     2.0000000000
Ni      2.4570542700     2.8371618880     2.0000000000
Ni     -4.9148457300     2.8371618880     2.0000000000
Ni      0.0000000000    -1.4185809440     2.0000000000
Ni     -7.3719000000    -1.4185809440     2.0000000000
Ni      3.6855814050     0.7092904720     2.0000000000
Ni     -3.6863185950     0.7092904720     2.0000000000
Ni      4.9141085400     2.8371618880     2.0000000000
Ni     -2.4577914600     2.8371618880     2.0000000000
Ni      2.4570542700    -1.4185809440     2.0000000000
Ni     -4.9148457300    -1.4185809440     2.0000000000
Ni      6.1433728650     0.7092904720     2.0000000000
Ni     -1.2285271350     0.7092904720     2.0000000000
Ni      7.3719000000     2.8371618880     2.0000000000
Ni      0.0000000000     2.8371618880     2.0000000000
Ni      4.9148457300    -1.4185809440     2.0000000000
Ni     -2.4570542700    -1.4185809440     2.0000000000
Ni      0.0341985593    -0.0118291873     3.9964438613
Ni     -7.3353322232    -0.0187055404     3.9967419969
Ni      1.2558269210     2.1114996374     3.9969894988
Ni     -6.0985678582     2.1151606660     3.9958430532
Ni     -1.1927749714    -2.1418011774     3.9945030008
Ni     -8.5663347284    -2.1389111166     4.0091445732
Ni      2.4937957261    -0.0070479293     4.0017423782
Ni     -4.8754605058    -0.0185401305     3.9974442179
Ni      3.7196319884     2.1074471332     3.9975645983
Ni     -3.6498495555     2.1168988829     4.0115978060
Ni      1.2662876036    -2.1406285308     3.9916216223
Ni     -6.1109105758    -2.1497644352     4.0050873035
Ni      4.9492489107    -0.0148248918     4.0097905108
Ni     -2.4244241891    -0.0144788251     3.9966097455
Ni      6.1837714639     2.1126959678     3.9961522839
Ni     -1.2022012265     2.1171696560     4.0037565001
Ni      3.7253054849    -2.1332655858     3.9850664279
Ni     -3.6507533596    -2.1484387059     3.9948382702
Ni      1.2140719225     0.7269311692     6.0148502762
Ni     -6.1698531125     0.7199936374     6.0037091093
Ni      2.4322683078     2.8546046770     5.9892916985
Ni     -4.9041675952     2.8539952320     6.0277142248
Ni     -0.0229461670    -1.3952275088     6.0018929710
Ni     -7.3739524406    -1.3844838356     6.0328404966
Ni      3.6837155646     0.7188481771     6.0453460287
Ni     -3.7027217577     0.7421200149     6.0242338236
Ni      4.8922788252     2.8633747123     5.9922537852
Ni     -2.4893844576     2.8413026081     6.0666347626
Ni      2.4388742745    -1.3938301996     5.9988921658
Ni     -4.9255086939    -1.4131259628     6.0040001078
Ni      6.1247359232     0.7225122828     6.0031054801
Ni     -1.2459078921     0.7299839054     6.0036580937
Ni      7.3663428270     2.8673876813     5.9796850522
Ni     -0.0255299612     2.8526259257     6.0139790721
Ni      4.9134684914    -1.3849165409     6.0361981805
Ni     -2.4851615260    -1.4018021812     6.0005205527
Ni     -0.0004148069     0.0109049255     8.0116971510
Ni     -7.3530068584     0.0019072453     8.1040084427
Ni      1.2375589062     2.1317198499     8.0113682040
Ni      8.6201847702     2.1535697257     7.9314197391
Ni     -1.2236560225    -2.1206967651     7.9957171608
Ni     -8.5791315029    -2.1373959555     8.0021579829
Ni      2.4455813686     0.0069815586     8.0277285087
Ni     -4.9009675933    -0.0213546033     7.9689051123
Ni      3.6465366032     2.1727971754     7.9698427449
Ni     -3.6705843705     2.1081090540     8.1803128866
Ni      1.2204152477    -2.0983865140     8.0002739558
Ni     -6.1243323905    -2.1176041392     8.0241902867
Ni      4.8818881164    -0.0198305970     8.1553957548
Ni     -2.4294856056    -0.0165584953     7.9812193407
Ni      6.1587652024     2.1991230496     7.9620741561
Ni     -1.1993961620     2.1245670709     8.0244459513
Ni      3.6874003695    -2.0996808612     7.9893877313
Ni     -3.6753055385    -2.1318197885     8.0184015500
O       6.0754460453     0.9375939730     9.3830749925
H      10.4588982569     2.7549585014    10.5828948105
H       6.7684075226     2.4239060638    10.6514560471
H       1.4318955870    -4.5138371092    10.9900088872
C       6.1236731341     1.5226566792    10.7029963100
O       7.1441674910    -0.4875268387    11.3966624968
H      -7.6466821283    -0.6584830971    10.3881760682
C       6.6751620743     0.6546785963    11.7794635594
H       6.5548130564     3.3845790219    13.0693596975
C       7.5314987028     3.6993722211    13.4594063005
H       3.8950315344    -1.5826572162    13.4663971543
H       8.3113675725     3.3160189458    12.7725936204
O       7.6382965981     3.1449645698    14.7703346695
H       8.3701758206     3.5827005101    15.2333559791
O      -3.9924416259     1.8808566542    10.2584075983
H      -3.1375059308     1.6866193808    10.6878652275
88
Step 4 | NEB Image 4 | Cartesian Angstrom
Ni      1.2285271350     0.7092904720     2.0000000000
Ni     -6.1433728650     0.7092904720     2.0000000000
Ni      2.4570542700     2.8371618880     2.0000000000
Ni     -4.9148457300     2.8371618880     2.0000000000
Ni      0.0000000000    -1.4185809440     2.0000000000
Ni     -7.3719000000    -1.4185809440     2.0000000000
Ni      3.6855814050     0.7092904720     2.0000000000
Ni     -3.6863185950     0.7092904720     2.0000000000
Ni      4.9141085400     2.8371618880     2.0000000000
Ni     -2.4577914600     2.8371618880     2.0000000000
Ni      2.4570542700    -1.4185809440     2.0000000000
Ni     -4.9148457300    -1.4185809440     2.0000000000
Ni      6.1433728650     0.7092904720     2.0000000000
Ni     -1.2285271350     0.7092904720     2.0000000000
Ni      7.3719000000     2.8371618880     2.0000000000
Ni      0.0000000000     2.8371618880     2.0000000000
Ni      4.9148457300    -1.4185809440     2.0000000000
Ni     -2.4570542700    -1.4185809440     2.0000000000
Ni      0.0380392680    -0.0147039621     3.9993241754
Ni     -7.3378394338    -0.0120340266     4.0050440696
Ni      1.2649198043     2.1104631851     3.9983046179
Ni     -6.1042762578     2.1154448584     4.0013768443
Ni     -1.1905195398    -2.1410965548     3.9989150165
Ni     -8.5656661136    -2.1406439146     4.0048191773
Ni      2.4993484772    -0.0108086866     4.0048922349
Ni     -4.8759579402    -0.0127559023     3.9983234083
Ni      3.7254128350     2.1100987462     4.0079468096
Ni     -3.6491941043     2.1165445139     4.0093787492
Ni      1.2663403278    -2.1465224581     4.0016050804
Ni     -6.1070276744    -2.1459629136     4.0006277901
Ni      4.9547040045    -0.0115096118     4.0137810519
Ni     -2.4249497087    -0.0119611383     4.0010187505
Ni      6.1805455257     2.1119179328     4.0089458595
Ni     -1.1967750410     2.1163805402     3.9996688352
Ni      3.7211891563    -2.1390760805     3.9927082033
Ni     -3.6465360769    -2.1442017758     3.9918109537
Ni      1.2148085937     0.7295250129     6.0129200105
Ni     -6.1652111308     0.7154180516     6.0180440263
Ni      2.4414055493     2.8555343183     5.9993451237
Ni     -4.9044800354     2.8506170584     6.0264142158
Ni     -0.0177226912    -1.3981681994     6.0100292511
Ni     -7.3762242068    -1.3814408077     6.0189563679
Ni      3.6863766948     0.7219407060     6.0495226306
Ni     -3.7006872245     0.7472509769     6.0408600099
Ni      4.9069240740     2.8551834499     6.0311531108
Ni     -2.4819255469     2.8547773537     6.0477228682
Ni      2.4360255624    -1.3939317522     6.0061250165
Ni     -4.9199789972    -1.4073317755     6.0003778599
Ni      6.1348774463     0.7271609346     6.0433691229
Ni     -1.2455626829     0.7318259020     6.0018656176
Ni      7.3601813625     2.8563409169     6.0072285263
Ni     -0.0183690170     2.8600854900     6.0029407612
Ni      4.9061143839    -1.3878347607     6.0241118509
Ni     -2.4792588631    -1.3974944229     6.0049539243
Ni      0.0064968217     0.0135628330     8.0129343056
Ni     -7.3338781055     0.0168761162     8.1454198576
Ni      1.2403982057     2.1344938862     8.0095438690
Ni      8.6304904664     2.1535253214     7.9522183217
Ni     -1.2151161003    -2.1204327963     8.0049322996
Ni     -8.5983935943    -2.1421908585     7.9718751564
Ni      2.4502968829     0.0124781109     8.0275725156
Ni     -4.8699492662    -0.0085936409     7.9888976199
Ni      3.6583869173     2.1646382870     7.9985961354
Ni     -3.6568118594     2.1189056136     8.1694547531
Ni      1.2255652010    -2.0996014557     8.0209061345
Ni     -6.1138599090    -2.1147142030     8.0277713885
Ni      4.8901214463    -0.0153446983     8.1237194752
Ni     -2.4172418749    -0.0158352718     7.9961095551
Ni      6.1663044785     2.1981288642     8.0633075941
Ni     -1.1872720317     2.1326417868     7.9978675539
Ni      3.6855032479    -2.1024798406     7.9967033832
Ni     -3.6675379137    -2.1290330818     8.0155731531
O       6.1471241341     0.8021951445     9.4235745927
H      11.0754911463     3.0938782041    10.5557088459
H       6.8933730957     1.8374978917    11.0686726475
H       1.6479159529    -5.4154595978    11.3154005461
C       6.3188309264     0.9237024325    10.8291182380
O       7.7609034145    -1.0803176429    11.0860705922
H      -6.7849202710    -1.0928668958     9.1004408620
C       7.1127815646    -0.1836033854    11.4912192647
H       8.0868005905     4.3005387019    11.7774881954
C       8.3609559510     4.3091586510    12.8409506072
H       3.8681206600    -1.5776787442    13.4023958289
H       9.2893236309     4.8959508455    12.9603922364
O       8.5401623969     2.9457624604    13.2373920699
H       8.6787995309     2.9269668423    14.1985126554
O      -3.6769454344     2.1534409601    10.2815619538
H      -2.7885147896     1.8090754601    10.5007371737
88
Step 5 | NEB Image 5 | Cartesian Angstrom
Ni      1.2285271350     0.7092904720     2.0000000000
Ni     -6.1433728650     0.7092904720     2.0000000000
Ni      2.4570542700     2.8371618880     2.0000000000
Ni     -4.9148457300     2.8371618880     2.0000000000
Ni      0.0000000000    -1.4185809440     2.0000000000
Ni     -7.3719000000    -1.4185809440     2.0000000000
Ni      3.6855814050     0.7092904720     2.0000000000
Ni     -3.6863185950     0.7092904720     2.0000000000
Ni      4.9141085400     2.8371618880     2.0000000000
Ni     -2.4577914600     2.8371618880     2.0000000000
Ni      2.4570542700    -1.4185809440     2.0000000000
Ni     -4.9148457300    -1.4185809440     2.0000000000
Ni      6.1433728650     0.7092904720     2.0000000000
Ni     -1.2285271350     0.7092904720     2.0000000000
Ni      7.3719000000     2.8371618880     2.0000000000
Ni      0.0000000000     2.8371618880     2.0000000000
Ni      4.9148457300    -1.4185809440     2.0000000000
Ni     -2.4570542700    -1.4185809440     2.0000000000
Ni      0.0464326620    -0.0306468460     3.9976675890
Ni     -7.3257303870    -0.0255862300     3.9933782980
Ni      1.2739848450     2.0960038070     3.9979157030
Ni     -6.1026021170     2.1049500680     4.0019149180
Ni     -1.1827110610    -2.1546561820     3.9989053170
Ni     -8.5597082650    -2.1592869340     3.9982394010
Ni      2.5024778430    -0.0256743600     4.0031952220
Ni     -4.8641413240    -0.0227350050     3.9956475690
Ni      3.7346756480     2.0985190290     4.0083618800
Ni     -3.6458198020     2.0991473590     4.0056686860
Ni      1.2703768650    -2.1597674920     4.0015811390
Ni     -6.0933336510    -2.1603781540     3.9902680500
Ni      4.9590538200    -0.0289845540     4.0074783820
Ni     -2.4167678920    -0.0248088220     4.0022401470
Ni      6.1885777810     2.1026461420     4.0098077600
Ni     -1.1844811720     2.0985803670     3.9964394390
Ni      3.7245308300    -2.1560713310     3.9888953010
Ni     -3.6351397940    -2.1574140910     3.9933365850
Ni      1.2278611130     0.7073057200     6.0134419810
Ni     -6.1428898530     0.6957346210     6.0102358510
Ni      2.4563605190     2.8356121920     5.9987058000
Ni     -4.8924583120     2.8187736320     6.0264580820
Ni      0.0002252210    -1.4241376010     6.0155868270
Ni     -7.3667991100    -1.4101212980     5.9895528060
Ni      3.6921281460     0.7008202940     6.0360645010
Ni     -3.6779272240     0.7256007260     6.0512861550
Ni      4.9267336850     2.8309168990     6.0432780270
Ni     -2.4664659500     2.8157315660     6.0151173370
Ni      2.4509011280    -1.4197685090     6.0062316800
Ni     -4.8985683740    -1.4191884620     5.9881596610
Ni      6.1372839650     0.7115480370     6.0073921100
Ni     -1.2256557510     0.7019370040     6.0032560690
Ni      7.3730564330     2.8242126570     6.0269074010
Ni     -0.0034566730     2.8405670140     6.0010880700
Ni      4.9162369820    -1.4189308570     6.0083232610
Ni     -2.4596272260    -1.4182314770     6.0084483810
Ni      0.0277268390    -0.0168450280     8.0180888710
Ni     -7.3091221710    -0.0327920680     8.0371701400
Ni      1.2611452740     2.1078740620     8.0062525300
Ni      8.6667549770     2.1138793650     7.9801313330
Ni     -1.1942402360    -2.1496555940     8.0109921590
Ni     -8.5668484660    -2.1735761150     7.9430911750
Ni      2.4712577410    -0.0190631580     8.0243063390
Ni     -4.8670711400    -0.0431110720     7.9967287920
Ni      3.6750137580     2.1321536040     7.9940007810
Ni     -3.6274773380     2.0999917070     8.2089215290
Ni      1.2517815200    -2.1329879940     8.0267060850
Ni     -6.0785108950    -2.1534189890     7.9361595560
Ni      4.9123316280    -0.0512787390     8.0829089500
Ni     -2.4007725170    -0.0429334740     8.0081832520
Ni      6.1908597070     2.1505617180     8.1094472440
Ni     -1.1654360560     2.0989982700     7.9806126390
Ni      3.7077660390    -2.1419918620     7.9975968800
Ni     -3.6463297530    -2.1524111230     8.0158878220
O       6.1707187590     0.6663307040     9.3727337630
H      11.2555922500     3.1706166680    10.5266232770
H       7.1149227860     1.0824741990    11.1550798120
H       1.6297081310    -5.3793991980    11.2177269450
C       6.2238707100     0.5353136510    10.8108846880
O       7.5718415080    -1.5277099790    10.9241884940
H      -6.8828388710    -1.2337967880    10.0124245870
C       6.2850334910    -0.9302036460    11.2182633770
H       9.1791669060     4.9099545600    10.6626973770
C       9.7467965870     5.2786349730    12.7161077750
H       5.0959169980    -0.6608682970    12.9933131080
H      10.5457770910     5.8077082870    13.2666670860
O       9.6783811350     3.9068622240    13.1006105230
H      10.5447055700     3.5019751520    12.9206205020
O      -3.5153567700     2.2005093110    10.2599052050
H      -2.6227032800     1.8412518110    10.4321503050
