88
Step 1 | NEB Image 1 | Cartesian Angstrom
Ni      1.2285271350     0.7092904720     2.0000000000
Ni     -6.1433728650     0.7092904720     2.0000000000
Ni      2.4570542700     2.8371618880     2.0000000000
Ni     -4.9148457300     2.8371618880     2.0000000000
Ni      0.0000000000    -1.4185809440     2.0000000000
Ni     -7.3719000000    -1.4185809440     2.0000000000
Ni      3.6855814050     0.7092904720     2.0000000000
Ni     -3.6863185950     0.7092904720     2.0000000000
Ni      4.9141085400     2.8371618880     2.0000000000
Ni     -2.4577914600     2.8371618880     2.0000000000
Ni      2.4570542700    -1.4185809440     2.0000000000
Ni     -4.9148457300    -1.4185809440     2.0000000000
Ni      6.1433728650     0.7092904720     2.0000000000
Ni     -1.2285271350     0.7092904720     2.0000000000
Ni      7.3719000000     2.8371618880     2.0000000000
Ni      0.0000000000     2.8371618880     2.0000000000
Ni      4.9148457300    -1.4185809440     2.0000000000
Ni     -2.4570542700    -1.4185809440     2.0000000000
Ni      0.0345187234    -0.0219895959     3.9906686506
Ni     -7.3332872529    -0.0205271350     3.9970929970
Ni      1.2574298371     2.1090479016     3.9981086770
Ni     -6.1061214153     2.1042281316     4.0017605185
Ni     -1.1958375155    -2.1495425789     3.9888614873
Ni     -8.5615731291    -2.1597422030     3.9935633301
Ni      2.4909200515    -0.0209290578     3.9889124626
Ni     -4.8775455868    -0.0288695998     4.0155932973
Ni      3.7235299523     2.1102350339     3.9932622384
Ni     -3.6483031855     2.1055811522     4.0174271749
Ni      1.2597529797    -2.1544756242     3.9969618463
Ni     -6.1074652262    -2.1506208434     4.0019689283
Ni      4.9550771908    -0.0234645643     3.9935565644
Ni     -2.4269867653    -0.0199772708     3.9982338911
Ni      6.1741097051     2.1083418571     4.0046158614
Ni     -1.1996729370     2.1123145435     4.0000024585
Ni      3.7197951829    -2.1539414756     3.9921760547
Ni     -3.6589301935    -2.1514998115     3.9994955107
Ni      1.2136841869     0.7163863979     5.9963073096
Ni     -6.1473437226     0.7096773911     6.0218176054
Ni      2.4453295017     2.8415084524     5.9971730433
Ni     -4.9231971923     2.8360653972     6.0327934449
Ni     -0.0226348385    -1.4110330430     6.0020236029
Ni     -7.3908667378    -1.4145678834     5.9981301391
Ni      3.6669417345     0.7157583701     5.9869138182
Ni     -3.7108784987     0.7190435175     6.0328517480
Ni      4.9057976617     2.8388244163     6.0411982092
Ni     -2.4814248435     2.8298458387     6.0521186228
Ni      2.4355069788    -1.4085502466     5.9888639843
Ni     -4.9252928465    -1.4026264080     6.0548563839
Ni      6.1341025786     0.7315238745     6.0218817427
Ni     -1.2402669783     0.7221835538     5.9926808095
Ni      7.3408175190     2.8291688103     6.0248565089
Ni     -0.0225097209     2.8466795557     6.0142376281
Ni      4.9088271165    -1.4251457534     5.9900387779
Ni     -2.4790699264    -1.4211153466     5.9913638200
Ni      0.0337137405    -0.0099863123     8.0038502320
Ni     -7.3606520147    -0.0334139511     7.9835827732
Ni      1.2525382386     2.1076756093     8.0014158677
Ni      8.5596645315     2.1514300915     7.9633346422
Ni     -1.1983605499    -2.1613845897     8.0018652759
Ni     -8.5927669864    -2.1264268734     8.0165035337
Ni      2.4708324722    -0.0109047600     8.0065027389
Ni     -4.8995212632    -0.0584838282     8.1493062015
Ni      3.6789469906     2.1047412898     7.9888648741
Ni     -3.6333178494     2.1270714900     8.1546283531
Ni      1.2394335961    -2.1164979174     7.9892760222
Ni     -6.1305722611    -2.1461024656     7.9989212299
Ni      4.9150163145    -0.0283439881     7.9490640309
Ni     -2.3653823178    -0.0601929248     7.9425724452
Ni      6.1349712758     2.1197335004     8.1598232492
Ni     -1.1861990586     2.1067384809     8.0263285947
Ni      3.6953023012    -2.1157302873     7.9694462946
Ni     -3.6468332403    -2.1628724713     8.0264725749
O       5.9486020032     1.9536774433    10.1568983318
H       6.2023593986     1.0444615420    10.4395396161
H       7.6485803319     2.9982816350    10.7947394844
H       2.3841835216    -2.5662265370    10.9995346326
C       6.5922936452     2.8570131008    11.0871865803
O       6.8828593053     0.8516013498    12.3925733789
H      -6.8879959571     0.8254517200    12.3248078773
C       6.4620997723     2.2299052156    12.4710261049
H       5.3979785171     2.1706601767    12.7461907790
C       7.1981974178     3.0342299686    13.5247288963
H       3.2389656514    -2.2859498111    13.4051121917
H       8.2901195875     2.9478942375    13.3576433856
O       6.8260697992     2.5426661176    14.8120038538
H       7.2522042786     3.0948827032    15.4870039972
O      -4.3927237137     1.0982075682     9.5865509607
H      -3.6717371060     0.6667680985    10.0888232085
88
Step 2 | NEB Image 2 | Cartesian Angstrom
Ni      1.2285271350     0.7092904720     2.0000000000
Ni     -6.1433728650     0.7092904720     2.0000000000
Ni      2.4570542700     2.8371618880     2.0000000000
Ni     -4.9148457300     2.8371618880     2.0000000000
Ni      0.0000000000    -1.4185809440     2.0000000000
Ni     -7.3719000000    -1.4185809440     2.0000000000
Ni      3.6855814050     0.7092904720     2.0000000000
Ni     -3.6863185950     0.7092904720     2.0000000000
Ni      4.9141085400     2.8371618880     2.0000000000
Ni     -2.4577914600     2.8371618880     2.0000000000
Ni      2.4570542700    -1.4185809440     2.0000000000
Ni     -4.9148457300    -1.4185809440     2.0000000000
Ni      6.1433728650     0.7092904720     2.0000000000
Ni     -1.2285271350     0.7092904720     2.0000000000
Ni      7.3719000000     2.8371618880     2.0000000000
Ni      0.0000000000     2.8371618880     2.0000000000
Ni      4.9148457300    -1.4185809440     2.0000000000
Ni     -2.4570542700    -1.4185809440     2.0000000000
Ni      0.0389401846    -0.0159333335     3.9922619263
Ni     -7.3182712642    -0.0074257131     4.0049567551
Ni      1.2614683680     2.1172389822     3.9967093394
Ni     -6.1037314494     2.1154741770     4.0276103370
Ni     -1.1912131930    -2.1408027768     3.9890622208
Ni     -8.5540485491    -2.1509543373     4.0008005564
Ni      2.4968279063    -0.0176105091     3.9916719123
Ni     -4.8773258149    -0.0102361505     4.0268232769
Ni      3.7289588819     2.1147840209     3.9954458763
Ni     -3.6424315508     2.1188918512     4.0185441175
Ni      1.2651245504    -2.1477234570     3.9993089538
Ni     -6.0993645260    -2.1373070306     4.0055492936
Ni      4.9652360929    -0.0188161243     3.9963152382
Ni     -2.4243829856    -0.0081171120     3.9994237427
Ni      6.1827940054     2.1163118354     4.0048601165
Ni     -1.1952953278     2.1220052812     3.9987816885
Ni      3.7263505228    -2.1539372840     3.9994722195
Ni     -3.6556146989    -2.1349038127     4.0013228594
Ni      1.2216828730     0.7292660993     5.9947041981
Ni     -6.1163753007     0.7518420603     6.0897494830
Ni      2.4505849978     2.8558220206     5.9906498524
Ni     -4.9188608754     2.8411008358     6.0543502585
Ni     -0.0108106133    -1.4008997182     6.0055682100
Ni     -7.3733760438    -1.3941827172     6.0045298600
Ni      3.6752837365     0.7241732118     5.9869571090
Ni     -3.6935045021     0.7384157957     6.0419995569
Ni      4.9181129810     2.8467268626     6.0420215268
Ni     -2.4685076174     2.8585845411     6.0502664076
Ni      2.4442367931    -1.4045261150     5.9989163574
Ni     -4.9105622614    -1.3668468064     6.0634637045
Ni      6.1492228899     0.7329441090     6.0132546583
Ni     -1.2293723602     0.7382449109     5.9922139675
Ni      7.3553480122     2.8308712186     6.0691077978
Ni     -0.0127295220     2.8696855185     6.0056804464
Ni      4.9120208710    -1.4160199153     5.9927327662
Ni     -2.4642588015    -1.4029410124     5.9927706869
Ni      0.0452179362     0.0015545480     8.0028900673
Ni     -7.3145948824    -0.0177253720     7.9831266180
Ni      1.2579345107     2.1278721974     7.9969217722
Ni      8.5728522766     2.2264869364     8.1456102405
Ni     -1.1880183918    -2.1432107439     8.0039229734
Ni     -8.5566447473    -2.0851632428     7.9942846851
Ni      2.4655247434     0.0085238399     8.0044435010
Ni     -4.8142977056    -0.0076150897     8.2399336107
Ni      3.6698262778     2.1272386192     7.9815228698
Ni     -3.5795281870     2.1650796005     8.1307083891
Ni      1.2440917117    -2.1167996151     8.0126852814
Ni     -6.0817766514    -2.1036095861     8.0094367263
Ni      4.9078231450    -0.0127622456     7.9555273978
Ni     -2.3448175703    -0.0394607886     7.9526032678
Ni      6.1116664672     2.1044241294     8.1381481686
Ni     -1.1588061720     2.1319753922     8.0126516952
Ni      3.6747575773    -2.0761186673     7.9868075699
Ni     -3.6283927877    -2.1371437074     8.0284713650
O       6.1214466982     1.5049540189    10.0581931808
H       9.0621559892     2.5472985456     9.6957138782
H       8.2269068068     2.3363881372     9.7330436551
H       1.6630350334    -3.2790564463    11.0329724999
C       6.0046873300     2.2243296401    11.0681863148
O       7.3848646071     0.6205219027    12.2014704563
H      -7.4986400093     0.2943474741    11.2828173885
C       6.7068793919     1.8530806490    12.3332820914
H       5.9015941033     1.8061640595    13.0994690910
C       7.5794496812     3.0066939887    12.9320292149
H       3.4369811812    -2.3892970545    12.7280911142
H       8.5781869586     2.9845302142    12.4699519368
O       7.6438820014     2.7831659221    14.3450923941
H       8.2702672957     3.4141979000    14.7402627937
O      -4.0909199602     1.1467566616     9.6630476152
H      -3.3005576620     0.8841330509    10.1759923958
88
Step 3 | NEB Image 3 | Cartesian Angstrom
Ni      1.2285271350     0.7092904720     2.0000000000
Ni     -6.1433728650     0.7092904720     2.0000000000
Ni      2.4570542700     2.8371618880     2.0000000000
Ni     -4.9148457300     2.8371618880     2.0000000000
Ni      0.0000000000    -1.4185809440     2.0000000000
Ni     -7.3719000000    -1.4185809440     2.0000000000
Ni      3.6855814050     0.7092904720     2.0000000000
Ni     -3.6863185950     0.7092904720     2.0000000000
Ni      4.9141085400     2.8371618880     2.0000000000
Ni     -2.4577914600     2.8371618880     2.0000000000
Ni      2.4570542700    -1.4185809440     2.0000000000
Ni     -4.9148457300    -1.4185809440     2.0000000000
Ni      6.1433728650     0.7092904720     2.0000000000
Ni     -1.2285271350     0.7092904720     2.0000000000
Ni      7.3719000000     2.8371618880     2.0000000000
Ni      0.0000000000     2.8371618880     2.0000000000
Ni      4.9148457300    -1.4185809440     2.0000000000
Ni     -2.4570542700    -1.4185809440     2.0000000000
Ni      0.0318332184    -0.0111219940     3.9964587115
Ni     -7.3383582041    -0.0169437913     3.9992928348
Ni      1.2537143489     2.1127373031     3.9966327585
Ni     -6.1022125439     2.1157258100     3.9970013125
Ni     -1.1959077227    -2.1401918740     3.9948556677
Ni     -8.5688911557    -2.1373950448     4.0089990795
Ni      2.4917886704    -0.0069908680     4.0015229556
Ni     -4.8788106845    -0.0167597850     3.9978883314
Ni      3.7169639304     2.1091922198     3.9978847770
Ni     -3.6529029514     2.1183852402     4.0107202123
Ni      1.2631662365    -2.1403677767     3.9927860926
Ni     -6.1140926694    -2.1473147058     4.0053048541
Ni      4.9478539106    -0.0129538512     4.0103952935
Ni     -2.4273014569    -0.0128968779     3.9964582737
Ni      6.1803429749     2.1130125136     3.9985136059
Ni     -1.2045998298     2.1187662445     4.0028152580
Ni      3.7219995580    -2.1332486829     3.9856441176
Ni     -3.6538478535    -2.1463213931     3.9946114057
Ni      1.2093716150     0.7295840177     6.0134888760
Ni     -6.1741881780     0.7214795713     6.0079168079
Ni      2.4280606107     2.8571764602     5.9898760018
Ni     -4.9103733091     2.8573967996     6.0266690237
Ni     -0.0279305062    -1.3934597090     6.0033576986
Ni     -7.3794240922    -1.3802894877     6.0355501304
Ni      3.6796671287     0.7223308395     6.0435379927
Ni     -3.7078541819     0.7449149312     6.0240173120
Ni      4.8886065200     2.8653326656     5.9965100742
Ni     -2.4944491494     2.8458266439     6.0635187150
Ni      2.4328751678    -1.3916877662     6.0004304226
Ni     -4.9300569865    -1.4104192978     6.0048432560
Ni      6.1224723400     0.7258589768     6.0107932244
Ni     -1.2507995652     0.7327141717     6.0024580285
Ni      7.3606207767     2.8694257953     5.9824387662
Ni     -0.0298710966     2.8559442817     6.0124219229
Ni      4.9066661816    -1.3817329597     6.0338862482
Ni     -2.4901096263    -1.3992500443     6.0010841285
Ni     -0.0043362338     0.0146785283     8.0106576748
Ni     -7.3501752391     0.0044006764     8.1229546081
Ni      1.2313690352     2.1349478529     8.0102292435
Ni      8.6149380457     2.1581524582     7.9326980368
Ni     -1.2291283664    -2.1180650508     7.9974129805
Ni     -8.5864363740    -2.1315725773     7.9989181063
Ni      2.4439343375     0.0128299578     8.0254116943
Ni     -4.9029685295    -0.0196094344     7.9717949984
Ni      3.6419014888     2.1763226913     7.9716504109
Ni     -3.6757881002     2.1119412858     8.1713046641
Ni      1.2149161341    -2.0926949622     8.0043299313
Ni     -6.1292862092    -2.1143525515     8.0253236823
Ni      4.8830363968    -0.0116906605     8.1493294210
Ni     -2.4333664774    -0.0140738368     7.9806913316
Ni      6.1553443606     2.2090628981     7.9738344892
Ni     -1.2048451684     2.1276627054     8.0205146306
Ni      3.6839525408    -2.0925648115     7.9913844788
Ni     -3.6806774425    -2.1297439264     8.0202799576
O       6.0825154474     0.9369534555     9.3839200786
H      10.4745431123     2.7759539782    10.5645788300
H       6.7801658271     2.3655161162    10.7195919470
H       1.4176845570    -4.5359523546    10.9853792653
C       6.1082769573     1.4822926990    10.7201115031
O       7.1356205354    -0.5372188296    11.3799844480
H      -7.6031302930    -0.6714546730    10.3619188523
C       6.6220359627     0.5766889161    11.7855171749
H       6.5106888277     3.3212770681    13.1280703872
C       7.4930796360     3.6570095044    13.4853506518
H       3.8577490724    -1.6263298029    13.4164447691
H       8.2647863448     3.2246301474    12.8189901485
O       7.6128752196     3.1890306468    14.8286847115
H       8.3868241687     3.6108384359    15.2351457637
O      -3.9739384526     1.8984260212    10.2514006507
H      -3.1036126814     1.7276159253    10.6598567786
88
Step 4 | NEB Image 4 | Cartesian Angstrom
Ni      1.2285271350     0.7092904720     2.0000000000
Ni     -6.1433728650     0.7092904720     2.0000000000
Ni      2.4570542700     2.8371618880     2.0000000000
Ni     -4.9148457300     2.8371618880     2.0000000000
Ni      0.0000000000    -1.4185809440     2.0000000000
Ni     -7.3719000000    -1.4185809440     2.0000000000
Ni      3.6855814050     0.7092904720     2.0000000000
Ni     -3.6863185950     0.7092904720     2.0000000000
Ni      4.9141085400     2.8371618880     2.0000000000
Ni     -2.4577914600     2.8371618880     2.0000000000
Ni      2.4570542700    -1.4185809440     2.0000000000
Ni     -4.9148457300    -1.4185809440     2.0000000000
Ni      6.1433728650     0.7092904720     2.0000000000
Ni     -1.2285271350     0.7092904720     2.0000000000
Ni      7.3719000000     2.8371618880     2.0000000000
Ni      0.0000000000     2.8371618880     2.0000000000
Ni      4.9148457300    -1.4185809440     2.0000000000
Ni     -2.4570542700    -1.4185809440     2.0000000000
Ni      0.0400654318    -0.0174386634     3.9983849847
Ni     -7.3377742898    -0.0123634780     4.0015236341
Ni      1.2668252476     2.1092614173     3.9980574051
Ni     -6.1068419498     2.1168265713     4.0010500820
Ni     -1.1880051746    -2.1423882110     3.9978392756
Ni     -8.5652189335    -2.1416986536     4.0045274181
Ni      2.4997585981    -0.0109921046     4.0050998499
Ni     -4.8771173216    -0.0121184592     3.9929431812
Ni      3.7271200557     2.1094303320     4.0087174541
Ni     -3.6535928825     2.1135101153     4.0023487959
Ni      1.2686111798    -2.1474221895     4.0022926079
Ni     -6.1057729144    -2.1470376796     3.9960118407
Ni      4.9539335206    -0.0144244255     4.0125058033
Ni     -2.4253155478    -0.0132741168     3.9994938361
Ni      6.1814711699     2.1133557796     4.0076964236
Ni     -1.1929336564     2.1124548639     3.9937224369
Ni      3.7223057839    -2.1383735332     3.9932726608
Ni     -3.6442447090    -2.1459855225     3.9893582666
Ni      1.2166206355     0.7278836252     6.0132531328
Ni     -6.1614062019     0.7159823553     6.0133219850
Ni      2.4435097218     2.8530924756     5.9993274578
Ni     -4.9018813909     2.8484969958     6.0251467316
Ni     -0.0129349835    -1.4021940442     6.0108143297
Ni     -7.3755764674    -1.3850640651     6.0096909608
Ni      3.6868663072     0.7192848520     6.0501180037
Ni     -3.7006181442     0.7390411789     6.0386553553
Ni      4.9100738983     2.8536629776     6.0341393790
Ni     -2.4771111081     2.8321468370     6.0135918685
Ni      2.4389560149    -1.3949920104     6.0078065406
Ni     -4.9114891446    -1.4046823333     5.9859317290
Ni      6.1299522951     0.7304470712     6.0296715276
Ni     -1.2412901752     0.7232319922     5.9972394617
Ni      7.3612580259     2.8553330357     6.0116040758
Ni     -0.0175910003     2.8575212841     6.0011366091
Ni      4.9101559661    -1.3913789112     6.0290937845
Ni     -2.4728798819    -1.4030763663     6.0008405926
Ni      0.0122935051     0.0048748186     8.0125682534
Ni     -7.3419840585     0.0099058811     8.1013675894
Ni      1.2458451798     2.1299621202     8.0097456294
Ni      8.6397182051     2.1508757345     7.9571558041
Ni     -1.2079788683    -2.1258702909     8.0055813638
Ni     -8.5845309834    -2.1455778442     7.9754363189
Ni      2.4521047681     0.0087038830     8.0298028849
Ni     -4.8749807713    -0.0214174246     7.9914950699
Ni      3.6618958788     2.1594923356     7.9994666204
Ni     -3.6617490106     2.1078734648     8.1586065910
Ni      1.2333347364    -2.1059509330     8.0239846784
Ni     -6.0771017203    -2.1663328076     7.9609218952
Ni      4.8913186605    -0.0200366857     8.1265142245
Ni     -2.4116271411    -0.0263154470     7.9936164509
Ni      6.1662449078     2.1887008325     8.0724071239
Ni     -1.1802049302     2.1122696423     7.9893754438
Ni      3.6888890986    -2.1075860634     7.9988981944
Ni     -3.6541408618    -2.1351598714     8.0112611842
O       6.1409902727     0.7825675938     9.4428607083
H      11.1371467821     3.1196002544    10.4977237883
H       6.8701893970     1.8606678054    11.0697730310
H       1.6290060685    -5.3705681623    11.3323620338
C       6.3006803783     0.9414685128    10.8496028628
O       7.6540669340    -1.1219161704    11.2257774704
H      -6.6806238302    -1.1316883426     9.0042107068
C       7.0595661799    -0.1498282889    11.5578407586
H       8.0715632917     4.3181603907    11.7628628571
C       8.3111488781     4.3072106188    12.8348578213
H       3.8068365239    -1.5831048139    13.3840686434
H       9.2390692866     4.8845691710    12.9921808391
O       8.4670356975     2.9335523875    13.2071322193
H       8.6791616191     2.8971211290    14.1543493285
O      -3.6620631515     2.1684230358    10.2670568193
H      -2.7808062458     1.7980013518    10.4744017013
88
Step 5 | NEB Image 5 | Cartesian Angstrom
Ni      1.2285271350     0.7092904720     2.0000000000
Ni     -6.1433728650     0.7092904720     2.0000000000
Ni      2.4570542700     2.8371618880     2.0000000000
Ni     -4.9148457300     2.8371618880     2.0000000000
Ni      0.0000000000    -1.4185809440     2.0000000000
Ni     -7.3719000000    -1.4185809440     2.0000000000
Ni      3.6855814050     0.7092904720     2.0000000000
Ni     -3.6863185950     0.7092904720     2.0000000000
Ni      4.9141085400     2.8371618880     2.0000000000
Ni     -2.4577914600     2.8371618880     2.0000000000
Ni      2.4570542700    -1.4185809440     2.0000000000
Ni     -4.9148457300    -1.4185809440     2.0000000000
Ni      6.1433728650     0.7092904720     2.0000000000
Ni     -1.2285271350     0.7092904720     2.0000000000
Ni      7.3719000000     2.8371618880     2.0000000000
Ni      0.0000000000     2.8371618880     2.0000000000
Ni      4.9148457300    -1.4185809440     2.0000000000
Ni     -2.4570542700    -1.4185809440     2.0000000000
Ni      0.0464326620    -0.0306468460     3.9976675890
Ni     -7.3257303870    -0.0255862300     3.9933782980
Ni      1.2739848450     2.0960038070     3.9979157030
Ni     -6.1026021170     2.1049500680     4.0019149180
Ni     -1.1827110610    -2.1546561820     3.9989053170
Ni     -8.5597082650    -2.1592869340     3.9982394010
Ni      2.5024778430    -0.0256743600     4.0031952220
Ni     -4.8641413240    -0.0227350050     3.9956475690
Ni      3.7346756480     2.0985190290     4.0083618800
Ni     -3.6458198020     2.0991473590     4.0056686860
Ni      1.2703768650    -2.1597674920     4.0015811390
Ni     -6.0933336510    -2.1603781540     3.9902680500
Ni      4.9590538200    -0.0289845540     4.0074783820
Ni     -2.4167678920    -0.0248088220     4.0022401470
Ni      6.1885777810     2.1026461420     4.0098077600
Ni     -1.1844811720     2.0985803670     3.9964394390
Ni      3.7245308300    -2.1560713310     3.9888953010
Ni     -3.6351397940    -2.1574140910     3.9933365850
Ni      1.2278611130     0.7073057200     6.0134419810
Ni     -6.1428898530     0.6957346210     6.0102358510
Ni      2.4563605190     2.8356121920     5.9987058000
Ni     -4.8924583120     2.8187736320     6.0264580820
Ni      0.0002252210    -1.4241376010     6.0155868270
Ni     -7.3667991100    -1.4101212980     5.9895528060
Ni      3.6921281460     0.7008202940     6.0360645010
Ni     -3.6779272240     0.7256007260     6.0512861550
Ni      4.9267336850     2.8309168990     6.0432780270
Ni     -2.4664659500     2.8157315660     6.0151173370
Ni      2.4509011280    -1.4197685090     6.0062316800
Ni     -4.8985683740    -1.4191884620     5.9881596610
Ni      6.1372839650     0.7115480370     6.0073921100
Ni     -1.2256557510     0.7019370040     6.0032560690
Ni      7.3730564330     2.8242126570     6.0269074010
Ni     -0.0034566730     2.8405670140     6.0010880700
Ni      4.9162369820    -1.4189308570     6.0083232610
Ni     -2.4596272260    -1.4182314770     6.0084483810
Ni      0.0277268390    -0.0168450280     8.0180888710
Ni     -7.3091221710    -0.0327920680     8.0371701400
Ni      1.2611452740     2.1078740620     8.0062525300
Ni      8.6667549770     2.1138793650     7.9801313330
Ni     -1.1942402360    -2.1496555940     8.0109921590
Ni     -8.5668484660    -2.1735761150     7.9430911750
Ni      2.4712577410    -0.0190631580     8.0243063390
Ni     -4.8670711400    -0.0431110720     7.9967287920
Ni      3.6750137580     2.1321536040     7.9940007810
Ni     -3.6274773380     2.0999917070     8.2089215290
Ni      1.2517815200    -2.1329879940     8.0267060850
Ni     -6.0785108950    -2.1534189890     7.9361595560
Ni      4.9123316280    -0.0512787390     8.0829089500
Ni     -2.4007725170    -0.0429334740     8.0081832520
Ni      6.1908597070     2.1505617180     8.1094472440
Ni     -1.1654360560     2.0989982700     7.9806126390
Ni      3.7077660390    -2.1419918620     7.9975968800
Ni     -3.6463297530    -2.1524111230     8.0158878220
O       6.1707187590     0.6663307040     9.3727337630
H      11.2555922500     3.1706166680    10.5266232770
H       7.1149227860     1.0824741990    11.1550798120
H       1.6297081310    -5.3793991980    11.2177269450
C       6.2238707100     0.5353136510    10.8108846880
O       7.5718415080    -1.5277099790    10.9241884940
H      -6.8828388710    -1.2337967880    10.0124245870
C       6.2850334910    -0.9302036460    11.2182633770
H       9.1791669060     4.9099545600    10.6626973770
C       9.7467965870     5.2786349730    12.7161077750
H       5.0959169980    -0.6608682970    12.9933131080
H      10.5457770910     5.8077082870    13.2666670860
O       9.6783811350     3.9068622240    13.1006105230
H      10.5447055700     3.5019751520    12.9206205020
O      -3.5153567700     2.2005093110    10.2599052050
H      -2.6227032800     1.8412518110    10.4321503050
