88
Step 1 | NEB Image 1 | Cartesian Angstrom
Ni      1.2285271350     0.7092904720     2.0000000000
Ni     -6.1433728650     0.7092904720     2.0000000000
Ni      2.4570542700     2.8371618880     2.0000000000
Ni     -4.9148457300     2.8371618880     2.0000000000
Ni      0.0000000000    -1.4185809440     2.0000000000
Ni     -7.3719000000    -1.4185809440     2.0000000000
Ni      3.6855814050     0.7092904720     2.0000000000
Ni     -3.6863185950     0.7092904720     2.0000000000
Ni      4.9141085400     2.8371618880     2.0000000000
Ni     -2.4577914600     2.8371618880     2.0000000000
Ni      2.4570542700    -1.4185809440     2.0000000000
Ni     -4.9148457300    -1.4185809440     2.0000000000
Ni      6.1433728650     0.7092904720     2.0000000000
Ni     -1.2285271350     0.7092904720     2.0000000000
Ni      7.3719000000     2.8371618880     2.0000000000
Ni      0.0000000000     2.8371618880     2.0000000000
Ni      4.9148457300    -1.4185809440     2.0000000000
Ni     -2.4570542700    -1.4185809440     2.0000000000
Ni      0.0345187234    -0.0219895959     3.9906686506
Ni     -7.3332872529    -0.0205271350     3.9970929970
Ni      1.2574298371     2.1090479016     3.9981086770
Ni     -6.1061214153     2.1042281316     4.0017605185
Ni     -1.1958375155    -2.1495425789     3.9888614873
Ni     -8.5615731291    -2.1597422030     3.9935633301
Ni      2.4909200515    -0.0209290578     3.9889124626
Ni     -4.8775455868    -0.0288695998     4.0155932973
Ni      3.7235299523     2.1102350339     3.9932622384
Ni     -3.6483031855     2.1055811522     4.0174271749
Ni      1.2597529797    -2.1544756242     3.9969618463
Ni     -6.1074652262    -2.1506208434     4.0019689283
Ni      4.9550771908    -0.0234645643     3.9935565644
Ni     -2.4269867653    -0.0199772708     3.9982338911
Ni      6.1741097051     2.1083418571     4.0046158614
Ni     -1.1996729370     2.1123145435     4.0000024585
Ni      3.7197951829    -2.1539414756     3.9921760547
Ni     -3.6589301935    -2.1514998115     3.9994955107
Ni      1.2136841869     0.7163863979     5.9963073096
Ni     -6.1473437226     0.7096773911     6.0218176054
Ni      2.4453295017     2.8415084524     5.9971730433
Ni     -4.9231971923     2.8360653972     6.0327934449
Ni     -0.0226348385    -1.4110330430     6.0020236029
Ni     -7.3908667378    -1.4145678834     5.9981301391
Ni      3.6669417345     0.7157583701     5.9869138182
Ni     -3.7108784987     0.7190435175     6.0328517480
Ni      4.9057976617     2.8388244163     6.0411982092
Ni     -2.4814248435     2.8298458387     6.0521186228
Ni      2.4355069788    -1.4085502466     5.9888639843
Ni     -4.9252928465    -1.4026264080     6.0548563839
Ni      6.1341025786     0.7315238745     6.0218817427
Ni     -1.2402669783     0.7221835538     5.9926808095
Ni      7.3408175190     2.8291688103     6.0248565089
Ni     -0.0225097209     2.8466795557     6.0142376281
Ni      4.9088271165    -1.4251457534     5.9900387779
Ni     -2.4790699264    -1.4211153466     5.9913638200
Ni      0.0337137405    -0.0099863123     8.0038502320
Ni     -7.3606520147    -0.0334139511     7.9835827732
Ni      1.2525382386     2.1076756093     8.0014158677
Ni      8.5596645315     2.1514300915     7.9633346422
Ni     -1.1983605499    -2.1613845897     8.0018652759
Ni     -8.5927669864    -2.1264268734     8.0165035337
Ni      2.4708324722    -0.0109047600     8.0065027389
Ni     -4.8995212632    -0.0584838282     8.1493062015
Ni      3.6789469906     2.1047412898     7.9888648741
Ni     -3.6333178494     2.1270714900     8.1546283531
Ni      1.2394335961    -2.1164979174     7.9892760222
Ni     -6.1305722611    -2.1461024656     7.9989212299
Ni      4.9150163145    -0.0283439881     7.9490640309
Ni     -2.3653823178    -0.0601929248     7.9425724452
Ni      6.1349712758     2.1197335004     8.1598232492
Ni     -1.1861990586     2.1067384809     8.0263285947
Ni      3.6953023012    -2.1157302873     7.9694462946
Ni     -3.6468332403    -2.1628724713     8.0264725749
O       5.9486020032     1.9536774433    10.1568983318
H       6.2023593986     1.0444615420    10.4395396161
H       7.6485803319     2.9982816350    10.7947394844
H       2.3841835216    -2.5662265370    10.9995346326
C       6.5922936452     2.8570131008    11.0871865803
O       6.8828593053     0.8516013498    12.3925733789
H      -6.8879959571     0.8254517200    12.3248078773
C       6.4620997723     2.2299052156    12.4710261049
H       5.3979785171     2.1706601767    12.7461907790
C       7.1981974178     3.0342299686    13.5247288963
H       3.2389656514    -2.2859498111    13.4051121917
H       8.2901195875     2.9478942375    13.3576433856
O       6.8260697992     2.5426661176    14.8120038538
H       7.2522042786     3.0948827032    15.4870039972
O      -4.3927237137     1.0982075682     9.5865509607
H      -3.6717371060     0.6667680985    10.0888232085
88
Step 2 | NEB Image 2 | Cartesian Angstrom
Ni      1.2285271350     0.7092904720     2.0000000000
Ni     -6.1433728650     0.7092904720     2.0000000000
Ni      2.4570542700     2.8371618880     2.0000000000
Ni     -4.9148457300     2.8371618880     2.0000000000
Ni      0.0000000000    -1.4185809440     2.0000000000
Ni     -7.3719000000    -1.4185809440     2.0000000000
Ni      3.6855814050     0.7092904720     2.0000000000
Ni     -3.6863185950     0.7092904720     2.0000000000
Ni      4.9141085400     2.8371618880     2.0000000000
Ni     -2.4577914600     2.8371618880     2.0000000000
Ni      2.4570542700    -1.4185809440     2.0000000000
Ni     -4.9148457300    -1.4185809440     2.0000000000
Ni      6.1433728650     0.7092904720     2.0000000000
Ni     -1.2285271350     0.7092904720     2.0000000000
Ni      7.3719000000     2.8371618880     2.0000000000
Ni      0.0000000000     2.8371618880     2.0000000000
Ni      4.9148457300    -1.4185809440     2.0000000000
Ni     -2.4570542700    -1.4185809440     2.0000000000
Ni      0.0360942218    -0.0139081277     3.9930317465
Ni     -7.3217796548    -0.0061324873     4.0059935736
Ni      1.2587895753     2.1183807782     3.9973455969
Ni     -6.1063274500     2.1167300025     4.0304727177
Ni     -1.1940412142    -2.1391841185     3.9895292458
Ni     -8.5576412869    -2.1492305220     4.0032493642
Ni      2.4945998151    -0.0159778049     3.9934884946
Ni     -4.8809482924    -0.0085613083     4.0261677927
Ni      3.7270310106     2.1160653292     3.9966710338
Ni     -3.6468853542     2.1209163624     4.0199563485
Ni      1.2626970925    -2.1453904521     3.9992506250
Ni     -6.1036275660    -2.1363326548     4.0056671636
Ni      4.9619456562    -0.0170631876     3.9977548882
Ni     -2.4277880274    -0.0066927632     3.9989544131
Ni      6.1816120831     2.1180965827     4.0063064158
Ni     -1.1991977312     2.1231246405     3.9986185783
Ni      3.7241990404    -2.1526860096     4.0011966951
Ni     -3.6588987503    -2.1337998338     4.0010161476
Ni      1.2165458048     0.7314724559     5.9965240827
Ni     -6.1222358071     0.7541968709     6.0958569379
Ni      2.4447595077     2.8588593463     5.9903365669
Ni     -4.9259609950     2.8434203569     6.0617526344
Ni     -0.0154108799    -1.3982232554     6.0061385713
Ni     -7.3794974980    -1.3908405675     6.0091057467
Ni      3.6711948240     0.7266666898     5.9911914335
Ni     -3.6996624484     0.7412402737     6.0430479939
Ni      4.9143316897     2.8504550796     6.0404521262
Ni     -2.4748851495     2.8615242043     6.0506264891
Ni      2.4405503425    -1.4030059478     6.0012334931
Ni     -4.9170069543    -1.3643549162     6.0613827862
Ni      6.1429495648     0.7344670056     6.0147086770
Ni     -1.2357880733     0.7401982623     5.9929118239
Ni      7.3553668109     2.8320778842     6.0756965220
Ni     -0.0184769347     2.8718538132     6.0052540062
Ni      4.9070523385    -1.4107164669     5.9976801002
Ni     -2.4701961773    -1.3994163229     5.9926471493
Ni      0.0363543507     0.0063411198     8.0034146723
Ni     -7.3186992184    -0.0125981505     7.9893965624
Ni      1.2516648231     2.1314532966     7.9974204528
Ni      8.5663128176     2.2322089435     8.1786583425
Ni     -1.1969858606    -2.1378883601     8.0026032057
Ni     -8.5648106932    -2.0817359222     8.0018016613
Ni      2.4588882335     0.0120053985     8.0066049272
Ni     -4.8155480900     0.0083689250     8.2477707918
Ni      3.6639365302     2.1340547212     7.9803785782
Ni     -3.5889798024     2.1735700250     8.1318693841
Ni      1.2365112451    -2.1119583811     8.0153139155
Ni     -6.0882017213    -2.0969104135     8.0105721208
Ni      4.8996586765    -0.0077557842     7.9660648968
Ni     -2.3560855478    -0.0338017909     7.9553210813
Ni      6.1092767564     2.1155166961     8.1296561982
Ni     -1.1661411111     2.1368495105     8.0109038716
Ni      3.6704052270    -2.0728596837     7.9929034370
Ni     -3.6379922156    -2.1315950589     8.0277081352
O       6.1239476207     1.4282555318    10.0209652931
H       9.0598783979     2.6310639444     9.7230039661
H       8.2507551163     2.2771102360     9.7976183344
H       1.5007191784    -3.5257288469    11.1010827937
C       5.9434398346     2.0673418592    11.0766040505
O       7.3588601241     0.4709535800    12.1375758774
H      -7.4919806519     0.1863484622    11.1950204962
C       6.6856395511     1.7071859931    12.3194045040
H       5.9209993165     1.6934833535    13.1260954683
C       7.5364146595     2.9212768532    12.9399901762
H       3.4079086004    -2.4720835246    12.7058238042
H       8.5471351143     2.8868302107    12.5168211478
O       7.5552017323     2.7655460722    14.3691825699
H       8.2037593542     3.3873969224    14.7497092111
O      -4.0611454263     1.1943745287     9.6905773018
H      -3.2491819236     0.9688056866    10.1891280400
88
Step 3 | NEB Image 3 | Cartesian Angstrom
Ni      1.2285271350     0.7092904720     2.0000000000
Ni     -6.1433728650     0.7092904720     2.0000000000
Ni      2.4570542700     2.8371618880     2.0000000000
Ni     -4.9148457300     2.8371618880     2.0000000000
Ni      0.0000000000    -1.4185809440     2.0000000000
Ni     -7.3719000000    -1.4185809440     2.0000000000
Ni      3.6855814050     0.7092904720     2.0000000000
Ni     -3.6863185950     0.7092904720     2.0000000000
Ni      4.9141085400     2.8371618880     2.0000000000
Ni     -2.4577914600     2.8371618880     2.0000000000
Ni      2.4570542700    -1.4185809440     2.0000000000
Ni     -4.9148457300    -1.4185809440     2.0000000000
Ni      6.1433728650     0.7092904720     2.0000000000
Ni     -1.2285271350     0.7092904720     2.0000000000
Ni      7.3719000000     2.8371618880     2.0000000000
Ni      0.0000000000     2.8371618880     2.0000000000
Ni      4.9148457300    -1.4185809440     2.0000000000
Ni     -2.4570542700    -1.4185809440     2.0000000000
Ni      0.0293278109    -0.0089003226     3.9967246808
Ni     -7.3421194154    -0.0132065467     3.9998539298
Ni      1.2521565432     2.1151263428     3.9967065124
Ni     -6.1062986363     2.1188722813     3.9973478947
Ni     -1.1985757467    -2.1373776982     3.9953216377
Ni     -8.5721670727    -2.1354032992     4.0077998192
Ni      2.4893826019    -0.0046780961     4.0014860398
Ni     -4.8820257598    -0.0132584552     3.9977071087
Ni      3.7147189666     2.1126650390     3.9988569464
Ni     -3.6562702135     2.1204232623     4.0102849180
Ni      1.2600242648    -2.1382883104     3.9940294607
Ni     -6.1165686888    -2.1441489194     4.0037355076
Ni      4.9452261338    -0.0095114775     4.0107377718
Ni     -2.4307557863    -0.0101918499     3.9972192434
Ni      6.1767153743     2.1159051991     4.0002636759
Ni     -1.2065581909     2.1208801272     4.0019811564
Ni      3.7179671744    -2.1313394005     3.9856409027
Ni     -3.6560546940    -2.1434022152     3.9942934553
Ni      1.2037850891     0.7342743291     6.0137044262
Ni     -6.1793067212     0.7250414453     6.0094073634
Ni      2.4243101389     2.8617494038     5.9911643895
Ni     -4.9153372561     2.8599068035     6.0272239071
Ni     -0.0319810880    -1.3896312582     6.0047015402
Ni     -7.3853961624    -1.3757832216     6.0319664367
Ni      3.6737702639     0.7275646046     6.0428248451
Ni     -3.7127952788     0.7506657051     6.0282458960
Ni      4.8854369921     2.8689737620     6.0020758939
Ni     -2.4990674235     2.8513732689     6.0577321673
Ni      2.4274313585    -1.3872361855     6.0013784503
Ni     -4.9342449189    -1.4050436011     6.0037408777
Ni      6.1178784246     0.7323169236     6.0149081931
Ni     -1.2565481021     0.7363996839     6.0023337872
Ni      7.3551828153     2.8717047412     5.9863589812
Ni     -0.0337492380     2.8611513879     6.0109064467
Ni      4.8999334079    -1.3793067432     6.0291149916
Ni     -2.4945783926    -1.3941408409     6.0022901086
Ni     -0.0116905396     0.0209715117     8.0111343150
Ni     -7.3529797298     0.0038120910     8.1292824379
Ni      1.2248896652     2.1412176288     8.0104399592
Ni      8.6117892086     2.1605259435     7.9373549617
Ni     -1.2352531655    -2.1122661671     7.9987005630
Ni     -8.5949256171    -2.1283659692     7.9913113046
Ni      2.4368694157     0.0196777664     8.0256854090
Ni     -4.9084298399    -0.0128237144     7.9754193570
Ni      3.6359097829     2.1808455972     7.9749781014
Ni     -3.6811351346     2.1188958883     8.1779632799
Ni      1.2080932096    -2.0855997377     8.0077975714
Ni     -6.1338508708    -2.1099890757     8.0191877065
Ni      4.8762930296    -0.0096624931     8.1361551130
Ni     -2.4407307477    -0.0081638286     7.9852186877
Ni      6.1507152435     2.2216715054     7.9917513451
Ni     -1.2105659267     2.1335659589     8.0147785463
Ni      3.6773781896    -2.0876060091     7.9916117220
Ni     -3.6874214782    -2.1236463771     8.0204082998
O       6.0791188620     0.9171592355     9.3669762973
H      10.5907844444     2.8868918665    10.5692210679
H       6.7354351661     2.2047096958    10.8547651836
H       1.3807496290    -4.7587952308    11.0368387780
C       6.0827149456     1.3153292277    10.7469778254
O       7.1480196988    -0.7460577652    11.2282654313
H      -7.5370214002    -0.7971957876    10.1882938843
C       6.5955003591     0.3081387577    11.7202755468
H       6.4768239396     3.2436422366    13.1981310518
C       7.4631582646     3.6100025251    13.5119266312
H       3.8261921936    -1.6849866927    13.3391894999
H       8.2289898620     3.1162168420    12.8850515196
O       7.5959967161     3.2732737671    14.8924477134
H       8.4159622759     3.6699130153    15.2282401321
O      -3.8903257090     1.9917083148    10.2760486503
H      -2.9911476838     1.8388196551    10.6261588950
88
Step 4 | NEB Image 4 | Cartesian Angstrom
Ni      1.2285271350     0.7092904720     2.0000000000
Ni     -6.1433728650     0.7092904720     2.0000000000
Ni      2.4570542700     2.8371618880     2.0000000000
Ni     -4.9148457300     2.8371618880     2.0000000000
Ni      0.0000000000    -1.4185809440     2.0000000000
Ni     -7.3719000000    -1.4185809440     2.0000000000
Ni      3.6855814050     0.7092904720     2.0000000000
Ni     -3.6863185950     0.7092904720     2.0000000000
Ni      4.9141085400     2.8371618880     2.0000000000
Ni     -2.4577914600     2.8371618880     2.0000000000
Ni      2.4570542700    -1.4185809440     2.0000000000
Ni     -4.9148457300    -1.4185809440     2.0000000000
Ni      6.1433728650     0.7092904720     2.0000000000
Ni     -1.2285271350     0.7092904720     2.0000000000
Ni      7.3719000000     2.8371618880     2.0000000000
Ni      0.0000000000     2.8371618880     2.0000000000
Ni      4.9148457300    -1.4185809440     2.0000000000
Ni     -2.4570542700    -1.4185809440     2.0000000000
Ni      0.0404916803    -0.0231206098     3.9974121535
Ni     -7.3409674016    -0.0205645920     4.0036128533
Ni      1.2631797011     2.1032581537     3.9975167469
Ni     -6.1070313065     2.1064258497     3.9984314909
Ni     -1.1899773463    -2.1505778293     3.9976127205
Ni     -8.5681636170    -2.1475688549     4.0031580619
Ni      2.4987996266    -0.0205956601     4.0047983086
Ni     -4.8761174827    -0.0228539690     3.9917448735
Ni      3.7252167690     2.0994801265     4.0070359961
Ni     -3.6553092173     2.1114416155     3.9890753888
Ni      1.2637085106    -2.1543489919     4.0011159108
Ni     -6.1100766907    -2.1530754138     3.9966385392
Ni      4.9506846903    -0.0229615601     4.0122960118
Ni     -2.4206148485    -0.0230147301     3.9922737468
Ni      6.1799880451     2.1043489987     4.0087254006
Ni     -1.1952220711     2.1075543342     3.9919982429
Ni      3.7198796872    -2.1505733252     3.9919397849
Ni     -3.6491173665    -2.1522226383     3.9937619367
Ni      1.2144208509     0.7156405229     6.0113785558
Ni     -6.1605774231     0.7080327909     6.0123893683
Ni      2.4410305932     2.8402858876     5.9976249931
Ni     -4.9045021344     2.8330855746     6.0228646309
Ni     -0.0209831224    -1.4140099063     6.0103132785
Ni     -7.3781733319    -1.3975490980     6.0132351115
Ni      3.6831755490     0.7054391277     6.0513205083
Ni     -3.6844455371     0.7327583321     6.0104970792
Ni      4.9073451137     2.8403749992     6.0340505817
Ni     -2.4753903689     2.8363772285     6.0192336024
Ni      2.4322086308    -1.4114553830     6.0047314198
Ni     -4.9174656236    -1.4151878681     5.9946948289
Ni      6.1285724480     0.7142065960     6.0363958765
Ni     -1.2352913633     0.7138182906     5.9928039449
Ni      7.3598515549     2.8363863208     6.0165603842
Ni     -0.0182712507     2.8494803631     6.0032774834
Ni      4.9005387607    -1.4038247629     6.0246097220
Ni     -2.4774867711    -1.4136675203     6.0045637055
Ni      0.0178897686    -0.0107909728     8.0127734586
Ni     -7.3266224716    -0.0079584932     8.1047685657
Ni      1.2439741127     2.1117510113     8.0104310382
Ni      8.6361779160     2.1459185950     7.9663049128
Ni     -1.2135222515    -2.1448847127     8.0120668058
Ni     -8.5945351252    -2.1505852622     7.9630563986
Ni      2.4497059136    -0.0086143601     8.0282619425
Ni     -4.8592275594    -0.0226366621     7.9987267435
Ni      3.6569921978     2.1404020090     7.9994506975
Ni     -3.6441125555     2.1276452026     8.1391263477
Ni      1.2219304104    -2.1238770659     8.0231487018
Ni     -6.0982291986    -2.1539490180     7.9968438514
Ni      4.8974140791    -0.0427106429     8.1300515826
Ni     -2.3979696173    -0.0293797865     7.9885574311
Ni      6.1603833754     2.1666023132     8.0806519397
Ni     -1.1761211654     2.1062488254     7.9844481116
Ni      3.6751161138    -2.1244263749     7.9947450756
Ni     -3.6435532293    -2.1493094025     8.0205249720
O       6.1342820137     0.7513753376     9.4431899318
H      11.2324935747     3.1632130320    10.4478192779
H       6.8842953534     1.8196164449    11.0684858244
H       1.5996862965    -5.3312287424    11.3222374776
C       6.2713445576     0.9281476004    10.8474883681
O       7.5247996887    -1.1929565061    11.1731852296
H      -6.0198523805    -0.7546051228     8.9066007164
C       6.9745494765    -0.2018319449    11.5551692054
H       8.0393809726     4.4123806806    11.7238051059
C       8.2187434617     4.3152011011    12.8020610830
H       3.6685009539    -1.6366631843    13.3324297730
H       9.1224489055     4.8904051629    13.0667438579
O       8.3893792912     2.9184667817    13.0641188745
H       8.5834587387     2.8083574966    14.0093955278
O      -3.6179228855     2.2088774863    10.2442510041
H      -2.7489926841     1.8009165097    10.4340587432
88
Step 5 | NEB Image 5 | Cartesian Angstrom
Ni      1.2285271350     0.7092904720     2.0000000000
Ni     -6.1433728650     0.7092904720     2.0000000000
Ni      2.4570542700     2.8371618880     2.0000000000
Ni     -4.9148457300     2.8371618880     2.0000000000
Ni      0.0000000000    -1.4185809440     2.0000000000
Ni     -7.3719000000    -1.4185809440     2.0000000000
Ni      3.6855814050     0.7092904720     2.0000000000
Ni     -3.6863185950     0.7092904720     2.0000000000
Ni      4.9141085400     2.8371618880     2.0000000000
Ni     -2.4577914600     2.8371618880     2.0000000000
Ni      2.4570542700    -1.4185809440     2.0000000000
Ni     -4.9148457300    -1.4185809440     2.0000000000
Ni      6.1433728650     0.7092904720     2.0000000000
Ni     -1.2285271350     0.7092904720     2.0000000000
Ni      7.3719000000     2.8371618880     2.0000000000
Ni      0.0000000000     2.8371618880     2.0000000000
Ni      4.9148457300    -1.4185809440     2.0000000000
Ni     -2.4570542700    -1.4185809440     2.0000000000
Ni      0.0464326620    -0.0306468460     3.9976675890
Ni     -7.3257303870    -0.0255862300     3.9933782980
Ni      1.2739848450     2.0960038070     3.9979157030
Ni     -6.1026021170     2.1049500680     4.0019149180
Ni     -1.1827110610    -2.1546561820     3.9989053170
Ni     -8.5597082650    -2.1592869340     3.9982394010
Ni      2.5024778430    -0.0256743600     4.0031952220
Ni     -4.8641413240    -0.0227350050     3.9956475690
Ni      3.7346756480     2.0985190290     4.0083618800
Ni     -3.6458198020     2.0991473590     4.0056686860
Ni      1.2703768650    -2.1597674920     4.0015811390
Ni     -6.0933336510    -2.1603781540     3.9902680500
Ni      4.9590538200    -0.0289845540     4.0074783820
Ni     -2.4167678920    -0.0248088220     4.0022401470
Ni      6.1885777810     2.1026461420     4.0098077600
Ni     -1.1844811720     2.0985803670     3.9964394390
Ni      3.7245308300    -2.1560713310     3.9888953010
Ni     -3.6351397940    -2.1574140910     3.9933365850
Ni      1.2278611130     0.7073057200     6.0134419810
Ni     -6.1428898530     0.6957346210     6.0102358510
Ni      2.4563605190     2.8356121920     5.9987058000
Ni     -4.8924583120     2.8187736320     6.0264580820
Ni      0.0002252210    -1.4241376010     6.0155868270
Ni     -7.3667991100    -1.4101212980     5.9895528060
Ni      3.6921281460     0.7008202940     6.0360645010
Ni     -3.6779272240     0.7256007260     6.0512861550
Ni      4.9267336850     2.8309168990     6.0432780270
Ni     -2.4664659500     2.8157315660     6.0151173370
Ni      2.4509011280    -1.4197685090     6.0062316800
Ni     -4.8985683740    -1.4191884620     5.9881596610
Ni      6.1372839650     0.7115480370     6.0073921100
Ni     -1.2256557510     0.7019370040     6.0032560690
Ni      7.3730564330     2.8242126570     6.0269074010
Ni     -0.0034566730     2.8405670140     6.0010880700
Ni      4.9162369820    -1.4189308570     6.0083232610
Ni     -2.4596272260    -1.4182314770     6.0084483810
Ni      0.0277268390    -0.0168450280     8.0180888710
Ni     -7.3091221710    -0.0327920680     8.0371701400
Ni      1.2611452740     2.1078740620     8.0062525300
Ni      8.6667549770     2.1138793650     7.9801313330
Ni     -1.1942402360    -2.1496555940     8.0109921590
Ni     -8.5668484660    -2.1735761150     7.9430911750
Ni      2.4712577410    -0.0190631580     8.0243063390
Ni     -4.8670711400    -0.0431110720     7.9967287920
Ni      3.6750137580     2.1321536040     7.9940007810
Ni     -3.6274773380     2.0999917070     8.2089215290
Ni      1.2517815200    -2.1329879940     8.0267060850
Ni     -6.0785108950    -2.1534189890     7.9361595560
Ni      4.9123316280    -0.0512787390     8.0829089500
Ni     -2.4007725170    -0.0429334740     8.0081832520
Ni      6.1908597070     2.1505617180     8.1094472440
Ni     -1.1654360560     2.0989982700     7.9806126390
Ni      3.7077660390    -2.1419918620     7.9975968800
Ni     -3.6463297530    -2.1524111230     8.0158878220
O       6.1707187590     0.6663307040     9.3727337630
H      11.2555922500     3.1706166680    10.5266232770
H       7.1149227860     1.0824741990    11.1550798120
H       1.6297081310    -5.3793991980    11.2177269450
C       6.2238707100     0.5353136510    10.8108846880
O       7.5718415080    -1.5277099790    10.9241884940
H      -6.8828388710    -1.2337967880    10.0124245870
C       6.2850334910    -0.9302036460    11.2182633770
H       9.1791669060     4.9099545600    10.6626973770
C       9.7467965870     5.2786349730    12.7161077750
H       5.0959169980    -0.6608682970    12.9933131080
H      10.5457770910     5.8077082870    13.2666670860
O       9.6783811350     3.9068622240    13.1006105230
H      10.5447055700     3.5019751520    12.9206205020
O      -3.5153567700     2.2005093110    10.2599052050
H      -2.6227032800     1.8412518110    10.4321503050
