88
Step 1 | NEB Image 1 | Cartesian Angstrom
Ni      1.2285271350     0.7092904720     2.0000000000
Ni     -6.1433728650     0.7092904720     2.0000000000
Ni      2.4570542700     2.8371618880     2.0000000000
Ni     -4.9148457300     2.8371618880     2.0000000000
Ni      0.0000000000    -1.4185809440     2.0000000000
Ni     -7.3719000000    -1.4185809440     2.0000000000
Ni      3.6855814050     0.7092904720     2.0000000000
Ni     -3.6863185950     0.7092904720     2.0000000000
Ni      4.9141085400     2.8371618880     2.0000000000
Ni     -2.4577914600     2.8371618880     2.0000000000
Ni      2.4570542700    -1.4185809440     2.0000000000
Ni     -4.9148457300    -1.4185809440     2.0000000000
Ni      6.1433728650     0.7092904720     2.0000000000
Ni     -1.2285271350     0.7092904720     2.0000000000
Ni      7.3719000000     2.8371618880     2.0000000000
Ni      0.0000000000     2.8371618880     2.0000000000
Ni      4.9148457300    -1.4185809440     2.0000000000
Ni     -2.4570542700    -1.4185809440     2.0000000000
Ni      0.0345187234    -0.0219895959     3.9906686506
Ni     -7.3332872529    -0.0205271350     3.9970929970
Ni      1.2574298371     2.1090479016     3.9981086770
Ni     -6.1061214153     2.1042281316     4.0017605185
Ni     -1.1958375155    -2.1495425789     3.9888614873
Ni     -8.5615731291    -2.1597422030     3.9935633301
Ni      2.4909200515    -0.0209290578     3.9889124626
Ni     -4.8775455868    -0.0288695998     4.0155932973
Ni      3.7235299523     2.1102350339     3.9932622384
Ni     -3.6483031855     2.1055811522     4.0174271749
Ni      1.2597529797    -2.1544756242     3.9969618463
Ni     -6.1074652262    -2.1506208434     4.0019689283
Ni      4.9550771908    -0.0234645643     3.9935565644
Ni     -2.4269867653    -0.0199772708     3.9982338911
Ni      6.1741097051     2.1083418571     4.0046158614
Ni     -1.1996729370     2.1123145435     4.0000024585
Ni      3.7197951829    -2.1539414756     3.9921760547
Ni     -3.6589301935    -2.1514998115     3.9994955107
Ni      1.2136841869     0.7163863979     5.9963073096
Ni     -6.1473437226     0.7096773911     6.0218176054
Ni      2.4453295017     2.8415084524     5.9971730433
Ni     -4.9231971923     2.8360653972     6.0327934449
Ni     -0.0226348385    -1.4110330430     6.0020236029
Ni     -7.3908667378    -1.4145678834     5.9981301391
Ni      3.6669417345     0.7157583701     5.9869138182
Ni     -3.7108784987     0.7190435175     6.0328517480
Ni      4.9057976617     2.8388244163     6.0411982092
Ni     -2.4814248435     2.8298458387     6.0521186228
Ni      2.4355069788    -1.4085502466     5.9888639843
Ni     -4.9252928465    -1.4026264080     6.0548563839
Ni      6.1341025786     0.7315238745     6.0218817427
Ni     -1.2402669783     0.7221835538     5.9926808095
Ni      7.3408175190     2.8291688103     6.0248565089
Ni     -0.0225097209     2.8466795557     6.0142376281
Ni      4.9088271165    -1.4251457534     5.9900387779
Ni     -2.4790699264    -1.4211153466     5.9913638200
Ni      0.0337137405    -0.0099863123     8.0038502320
Ni     -7.3606520147    -0.0334139511     7.9835827732
Ni      1.2525382386     2.1076756093     8.0014158677
Ni      8.5596645315     2.1514300915     7.9633346422
Ni     -1.1983605499    -2.1613845897     8.0018652759
Ni     -8.5927669864    -2.1264268734     8.0165035337
Ni      2.4708324722    -0.0109047600     8.0065027389
Ni     -4.8995212632    -0.0584838282     8.1493062015
Ni      3.6789469906     2.1047412898     7.9888648741
Ni     -3.6333178494     2.1270714900     8.1546283531
Ni      1.2394335961    -2.1164979174     7.9892760222
Ni     -6.1305722611    -2.1461024656     7.9989212299
Ni      4.9150163145    -0.0283439881     7.9490640309
Ni     -2.3653823178    -0.0601929248     7.9425724452
Ni      6.1349712758     2.1197335004     8.1598232492
Ni     -1.1861990586     2.1067384809     8.0263285947
Ni      3.6953023012    -2.1157302873     7.9694462946
Ni     -3.6468332403    -2.1628724713     8.0264725749
O       5.9486020032     1.9536774433    10.1568983318
H       6.2023593986     1.0444615420    10.4395396161
H       7.6485803319     2.9982816350    10.7947394844
H       2.3841835216    -2.5662265370    10.9995346326
C       6.5922936452     2.8570131008    11.0871865803
O       6.8828593053     0.8516013498    12.3925733789
H      -6.8879959571     0.8254517200    12.3248078773
C       6.4620997723     2.2299052156    12.4710261049
H       5.3979785171     2.1706601767    12.7461907790
C       7.1981974178     3.0342299686    13.5247288963
H       3.2389656514    -2.2859498111    13.4051121917
H       8.2901195875     2.9478942375    13.3576433856
O       6.8260697992     2.5426661176    14.8120038538
H       7.2522042786     3.0948827032    15.4870039972
O      -4.3927237137     1.0982075682     9.5865509607
H      -3.6717371060     0.6667680985    10.0888232085
88
Step 2 | NEB Image 2 | Cartesian Angstrom
Ni      1.2285271350     0.7092904720     2.0000000000
Ni     -6.1433728650     0.7092904720     2.0000000000
Ni      2.4570542700     2.8371618880     2.0000000000
Ni     -4.9148457300     2.8371618880     2.0000000000
Ni      0.0000000000    -1.4185809440     2.0000000000
Ni     -7.3719000000    -1.4185809440     2.0000000000
Ni      3.6855814050     0.7092904720     2.0000000000
Ni     -3.6863185950     0.7092904720     2.0000000000
Ni      4.9141085400     2.8371618880     2.0000000000
Ni     -2.4577914600     2.8371618880     2.0000000000
Ni      2.4570542700    -1.4185809440     2.0000000000
Ni     -4.9148457300    -1.4185809440     2.0000000000
Ni      6.1433728650     0.7092904720     2.0000000000
Ni     -1.2285271350     0.7092904720     2.0000000000
Ni      7.3719000000     2.8371618880     2.0000000000
Ni      0.0000000000     2.8371618880     2.0000000000
Ni      4.9148457300    -1.4185809440     2.0000000000
Ni     -2.4570542700    -1.4185809440     2.0000000000
Ni      0.0476134074    -0.0293394881     3.9905193455
Ni     -7.3199806173    -0.0195684850     4.0047383623
Ni      1.2695300636     2.1041518457     3.9974380352
Ni     -6.0979239894     2.1022278551     4.0151522710
Ni     -1.1845673101    -2.1556271589     3.9880692749
Ni     -8.5511223320    -2.1646985138     3.9981843710
Ni      2.5050870912    -0.0283770870     3.9914945958
Ni     -4.8742466007    -0.0271618736     4.0195766404
Ni      3.7365302251     2.1033999579     3.9972356208
Ni     -3.6389037858     2.1049246091     4.0163081736
Ni      1.2709297683    -2.1616380852     3.9989981381
Ni     -6.0985850632    -2.1518343312     4.0001052405
Ni      4.9702586939    -0.0276986797     3.9949496709
Ni     -2.4174700372    -0.0237580561     3.9947178753
Ni      6.1874157309     2.1048958872     4.0120248572
Ni     -1.1897655480     2.1082698823     3.9959874238
Ni      3.7311479089    -2.1652027182     3.9974592637
Ni     -3.6511420273    -2.1517197209     3.9971731193
Ni      1.2333161189     0.7067923246     5.9942416410
Ni     -6.1166806930     0.7245468073     6.0635071451
Ni      2.4650018862     2.8319481219     5.9953376648
Ni     -4.9098905986     2.8175855461     6.0492486536
Ni     -0.0031858031    -1.4225409831     6.0029374130
Ni     -7.3669282787    -1.4174244651     5.9997855219
Ni      3.6867129115     0.7058945749     5.9912106180
Ni     -3.6856852720     0.7103904124     6.0240925118
Ni      4.9316321668     2.8262518095     6.0538865166
Ni     -2.4609789543     2.8288873849     6.0451877092
Ni      2.4528011390    -1.4229077280     5.9917854022
Ni     -4.9060916566    -1.4019223302     6.0511241540
Ni      6.1562364508     0.7196930125     6.0280946308
Ni     -1.2185250069     0.7148748346     5.9843762748
Ni      7.3714465787     2.8098106550     6.0617755959
Ni     -0.0016808540     2.8399359327     6.0036076340
Ni      4.9228912576    -1.4296584122     5.9848554365
Ni     -2.4576207693    -1.4317776863     5.9845392306
Ni      0.0601690536    -0.0263990985     8.0002438914
Ni     -7.3096442481    -0.0464945596     7.9833698823
Ni      1.2748313050     2.0979228817     7.9975833167
Ni      8.5948101565     2.1820304524     8.1174927895
Ni     -1.1734491992    -2.1745291570     8.0025430091
Ni     -8.5515166668    -2.1180145051     7.9821245745
Ni      2.4855699790    -0.0204564323     8.0055684960
Ni     -4.8383610646    -0.0597524761     8.1658898042
Ni      3.6930201506     2.0962353656     7.9943074689
Ni     -3.5660658830     2.1057594835     8.1264794399
Ni      1.2589805205    -2.1334210467     8.0049435365
Ni     -6.0855135578    -2.1528574026     8.0006643613
Ni      4.9274208283    -0.0340992952     7.9628926192
Ni     -2.3309392600    -0.0768906043     7.9315560310
Ni      6.1394805497     2.0944912392     8.1745693551
Ni     -1.1474524658     2.0949567357     8.0144565291
Ni      3.7042740059    -2.1049645435     7.9694678196
Ni     -3.6188609519    -2.1743396670     8.0171733001
O       6.2562868568     1.7658782432    10.0848100086
H       9.0421019621     2.3134294307    10.0816671931
H       8.5854326865     2.9240376223     9.8358402987
H       2.0102510700    -2.8807463236    10.9872294478
C       6.1783745943     2.5167805871    11.0723386834
O       7.3499523202     0.7998954153    12.2943074213
H      -7.4578585899     0.5037728846    11.3599529331
C       6.7378752651     2.0691629980    12.3821981177
H       5.8734163475     2.0429466116    13.0809629604
C       7.6444029618     3.1528708032    13.0180936566
H       3.5212098335    -2.2277713254    12.8502128154
H       8.6364233045     3.1218155436    12.5411415009
O       7.7132490247     2.8682540628    14.4155097935
H       8.4414001034     3.3799291905    14.8050447436
O      -4.1745565011     1.0437025941     9.6117420255
H      -3.4349959167     0.6336556618    10.1040219154
88
Step 3 | NEB Image 3 | Cartesian Angstrom
Ni      1.2285271350     0.7092904720     2.0000000000
Ni     -6.1433728650     0.7092904720     2.0000000000
Ni      2.4570542700     2.8371618880     2.0000000000
Ni     -4.9148457300     2.8371618880     2.0000000000
Ni      0.0000000000    -1.4185809440     2.0000000000
Ni     -7.3719000000    -1.4185809440     2.0000000000
Ni      3.6855814050     0.7092904720     2.0000000000
Ni     -3.6863185950     0.7092904720     2.0000000000
Ni      4.9141085400     2.8371618880     2.0000000000
Ni     -2.4577914600     2.8371618880     2.0000000000
Ni      2.4570542700    -1.4185809440     2.0000000000
Ni     -4.9148457300    -1.4185809440     2.0000000000
Ni      6.1433728650     0.7092904720     2.0000000000
Ni     -1.2285271350     0.7092904720     2.0000000000
Ni      7.3719000000     2.8371618880     2.0000000000
Ni      0.0000000000     2.8371618880     2.0000000000
Ni      4.9148457300    -1.4185809440     2.0000000000
Ni     -2.4570542700    -1.4185809440     2.0000000000
Ni      0.0332777350    -0.0161672666     3.9979248498
Ni     -7.3376670868    -0.0242013081     4.0008698352
Ni      1.2546436259     2.1076455038     3.9985072352
Ni     -6.1024095802     2.1091074308     3.9976292763
Ni     -1.1937450230    -2.1464660254     3.9957482457
Ni     -8.5682691227    -2.1409611429     4.0107929338
Ni      2.4920552312    -0.0119114469     4.0030929046
Ni     -4.8783398467    -0.0228168696     3.9984705177
Ni      3.7174481045     2.1035427055     4.0000942297
Ni     -3.6518727038     2.1136032073     4.0105863090
Ni      1.2651680252    -2.1453454006     3.9937671351
Ni     -6.1145747031    -2.1536850168     4.0081488126
Ni      4.9474401001    -0.0175378038     4.0118894033
Ni     -2.4255206185    -0.0185277825     3.9965671244
Ni      6.1801550603     2.1063022233     3.9983466934
Ni     -1.2048318213     2.1141600398     4.0055601452
Ni      3.7231449673    -2.1384248102     3.9878543370
Ni     -3.6532446326    -2.1523765546     3.9954322595
Ni      1.2123434821     0.7205941657     6.0159598605
Ni     -6.1723592661     0.7090504769     6.0090034351
Ni      2.4299219910     2.8476344978     5.9937364845
Ni     -4.9107997004     2.8491356617     6.0228217084
Ni     -0.0258326392    -1.4027492403     6.0039511481
Ni     -7.3759958665    -1.3907518985     6.0458313813
Ni      3.6835903938     0.7125642345     6.0487234854
Ni     -3.7073591999     0.7351639995     6.0202598266
Ni      4.8899946876     2.8542370979     5.9975436292
Ni     -2.4959751176     2.8335300324     6.0739222058
Ni      2.4351553902    -1.4000704263     6.0032846420
Ni     -4.9293790373    -1.4218992802     6.0056167090
Ni      6.1281689528     0.7092050056     6.0143473246
Ni     -1.2477866346     0.7240789068     6.0040177966
Ni      7.3584092951     2.8609163355     5.9805079369
Ni     -0.0298164883     2.8449500533     6.0157524702
Ni      4.9082630177    -1.3893766388     6.0382466913
Ni     -2.4883297076    -1.4091292282     6.0004973720
Ni      0.0022585773    -0.0013445332     8.0125356182
Ni     -7.3253240876    -0.0160923205     8.1485604269
Ni      1.2353492809     2.1203731651     8.0132796926
Ni      8.6135949430     2.1471779647     7.9227053823
Ni     -1.2250692636    -2.1308272741     7.9981733724
Ni     -8.5857288623    -2.1476240844     7.9996073891
Ni      2.4533620940    -0.0016742469     8.0280209593
Ni     -4.8923269148    -0.0374507339     7.9692552739
Ni      3.6495803479     2.1614473616     7.9798925605
Ni     -3.6771877195     2.0973626895     8.1796161724
Ni      1.2221941360    -2.1132108944     8.0014859457
Ni     -6.1232918143    -2.1344891724     8.0348340553
Ni      4.8989945815    -0.0117681139     8.1573687789
Ni     -2.4288026821    -0.0254288303     7.9770627919
Ni      6.1558284902     2.1708085731     7.9620830060
Ni     -1.2030954882     2.1114444268     8.0320246026
Ni      3.6894518452    -2.1066443902     7.9944589319
Ni     -3.6750597078    -2.1452827357     8.0192219238
O       6.1945316998     0.9124877968     9.4249216400
H      10.2251639569     2.5230124166    10.6573866285
H       7.1034442894     2.3780019907    10.6109214901
H       1.6463442350    -4.0790714322    10.7099179515
C       6.2336458574     1.6784949115    10.6557075200
O       7.1989418439    -0.1676820069    11.7479108791
H      -7.3159470488    -0.3857104411    10.7879179360
C       6.5172055307     0.9247848274    11.9106432457
H       6.7249105050     3.4289909574    12.8240692209
C       7.6536949778     3.7199088421    13.3316119268
H       3.9429296974    -1.5813411302    13.5284203075
H       8.5013532095     3.5150827472    12.6468857340
O       7.7409832459     2.9423920623    14.5259722102
H       8.1876797071     3.4683060572    15.2065984092
O      -4.1259419024     1.7255127178    10.2538969384
H      -3.3191375941     1.5100464304    10.7579969860
88
Step 4 | NEB Image 4 | Cartesian Angstrom
Ni      1.2285271350     0.7092904720     2.0000000000
Ni     -6.1433728650     0.7092904720     2.0000000000
Ni      2.4570542700     2.8371618880     2.0000000000
Ni     -4.9148457300     2.8371618880     2.0000000000
Ni      0.0000000000    -1.4185809440     2.0000000000
Ni     -7.3719000000    -1.4185809440     2.0000000000
Ni      3.6855814050     0.7092904720     2.0000000000
Ni     -3.6863185950     0.7092904720     2.0000000000
Ni      4.9141085400     2.8371618880     2.0000000000
Ni     -2.4577914600     2.8371618880     2.0000000000
Ni      2.4570542700    -1.4185809440     2.0000000000
Ni     -4.9148457300    -1.4185809440     2.0000000000
Ni      6.1433728650     0.7092904720     2.0000000000
Ni     -1.2285271350     0.7092904720     2.0000000000
Ni      7.3719000000     2.8371618880     2.0000000000
Ni      0.0000000000     2.8371618880     2.0000000000
Ni      4.9148457300    -1.4185809440     2.0000000000
Ni     -2.4570542700    -1.4185809440     2.0000000000
Ni      0.0352436512    -0.0134501513     3.9982077886
Ni     -7.3385641526    -0.0131278536     4.0003818129
Ni      1.2597639233     2.1120190365     3.9982083348
Ni     -6.1063411602     2.1175182027     3.9991167628
Ni     -1.1934072536    -2.1404468992     3.9978502748
Ni     -8.5695852873    -2.1398098783     4.0038744303
Ni      2.4950335715    -0.0089215016     4.0035749294
Ni     -4.8777628956    -0.0135245946     3.9964751213
Ni      3.7213507516     2.1106755073     4.0052744573
Ni     -3.6530866152     2.1163084173     4.0082621928
Ni      1.2635704506    -2.1434777676     3.9987682152
Ni     -6.1099261758    -2.1463002599     3.9984777033
Ni      4.9501780779    -0.0115138629     4.0122911337
Ni     -2.4265355107    -0.0126691152     3.9988251441
Ni      6.1790589414     2.1143665154     4.0058297277
Ni     -1.1995878117     2.1166118973     3.9999601849
Ni      3.7194728516    -2.1372421978     3.9905769980
Ni     -3.6494716102    -2.1451951507     3.9929464429
Ni      1.2122844610     0.7297964812     6.0135450360
Ni     -6.1671396599     0.7192164526     6.0108988639
Ni      2.4364212215     2.8559717768     5.9979775979
Ni     -4.9092091949     2.8514786837     6.0243943535
Ni     -0.0213305299    -1.3970514436     6.0089905102
Ni     -7.3793996390    -1.3829010836     6.0155025177
Ni      3.6826426514     0.7229140993     6.0486001008
Ni     -3.7020671688     0.7466761232     6.0341065613
Ni      4.8992115253     2.8598347020     6.0221680066
Ni     -2.4888097079     2.8454653142     6.0429136875
Ni      2.4341329155    -1.3927953283     6.0049152383
Ni     -4.9224153289    -1.4063241505     5.9970356373
Ni      6.1254654198     0.7303415751     6.0240540804
Ni     -1.2468057663     0.7296342810     6.0010670320
Ni      7.3587845452     2.8596793027     6.0038134409
Ni     -0.0231414234     2.8585575421     6.0070583863
Ni      4.9041944047    -1.3849702984     6.0249668154
Ni     -2.4830525351    -1.3989929730     6.0039345000
Ni      0.0020753579     0.0133605041     8.0126816252
Ni     -7.3299700477    -0.0132916497     8.1120132872
Ni      1.2372047129     2.1338020351     8.0103448592
Ni      8.6301142158     2.1528559792     7.9495898659
Ni     -1.2206034327    -2.1199746713     8.0040304507
Ni     -8.5882958578    -2.1393201263     7.9710551262
Ni      2.4503265496     0.0126546376     8.0269455808
Ni     -4.8881564889    -0.0176670450     7.9822476711
Ni      3.6531184251     2.1680089518     7.9928102472
Ni     -3.6666375502     2.1166670348     8.1785695359
Ni      1.2234145503    -2.0974858233     8.0169895402
Ni     -6.1151072020    -2.1205114289     7.9916466105
Ni      4.8948587283    -0.0162780253     8.1347382377
Ni     -2.4256046463    -0.0153609952     7.9910391299
Ni      6.1611130287     2.2018627492     8.0463193893
Ni     -1.1955967906     2.1263578488     8.0026412491
Ni      3.6876986135    -2.0989140164     7.9959078776
Ni     -3.6724897509    -2.1297105985     8.0180198551
O       6.1751951801     0.8298921464     9.3890003144
H      10.8959542028     3.0036757012    10.5821551624
H       6.9748564902     1.9458927229    10.9601638287
H       1.7038682380    -5.1852966938    11.2724520306
C       6.3675932051     1.0314574381    10.7984744770
O       7.7902477071    -0.9014982333    10.9167733610
H      -6.9111591288    -0.8575824985     9.7910195661
C       7.1173281587    -0.0280475782    11.5398966906
H       8.2815779802     4.2390122631    11.8221081258
C       8.4330807086     4.3173850342    12.9103138934
H       3.9275785832    -1.4604641719    13.3307512788
H       9.3823518274     4.8446514792    13.0886796760
O       8.4335988727     2.9877705448    13.4486886379
H       9.0856369447     2.9456285152    14.1653462439
O      -3.7548802732     2.0771413303    10.2832268657
H      -2.8502008087     1.8049045274    10.5348087084
88
Step 5 | NEB Image 5 | Cartesian Angstrom
Ni      1.2285271350     0.7092904720     2.0000000000
Ni     -6.1433728650     0.7092904720     2.0000000000
Ni      2.4570542700     2.8371618880     2.0000000000
Ni     -4.9148457300     2.8371618880     2.0000000000
Ni      0.0000000000    -1.4185809440     2.0000000000
Ni     -7.3719000000    -1.4185809440     2.0000000000
Ni      3.6855814050     0.7092904720     2.0000000000
Ni     -3.6863185950     0.7092904720     2.0000000000
Ni      4.9141085400     2.8371618880     2.0000000000
Ni     -2.4577914600     2.8371618880     2.0000000000
Ni      2.4570542700    -1.4185809440     2.0000000000
Ni     -4.9148457300    -1.4185809440     2.0000000000
Ni      6.1433728650     0.7092904720     2.0000000000
Ni     -1.2285271350     0.7092904720     2.0000000000
Ni      7.3719000000     2.8371618880     2.0000000000
Ni      0.0000000000     2.8371618880     2.0000000000
Ni      4.9148457300    -1.4185809440     2.0000000000
Ni     -2.4570542700    -1.4185809440     2.0000000000
Ni      0.0464326620    -0.0306468460     3.9976675890
Ni     -7.3257303870    -0.0255862300     3.9933782980
Ni      1.2739848450     2.0960038070     3.9979157030
Ni     -6.1026021170     2.1049500680     4.0019149180
Ni     -1.1827110610    -2.1546561820     3.9989053170
Ni     -8.5597082650    -2.1592869340     3.9982394010
Ni      2.5024778430    -0.0256743600     4.0031952220
Ni     -4.8641413240    -0.0227350050     3.9956475690
Ni      3.7346756480     2.0985190290     4.0083618800
Ni     -3.6458198020     2.0991473590     4.0056686860
Ni      1.2703768650    -2.1597674920     4.0015811390
Ni     -6.0933336510    -2.1603781540     3.9902680500
Ni      4.9590538200    -0.0289845540     4.0074783820
Ni     -2.4167678920    -0.0248088220     4.0022401470
Ni      6.1885777810     2.1026461420     4.0098077600
Ni     -1.1844811720     2.0985803670     3.9964394390
Ni      3.7245308300    -2.1560713310     3.9888953010
Ni     -3.6351397940    -2.1574140910     3.9933365850
Ni      1.2278611130     0.7073057200     6.0134419810
Ni     -6.1428898530     0.6957346210     6.0102358510
Ni      2.4563605190     2.8356121920     5.9987058000
Ni     -4.8924583120     2.8187736320     6.0264580820
Ni      0.0002252210    -1.4241376010     6.0155868270
Ni     -7.3667991100    -1.4101212980     5.9895528060
Ni      3.6921281460     0.7008202940     6.0360645010
Ni     -3.6779272240     0.7256007260     6.0512861550
Ni      4.9267336850     2.8309168990     6.0432780270
Ni     -2.4664659500     2.8157315660     6.0151173370
Ni      2.4509011280    -1.4197685090     6.0062316800
Ni     -4.8985683740    -1.4191884620     5.9881596610
Ni      6.1372839650     0.7115480370     6.0073921100
Ni     -1.2256557510     0.7019370040     6.0032560690
Ni      7.3730564330     2.8242126570     6.0269074010
Ni     -0.0034566730     2.8405670140     6.0010880700
Ni      4.9162369820    -1.4189308570     6.0083232610
Ni     -2.4596272260    -1.4182314770     6.0084483810
Ni      0.0277268390    -0.0168450280     8.0180888710
Ni     -7.3091221710    -0.0327920680     8.0371701400
Ni      1.2611452740     2.1078740620     8.0062525300
Ni      8.6667549770     2.1138793650     7.9801313330
Ni     -1.1942402360    -2.1496555940     8.0109921590
Ni     -8.5668484660    -2.1735761150     7.9430911750
Ni      2.4712577410    -0.0190631580     8.0243063390
Ni     -4.8670711400    -0.0431110720     7.9967287920
Ni      3.6750137580     2.1321536040     7.9940007810
Ni     -3.6274773380     2.0999917070     8.2089215290
Ni      1.2517815200    -2.1329879940     8.0267060850
Ni     -6.0785108950    -2.1534189890     7.9361595560
Ni      4.9123316280    -0.0512787390     8.0829089500
Ni     -2.4007725170    -0.0429334740     8.0081832520
Ni      6.1908597070     2.1505617180     8.1094472440
Ni     -1.1654360560     2.0989982700     7.9806126390
Ni      3.7077660390    -2.1419918620     7.9975968800
Ni     -3.6463297530    -2.1524111230     8.0158878220
O       6.1707187590     0.6663307040     9.3727337630
H      11.2555922500     3.1706166680    10.5266232770
H       7.1149227860     1.0824741990    11.1550798120
H       1.6297081310    -5.3793991980    11.2177269450
C       6.2238707100     0.5353136510    10.8108846880
O       7.5718415080    -1.5277099790    10.9241884940
H      -6.8828388710    -1.2337967880    10.0124245870
C       6.2850334910    -0.9302036460    11.2182633770
H       9.1791669060     4.9099545600    10.6626973770
C       9.7467965870     5.2786349730    12.7161077750
H       5.0959169980    -0.6608682970    12.9933131080
H      10.5457770910     5.8077082870    13.2666670860
O       9.6783811350     3.9068622240    13.1006105230
H      10.5447055700     3.5019751520    12.9206205020
O      -3.5153567700     2.2005093110    10.2599052050
H      -2.6227032800     1.8412518110    10.4321503050
