88
Step 1 | NEB Image 1 | Cartesian Angstrom
Ni      1.2285271350     0.7092904720     2.0000000000
Ni     -6.1433728650     0.7092904720     2.0000000000
Ni      2.4570542700     2.8371618880     2.0000000000
Ni     -4.9148457300     2.8371618880     2.0000000000
Ni      0.0000000000    -1.4185809440     2.0000000000
Ni     -7.3719000000    -1.4185809440     2.0000000000
Ni      3.6855814050     0.7092904720     2.0000000000
Ni     -3.6863185950     0.7092904720     2.0000000000
Ni      4.9141085400     2.8371618880     2.0000000000
Ni     -2.4577914600     2.8371618880     2.0000000000
Ni      2.4570542700    -1.4185809440     2.0000000000
Ni     -4.9148457300    -1.4185809440     2.0000000000
Ni      6.1433728650     0.7092904720     2.0000000000
Ni     -1.2285271350     0.7092904720     2.0000000000
Ni      7.3719000000     2.8371618880     2.0000000000
Ni      0.0000000000     2.8371618880     2.0000000000
Ni      4.9148457300    -1.4185809440     2.0000000000
Ni     -2.4570542700    -1.4185809440     2.0000000000
Ni      0.0345187234    -0.0219895959     3.9906686506
Ni     -7.3332872529    -0.0205271350     3.9970929970
Ni      1.2574298371     2.1090479016     3.9981086770
Ni     -6.1061214153     2.1042281316     4.0017605185
Ni     -1.1958375155    -2.1495425789     3.9888614873
Ni     -8.5615731291    -2.1597422030     3.9935633301
Ni      2.4909200515    -0.0209290578     3.9889124626
Ni     -4.8775455868    -0.0288695998     4.0155932973
Ni      3.7235299523     2.1102350339     3.9932622384
Ni     -3.6483031855     2.1055811522     4.0174271749
Ni      1.2597529797    -2.1544756242     3.9969618463
Ni     -6.1074652262    -2.1506208434     4.0019689283
Ni      4.9550771908    -0.0234645643     3.9935565644
Ni     -2.4269867653    -0.0199772708     3.9982338911
Ni      6.1741097051     2.1083418571     4.0046158614
Ni     -1.1996729370     2.1123145435     4.0000024585
Ni      3.7197951829    -2.1539414756     3.9921760547
Ni     -3.6589301935    -2.1514998115     3.9994955107
Ni      1.2136841869     0.7163863979     5.9963073096
Ni     -6.1473437226     0.7096773911     6.0218176054
Ni      2.4453295017     2.8415084524     5.9971730433
Ni     -4.9231971923     2.8360653972     6.0327934449
Ni     -0.0226348385    -1.4110330430     6.0020236029
Ni     -7.3908667378    -1.4145678834     5.9981301391
Ni      3.6669417345     0.7157583701     5.9869138182
Ni     -3.7108784987     0.7190435175     6.0328517480
Ni      4.9057976617     2.8388244163     6.0411982092
Ni     -2.4814248435     2.8298458387     6.0521186228
Ni      2.4355069788    -1.4085502466     5.9888639843
Ni     -4.9252928465    -1.4026264080     6.0548563839
Ni      6.1341025786     0.7315238745     6.0218817427
Ni     -1.2402669783     0.7221835538     5.9926808095
Ni      7.3408175190     2.8291688103     6.0248565089
Ni     -0.0225097209     2.8466795557     6.0142376281
Ni      4.9088271165    -1.4251457534     5.9900387779
Ni     -2.4790699264    -1.4211153466     5.9913638200
Ni      0.0337137405    -0.0099863123     8.0038502320
Ni     -7.3606520147    -0.0334139511     7.9835827732
Ni      1.2525382386     2.1076756093     8.0014158677
Ni      8.5596645315     2.1514300915     7.9633346422
Ni     -1.1983605499    -2.1613845897     8.0018652759
Ni     -8.5927669864    -2.1264268734     8.0165035337
Ni      2.4708324722    -0.0109047600     8.0065027389
Ni     -4.8995212632    -0.0584838282     8.1493062015
Ni      3.6789469906     2.1047412898     7.9888648741
Ni     -3.6333178494     2.1270714900     8.1546283531
Ni      1.2394335961    -2.1164979174     7.9892760222
Ni     -6.1305722611    -2.1461024656     7.9989212299
Ni      4.9150163145    -0.0283439881     7.9490640309
Ni     -2.3653823178    -0.0601929248     7.9425724452
Ni      6.1349712758     2.1197335004     8.1598232492
Ni     -1.1861990586     2.1067384809     8.0263285947
Ni      3.6953023012    -2.1157302873     7.9694462946
Ni     -3.6468332403    -2.1628724713     8.0264725749
O       5.9486020032     1.9536774433    10.1568983318
H       6.2023593986     1.0444615420    10.4395396161
H       7.6485803319     2.9982816350    10.7947394844
H       2.3841835216    -2.5662265370    10.9995346326
C       6.5922936452     2.8570131008    11.0871865803
O       6.8828593053     0.8516013498    12.3925733789
H      -6.8879959571     0.8254517200    12.3248078773
C       6.4620997723     2.2299052156    12.4710261049
H       5.3979785171     2.1706601767    12.7461907790
C       7.1981974178     3.0342299686    13.5247288963
H       3.2389656514    -2.2859498111    13.4051121917
H       8.2901195875     2.9478942375    13.3576433856
O       6.8260697992     2.5426661176    14.8120038538
H       7.2522042786     3.0948827032    15.4870039972
O      -4.3927237137     1.0982075682     9.5865509607
H      -3.6717371060     0.6667680985    10.0888232085
88
Step 2 | NEB Image 2 | Cartesian Angstrom
Ni      1.2285271350     0.7092904720     2.0000000000
Ni     -6.1433728650     0.7092904720     2.0000000000
Ni      2.4570542700     2.8371618880     2.0000000000
Ni     -4.9148457300     2.8371618880     2.0000000000
Ni      0.0000000000    -1.4185809440     2.0000000000
Ni     -7.3719000000    -1.4185809440     2.0000000000
Ni      3.6855814050     0.7092904720     2.0000000000
Ni     -3.6863185950     0.7092904720     2.0000000000
Ni      4.9141085400     2.8371618880     2.0000000000
Ni     -2.4577914600     2.8371618880     2.0000000000
Ni      2.4570542700    -1.4185809440     2.0000000000
Ni     -4.9148457300    -1.4185809440     2.0000000000
Ni      6.1433728650     0.7092904720     2.0000000000
Ni     -1.2285271350     0.7092904720     2.0000000000
Ni      7.3719000000     2.8371618880     2.0000000000
Ni      0.0000000000     2.8371618880     2.0000000000
Ni      4.9148457300    -1.4185809440     2.0000000000
Ni     -2.4570542700    -1.4185809440     2.0000000000
Ni      0.0425587440    -0.0231876925     3.9923630815
Ni     -7.3146919170    -0.0144320156     4.0066419225
Ni      1.2648466193     2.1094356045     3.9976513475
Ni     -6.0999651240     2.1082261808     4.0310262895
Ni     -1.1880242412    -2.1488362546     3.9894588801
Ni     -8.5504400196    -2.1589134954     4.0027620428
Ni      2.5020309625    -0.0247568319     3.9935054119
Ni     -4.8754802724    -0.0180800930     4.0284507209
Ni      3.7339265610     2.1075886716     3.9964191302
Ni     -3.6405768596     2.1111429362     4.0210279096
Ni      1.2703946636    -2.1547511432     3.9996005925
Ni     -6.0967517247    -2.1462946004     4.0070836405
Ni      4.9704287754    -0.0254153184     3.9980155695
Ni     -2.4220015247    -0.0164818556     3.9993754142
Ni      6.1885944855     2.1091515954     4.0080544561
Ni     -1.1933902039     2.1136287959     4.0004692929
Ni      3.7314444959    -2.1604439094     4.0007992308
Ni     -3.6535758121    -2.1434123265     4.0020618146
Ni      1.2271466983     0.7169176114     5.9959248105
Ni     -6.1120333753     0.7422708554     6.0934278538
Ni      2.4561369078     2.8432733886     5.9917952049
Ni     -4.9109897365     2.8305282188     6.0598694348
Ni     -0.0053766364    -1.4132993021     6.0037941795
Ni     -7.3674035890    -1.4037379368     6.0060049393
Ni      3.6824113306     0.7140864603     5.9900492679
Ni     -3.6884325998     0.7259273356     6.0433420610
Ni      4.9249857450     2.8354328754     6.0437153277
Ni     -2.4656849243     2.8445108296     6.0565394922
Ni      2.4518497811    -1.4147521577     6.0014882319
Ni     -4.9078211363    -1.3789245583     6.0654054450
Ni      6.1570326262     0.7230416440     6.0194271923
Ni     -1.2253604276     0.7243208679     5.9936668374
Ni      7.3613020752     2.8258607907     6.0713142752
Ni     -0.0096247980     2.8561889374     6.0073674248
Ni      4.9194002548    -1.4246548898     5.9949951377
Ni     -2.4607063063    -1.4154039793     5.9935515059
Ni      0.0504101223    -0.0130892967     8.0027366919
Ni     -7.3056547205    -0.0309988750     7.9911498596
Ni      1.2641635821     2.1155329656     7.9975787585
Ni      8.5786500546     2.2226327981     8.1396203060
Ni     -1.1834581226    -2.1557227629     8.0021841615
Ni     -8.5483236300    -2.0945477099     7.9932693882
Ni      2.4726138860    -0.0003258944     8.0076086104
Ni     -4.8160320912    -0.0199167302     8.2313631772
Ni      3.6797009410     2.1174529261     7.9853580553
Ni     -3.5709767516     2.1417083076     8.1438849498
Ni      1.2501666610    -2.1269629854     8.0095906357
Ni     -6.0800129957    -2.1211847186     8.0130355087
Ni      4.9155642567    -0.0194095763     7.9623597073
Ni     -2.3439646726    -0.0530108046     7.9565381077
Ni      6.1250166787     2.0920834494     8.1395944459
Ni     -1.1528062597     2.1145753666     8.0163524041
Ni      3.6824622683    -2.0785814991     7.9949068711
Ni     -3.6259556555    -2.1511015642     8.0276509398
O       6.1872499185     1.5787913249    10.0634625351
H       9.0672913671     2.3366663501     9.7680595425
H       8.2750553091     2.6250670339     9.7219335333
H       1.8239440719    -3.1073468928    10.9316378468
C       6.1114769950     2.3636339384    11.0293711053
O       7.3625343616     0.7331507674    12.2576782126
H      -7.5002039957     0.3961034575    11.3392949900
C       6.7530458393     2.0053684713    12.3297130012
H       5.9057612321     2.0275693945    13.0521429591
C       7.6508891155     3.1142089085    12.9756931697
H       3.5132469176    -2.2665673785    12.8447595712
H       8.6476233711     3.1229734417    12.5080076217
O       7.7212801687     2.7941767665    14.3701324524
H       8.3286649146     3.4116553237    14.8131898104
O      -4.1162698671     1.1321806447     9.6840409959
H      -3.3631134454     0.8506976088    10.2413910614
88
Step 3 | NEB Image 3 | Cartesian Angstrom
Ni      1.2285271350     0.7092904720     2.0000000000
Ni     -6.1433728650     0.7092904720     2.0000000000
Ni      2.4570542700     2.8371618880     2.0000000000
Ni     -4.9148457300     2.8371618880     2.0000000000
Ni      0.0000000000    -1.4185809440     2.0000000000
Ni     -7.3719000000    -1.4185809440     2.0000000000
Ni      3.6855814050     0.7092904720     2.0000000000
Ni     -3.6863185950     0.7092904720     2.0000000000
Ni      4.9141085400     2.8371618880     2.0000000000
Ni     -2.4577914600     2.8371618880     2.0000000000
Ni      2.4570542700    -1.4185809440     2.0000000000
Ni     -4.9148457300    -1.4185809440     2.0000000000
Ni      6.1433728650     0.7092904720     2.0000000000
Ni     -1.2285271350     0.7092904720     2.0000000000
Ni      7.3719000000     2.8371618880     2.0000000000
Ni      0.0000000000     2.8371618880     2.0000000000
Ni      4.9148457300    -1.4185809440     2.0000000000
Ni     -2.4570542700    -1.4185809440     2.0000000000
Ni      0.0344712806    -0.0157343674     3.9967010790
Ni     -7.3356153788    -0.0223202818     3.9995197681
Ni      1.2551607307     2.1080150862     3.9975953592
Ni     -6.0991479197     2.1110645909     3.9962084671
Ni     -1.1937610932    -2.1456074928     3.9954061159
Ni     -8.5665900306    -2.1405181970     4.0103172500
Ni      2.4943696916    -0.0105753117     4.0024485075
Ni     -4.8759942089    -0.0223508549     3.9984082252
Ni      3.7181703089     2.1042375305     3.9982217295
Ni     -3.6502404596     2.1139415552     4.0111666330
Ni      1.2662007173    -2.1440415595     3.9919867122
Ni     -6.1125152305    -2.1528007312     4.0071194447
Ni      4.9495435303    -0.0166732613     4.0112865392
Ni     -2.4246839605    -0.0183061403     3.9969413968
Ni      6.1827653416     2.1083993441     3.9971884764
Ni     -1.2031537098     2.1140736022     4.0045233356
Ni      3.7253460895    -2.1360000130     3.9857560990
Ni     -3.6521199871    -2.1520530190     3.9955580942
Ni      1.2156541942     0.7214536949     6.0148366848
Ni     -6.1680369266     0.7140877940     6.0061305260
Ni      2.4320058348     2.8490708415     5.9915868787
Ni     -4.9042601656     2.8519803193     6.0253569079
Ni     -0.0241177761    -1.4009713608     6.0023246212
Ni     -7.3719474174    -1.3880015600     6.0401912711
Ni      3.6870414219     0.7148182048     6.0481173672
Ni     -3.7025210632     0.7379592746     6.0231164627
Ni      4.8915902515     2.8587708443     5.9919373871
Ni     -2.4901033632     2.8361352475     6.0702290682
Ni      2.4386512416    -1.3981674761     6.0003187065
Ni     -4.9253472851    -1.4197116787     6.0059626961
Ni      6.1292488364     0.7157312777     6.0093605315
Ni     -1.2451190392     0.7245457731     6.0031713521
Ni      7.3662162707     2.8648296389     5.9774542725
Ni     -0.0256868122     2.8463357170     6.0154135962
Ni      4.9142442749    -1.3864682401     6.0377010009
Ni     -2.4861946514    -1.4075482768     6.0018807090
Ni      0.0052539014     0.0035814405     8.0106448642
Ni     -7.3360418864    -0.0036494983     8.1254506940
Ni      1.2401244163     2.1237643504     8.0130766609
Ni      8.6217918991     2.1508947179     7.9251204539
Ni     -1.2210347059    -2.1273889252     7.9982606397
Ni     -8.5777974038    -2.1405308638     8.0027190481
Ni      2.4549909414     0.0029674667     8.0278401217
Ni     -4.8918272244    -0.0306853655     7.9684722092
Ni      3.6512357720     2.1682404495     7.9742634053
Ni     -3.6694515334     2.1029067370     8.1815627063
Ni      1.2238452469    -2.1030006234     8.0006834429
Ni     -6.1205791725    -2.1260830634     8.0307550516
Ni      4.8937502614    -0.0166908917     8.1651446933
Ni     -2.4252204401    -0.0230740677     7.9804409485
Ni      6.1598617420     2.1927160964     7.9557548246
Ni     -1.1975466829     2.1153668288     8.0270725807
Ni      3.6933503092    -2.1000664978     7.9904258664
Ni     -3.6716805873    -2.1416187938     8.0212127660
O       6.1212950691     0.9311954300     9.3921778693
H      10.3844642269     2.6849489142    10.6165765419
H       6.8444041922     2.4768660029    10.5813172341
H       1.4889616338    -4.3911795147    10.9233063585
C       6.1732639020     1.5968291691    10.6784027568
O       7.1608592494    -0.3742413627    11.5124299081
H      -7.5990979037    -0.5905487852    10.5175524300
C       6.6842897644     0.7897427309    11.8173360811
H       6.6083727249     3.4090808111    12.9812885244
C       7.5743360615     3.7057485745    13.4095567925
H       3.9191888062    -1.5803946671    13.5012428222
H       8.3697426572     3.3887835774    12.7063011450
O       7.6844090199     3.0513468068    14.6738548665
H       8.2996269296     3.5553661393    15.2292786474
O      -4.0389817166     1.8351229234    10.2574355552
H      -3.2078721000     1.6208213526    10.7217304900
88
Step 4 | NEB Image 4 | Cartesian Angstrom
Ni      1.2285271350     0.7092904720     2.0000000000
Ni     -6.1433728650     0.7092904720     2.0000000000
Ni      2.4570542700     2.8371618880     2.0000000000
Ni     -4.9148457300     2.8371618880     2.0000000000
Ni      0.0000000000    -1.4185809440     2.0000000000
Ni     -7.3719000000    -1.4185809440     2.0000000000
Ni      3.6855814050     0.7092904720     2.0000000000
Ni     -3.6863185950     0.7092904720     2.0000000000
Ni      4.9141085400     2.8371618880     2.0000000000
Ni     -2.4577914600     2.8371618880     2.0000000000
Ni      2.4570542700    -1.4185809440     2.0000000000
Ni     -4.9148457300    -1.4185809440     2.0000000000
Ni      6.1433728650     0.7092904720     2.0000000000
Ni     -1.2285271350     0.7092904720     2.0000000000
Ni      7.3719000000     2.8371618880     2.0000000000
Ni      0.0000000000     2.8371618880     2.0000000000
Ni      4.9148457300    -1.4185809440     2.0000000000
Ni     -2.4570542700    -1.4185809440     2.0000000000
Ni      0.0367777171    -0.0142003957     3.9987559879
Ni     -7.3376194911    -0.0120729163     4.0007227023
Ni      1.2623643773     2.1114231665     3.9983822976
Ni     -6.1058725422     2.1176315280     3.9998941819
Ni     -1.1919508371    -2.1405211569     3.9985493359
Ni     -8.5684112620    -2.1407383494     4.0028931446
Ni      2.4969185051    -0.0098730458     4.0039497660
Ni     -4.8765045914    -0.0124100211     3.9965443469
Ni      3.7236333061     2.1106543387     4.0067068385
Ni     -3.6519389467     2.1160866615     4.0083298235
Ni      1.2646613241    -2.1448143020     4.0002598938
Ni     -6.1079143136    -2.1457579612     3.9972817122
Ni      4.9520187406    -0.0115558355     4.0126758249
Ni     -2.4256354110    -0.0122807786     3.9996260570
Ni      6.1798945227     2.1141913030     4.0077821707
Ni     -1.1974819583     2.1161593859     3.9989966871
Ni      3.7200299150    -2.1385133425     3.9915252167
Ni     -3.6473185530    -2.1446515901     3.9923188083
Ni      1.2137225850     0.7297303888     6.0133792820
Ni     -6.1657163915     0.7185396427     6.0129993689
Ni      2.4394091877     2.8559961105     5.9989617347
Ni     -4.9075198832     2.8503898220     6.0250335842
Ni     -0.0186896825    -1.3979294500     6.0101658641
Ni     -7.3788288342    -1.3821361376     6.0111546938
Ni      3.6836305845     0.7228995689     6.0489123293
Ni     -3.6996814208     0.7481495056     6.0379166846
Ni      4.9032286552     2.8578975295     6.0283307654
Ni     -2.4856421203     2.8479669238     6.0394089846
Ni      2.4350798770    -1.3934908568     6.0053927821
Ni     -4.9196871864    -1.4047581221     5.9955384660
Ni      6.1280012256     0.7303928440     6.0295752266
Ni     -1.2449624839     0.7296542100     6.0009526056
Ni      7.3595526765     2.8570766989     6.0087389094
Ni     -0.0202105973     2.8599077381     6.0047981432
Ni      4.9040457186    -1.3860287213     6.0228821377
Ni     -2.4800767078    -1.3979052820     6.0047251950
Ni      0.0037779285     0.0135732043     8.0130978475
Ni     -7.3252231837    -0.0188404138     8.1271338053
Ni      1.2388322332     2.1344286200     8.0093859642
Ni      8.6326141954     2.1523766861     7.9537624495
Ni     -1.2179864523    -2.1196966986     8.0052206266
Ni     -8.5916377799    -2.1384851422     7.9647731374
Ni      2.4506350740     0.0123391275     8.0272245464
Ni     -4.8832103552    -0.0132094887     7.9849458748
Ni      3.6548325294     2.1665756017     7.9959895408
Ni     -3.6619341590     2.1216560786     8.1794475713
Ni      1.2253868844    -2.0986215019     8.0199350494
Ni     -6.1150914965    -2.1138203955     7.9912221902
Ni      4.8945302412    -0.0162230801     8.1305460154
Ni     -2.4231041025    -0.0139347635     7.9944149182
Ni      6.1646050543     2.1992502746     8.0629903374
Ni     -1.1919722640     2.1287540408     7.9968582641
Ni      3.6871018772    -2.1005704540     7.9962004895
Ni     -3.6700005660    -2.1279394668     8.0160072091
O       6.1673967335     0.8106258014     9.4010693256
H      11.0127544541     3.0727445000    10.5680110003
H       6.9211960588     1.8590613097    11.0399157895
H       1.6809487719    -5.3594590073    11.2989790043
C       6.3502600953     0.9368760862    10.8152754894
O       7.7932753600    -1.0004951704    10.8732753974
H      -6.8932492175    -0.9378184707     9.6153924439
C       7.1303594642    -0.1498655996    11.4939911132
H       8.1638910570     4.2856217103    11.7910682808
C       8.3956319400     4.3130204899    12.8646989479
H       3.8912747477    -1.5437612657    13.3827200778
H       9.3305723988     4.8824720679    13.0038603182
O       8.5199286255     2.9512894434    13.2905640209
H       8.8094284434     2.9466643351    14.2179170544
O      -3.7016460125     2.1390305073    10.2763837960
H      -2.8089002004     1.8174460707    10.5117448137
88
Step 5 | NEB Image 5 | Cartesian Angstrom
Ni      1.2285271350     0.7092904720     2.0000000000
Ni     -6.1433728650     0.7092904720     2.0000000000
Ni      2.4570542700     2.8371618880     2.0000000000
Ni     -4.9148457300     2.8371618880     2.0000000000
Ni      0.0000000000    -1.4185809440     2.0000000000
Ni     -7.3719000000    -1.4185809440     2.0000000000
Ni      3.6855814050     0.7092904720     2.0000000000
Ni     -3.6863185950     0.7092904720     2.0000000000
Ni      4.9141085400     2.8371618880     2.0000000000
Ni     -2.4577914600     2.8371618880     2.0000000000
Ni      2.4570542700    -1.4185809440     2.0000000000
Ni     -4.9148457300    -1.4185809440     2.0000000000
Ni      6.1433728650     0.7092904720     2.0000000000
Ni     -1.2285271350     0.7092904720     2.0000000000
Ni      7.3719000000     2.8371618880     2.0000000000
Ni      0.0000000000     2.8371618880     2.0000000000
Ni      4.9148457300    -1.4185809440     2.0000000000
Ni     -2.4570542700    -1.4185809440     2.0000000000
Ni      0.0464326620    -0.0306468460     3.9976675890
Ni     -7.3257303870    -0.0255862300     3.9933782980
Ni      1.2739848450     2.0960038070     3.9979157030
Ni     -6.1026021170     2.1049500680     4.0019149180
Ni     -1.1827110610    -2.1546561820     3.9989053170
Ni     -8.5597082650    -2.1592869340     3.9982394010
Ni      2.5024778430    -0.0256743600     4.0031952220
Ni     -4.8641413240    -0.0227350050     3.9956475690
Ni      3.7346756480     2.0985190290     4.0083618800
Ni     -3.6458198020     2.0991473590     4.0056686860
Ni      1.2703768650    -2.1597674920     4.0015811390
Ni     -6.0933336510    -2.1603781540     3.9902680500
Ni      4.9590538200    -0.0289845540     4.0074783820
Ni     -2.4167678920    -0.0248088220     4.0022401470
Ni      6.1885777810     2.1026461420     4.0098077600
Ni     -1.1844811720     2.0985803670     3.9964394390
Ni      3.7245308300    -2.1560713310     3.9888953010
Ni     -3.6351397940    -2.1574140910     3.9933365850
Ni      1.2278611130     0.7073057200     6.0134419810
Ni     -6.1428898530     0.6957346210     6.0102358510
Ni      2.4563605190     2.8356121920     5.9987058000
Ni     -4.8924583120     2.8187736320     6.0264580820
Ni      0.0002252210    -1.4241376010     6.0155868270
Ni     -7.3667991100    -1.4101212980     5.9895528060
Ni      3.6921281460     0.7008202940     6.0360645010
Ni     -3.6779272240     0.7256007260     6.0512861550
Ni      4.9267336850     2.8309168990     6.0432780270
Ni     -2.4664659500     2.8157315660     6.0151173370
Ni      2.4509011280    -1.4197685090     6.0062316800
Ni     -4.8985683740    -1.4191884620     5.9881596610
Ni      6.1372839650     0.7115480370     6.0073921100
Ni     -1.2256557510     0.7019370040     6.0032560690
Ni      7.3730564330     2.8242126570     6.0269074010
Ni     -0.0034566730     2.8405670140     6.0010880700
Ni      4.9162369820    -1.4189308570     6.0083232610
Ni     -2.4596272260    -1.4182314770     6.0084483810
Ni      0.0277268390    -0.0168450280     8.0180888710
Ni     -7.3091221710    -0.0327920680     8.0371701400
Ni      1.2611452740     2.1078740620     8.0062525300
Ni      8.6667549770     2.1138793650     7.9801313330
Ni     -1.1942402360    -2.1496555940     8.0109921590
Ni     -8.5668484660    -2.1735761150     7.9430911750
Ni      2.4712577410    -0.0190631580     8.0243063390
Ni     -4.8670711400    -0.0431110720     7.9967287920
Ni      3.6750137580     2.1321536040     7.9940007810
Ni     -3.6274773380     2.0999917070     8.2089215290
Ni      1.2517815200    -2.1329879940     8.0267060850
Ni     -6.0785108950    -2.1534189890     7.9361595560
Ni      4.9123316280    -0.0512787390     8.0829089500
Ni     -2.4007725170    -0.0429334740     8.0081832520
Ni      6.1908597070     2.1505617180     8.1094472440
Ni     -1.1654360560     2.0989982700     7.9806126390
Ni      3.7077660390    -2.1419918620     7.9975968800
Ni     -3.6463297530    -2.1524111230     8.0158878220
O       6.1707187590     0.6663307040     9.3727337630
H      11.2555922500     3.1706166680    10.5266232770
H       7.1149227860     1.0824741990    11.1550798120
H       1.6297081310    -5.3793991980    11.2177269450
C       6.2238707100     0.5353136510    10.8108846880
O       7.5718415080    -1.5277099790    10.9241884940
H      -6.8828388710    -1.2337967880    10.0124245870
C       6.2850334910    -0.9302036460    11.2182633770
H       9.1791669060     4.9099545600    10.6626973770
C       9.7467965870     5.2786349730    12.7161077750
H       5.0959169980    -0.6608682970    12.9933131080
H      10.5457770910     5.8077082870    13.2666670860
O       9.6783811350     3.9068622240    13.1006105230
H      10.5447055700     3.5019751520    12.9206205020
O      -3.5153567700     2.2005093110    10.2599052050
H      -2.6227032800     1.8412518110    10.4321503050
