88
Step 1 | NEB Image 1 | Cartesian Angstrom
Ni      1.2285271350     0.7092904720     2.0000000000
Ni     -6.1433728650     0.7092904720     2.0000000000
Ni      2.4570542700     2.8371618880     2.0000000000
Ni     -4.9148457300     2.8371618880     2.0000000000
Ni      0.0000000000    -1.4185809440     2.0000000000
Ni     -7.3719000000    -1.4185809440     2.0000000000
Ni      3.6855814050     0.7092904720     2.0000000000
Ni     -3.6863185950     0.7092904720     2.0000000000
Ni      4.9141085400     2.8371618880     2.0000000000
Ni     -2.4577914600     2.8371618880     2.0000000000
Ni      2.4570542700    -1.4185809440     2.0000000000
Ni     -4.9148457300    -1.4185809440     2.0000000000
Ni      6.1433728650     0.7092904720     2.0000000000
Ni     -1.2285271350     0.7092904720     2.0000000000
Ni      7.3719000000     2.8371618880     2.0000000000
Ni      0.0000000000     2.8371618880     2.0000000000
Ni      4.9148457300    -1.4185809440     2.0000000000
Ni     -2.4570542700    -1.4185809440     2.0000000000
Ni      0.0345187234    -0.0219895959     3.9906686506
Ni     -7.3332872529    -0.0205271350     3.9970929970
Ni      1.2574298371     2.1090479016     3.9981086770
Ni     -6.1061214153     2.1042281316     4.0017605185
Ni     -1.1958375155    -2.1495425789     3.9888614873
Ni     -8.5615731291    -2.1597422030     3.9935633301
Ni      2.4909200515    -0.0209290578     3.9889124626
Ni     -4.8775455868    -0.0288695998     4.0155932973
Ni      3.7235299523     2.1102350339     3.9932622384
Ni     -3.6483031855     2.1055811522     4.0174271749
Ni      1.2597529797    -2.1544756242     3.9969618463
Ni     -6.1074652262    -2.1506208434     4.0019689283
Ni      4.9550771908    -0.0234645643     3.9935565644
Ni     -2.4269867653    -0.0199772708     3.9982338911
Ni      6.1741097051     2.1083418571     4.0046158614
Ni     -1.1996729370     2.1123145435     4.0000024585
Ni      3.7197951829    -2.1539414756     3.9921760547
Ni     -3.6589301935    -2.1514998115     3.9994955107
Ni      1.2136841869     0.7163863979     5.9963073096
Ni     -6.1473437226     0.7096773911     6.0218176054
Ni      2.4453295017     2.8415084524     5.9971730433
Ni     -4.9231971923     2.8360653972     6.0327934449
Ni     -0.0226348385    -1.4110330430     6.0020236029
Ni     -7.3908667378    -1.4145678834     5.9981301391
Ni      3.6669417345     0.7157583701     5.9869138182
Ni     -3.7108784987     0.7190435175     6.0328517480
Ni      4.9057976617     2.8388244163     6.0411982092
Ni     -2.4814248435     2.8298458387     6.0521186228
Ni      2.4355069788    -1.4085502466     5.9888639843
Ni     -4.9252928465    -1.4026264080     6.0548563839
Ni      6.1341025786     0.7315238745     6.0218817427
Ni     -1.2402669783     0.7221835538     5.9926808095
Ni      7.3408175190     2.8291688103     6.0248565089
Ni     -0.0225097209     2.8466795557     6.0142376281
Ni      4.9088271165    -1.4251457534     5.9900387779
Ni     -2.4790699264    -1.4211153466     5.9913638200
Ni      0.0337137405    -0.0099863123     8.0038502320
Ni     -7.3606520147    -0.0334139511     7.9835827732
Ni      1.2525382386     2.1076756093     8.0014158677
Ni      8.5596645315     2.1514300915     7.9633346422
Ni     -1.1983605499    -2.1613845897     8.0018652759
Ni     -8.5927669864    -2.1264268734     8.0165035337
Ni      2.4708324722    -0.0109047600     8.0065027389
Ni     -4.8995212632    -0.0584838282     8.1493062015
Ni      3.6789469906     2.1047412898     7.9888648741
Ni     -3.6333178494     2.1270714900     8.1546283531
Ni      1.2394335961    -2.1164979174     7.9892760222
Ni     -6.1305722611    -2.1461024656     7.9989212299
Ni      4.9150163145    -0.0283439881     7.9490640309
Ni     -2.3653823178    -0.0601929248     7.9425724452
Ni      6.1349712758     2.1197335004     8.1598232492
Ni     -1.1861990586     2.1067384809     8.0263285947
Ni      3.6953023012    -2.1157302873     7.9694462946
Ni     -3.6468332403    -2.1628724713     8.0264725749
O       5.9486020032     1.9536774433    10.1568983318
H       6.2023593986     1.0444615420    10.4395396161
H       7.6485803319     2.9982816350    10.7947394844
H       2.3841835216    -2.5662265370    10.9995346326
C       6.5922936452     2.8570131008    11.0871865803
O       6.8828593053     0.8516013498    12.3925733789
H      -6.8879959571     0.8254517200    12.3248078773
C       6.4620997723     2.2299052156    12.4710261049
H       5.3979785171     2.1706601767    12.7461907790
C       7.1981974178     3.0342299686    13.5247288963
H       3.2389656514    -2.2859498111    13.4051121917
H       8.2901195875     2.9478942375    13.3576433856
O       6.8260697992     2.5426661176    14.8120038538
H       7.2522042786     3.0948827032    15.4870039972
O      -4.3927237137     1.0982075682     9.5865509607
H      -3.6717371060     0.6667680985    10.0888232085
88
Step 2 | NEB Image 2 | Cartesian Angstrom
Ni      1.2285271350     0.7092904720     2.0000000000
Ni     -6.1433728650     0.7092904720     2.0000000000
Ni      2.4570542700     2.8371618880     2.0000000000
Ni     -4.9148457300     2.8371618880     2.0000000000
Ni      0.0000000000    -1.4185809440     2.0000000000
Ni     -7.3719000000    -1.4185809440     2.0000000000
Ni      3.6855814050     0.7092904720     2.0000000000
Ni     -3.6863185950     0.7092904720     2.0000000000
Ni      4.9141085400     2.8371618880     2.0000000000
Ni     -2.4577914600     2.8371618880     2.0000000000
Ni      2.4570542700    -1.4185809440     2.0000000000
Ni     -4.9148457300    -1.4185809440     2.0000000000
Ni      6.1433728650     0.7092904720     2.0000000000
Ni     -1.2285271350     0.7092904720     2.0000000000
Ni      7.3719000000     2.8371618880     2.0000000000
Ni      0.0000000000     2.8371618880     2.0000000000
Ni      4.9148457300    -1.4185809440     2.0000000000
Ni     -2.4570542700    -1.4185809440     2.0000000000
Ni      0.0364839120    -0.0147302759     3.9923470151
Ni     -7.3212881191    -0.0068833068     4.0067645161
Ni      1.2589848412     2.1179733170     3.9961851341
Ni     -6.1058133936     2.1163739349     4.0286225679
Ni     -1.1929314254    -2.1397449075     3.9890575887
Ni     -8.5573370201    -2.1497526200     4.0038280186
Ni      2.4950003454    -0.0159837379     3.9925421041
Ni     -4.8801281360    -0.0092704881     4.0263914888
Ni      3.7265766559     2.1153945315     3.9958043194
Ni     -3.6459703575     2.1203320994     4.0187549158
Ni      1.2636012357    -2.1459808276     3.9997659118
Ni     -6.1031212715    -2.1362244063     4.0065717080
Ni      4.9629563457    -0.0177656070     3.9985431706
Ni     -2.4276273046    -0.0067212142     3.9993105875
Ni      6.1809687690     2.1174915250     4.0054328943
Ni     -1.1983580591     2.1231082744     3.9984868853
Ni      3.7245895060    -2.1520688959     4.0008916261
Ni     -3.6580524554    -2.1342606358     4.0006617485
Ni      1.2182152496     0.7307091604     5.9955516123
Ni     -6.1218837769     0.7531025584     6.0918833966
Ni      2.4457875613     2.8573930124     5.9899977823
Ni     -4.9235699297     2.8431496767     6.0591479723
Ni     -0.0146603972    -1.3987964305     6.0059504707
Ni     -7.3790113883    -1.3923628215     6.0091679741
Ni      3.6725673240     0.7260847911     5.9907513942
Ni     -3.6994837134     0.7406899163     6.0429692037
Ni      4.9135568890     2.8504885130     6.0407153709
Ni     -2.4731647746     2.8595962382     6.0502546623
Ni      2.4411119579    -1.4017649986     6.0009758108
Ni     -4.9156541436    -1.3657403782     6.0617115545
Ni      6.1443175546     0.7354860939     6.0148851343
Ni     -1.2343003621     0.7393138538     5.9922251443
Ni      7.3534237073     2.8332347665     6.0706011629
Ni     -0.0169592493     2.8704683304     6.0049073125
Ni      4.9082300241    -1.4126275227     5.9983922593
Ni     -2.4689514306    -1.4013853469     5.9918543472
Ni      0.0369978721     0.0057618270     8.0028421770
Ni     -7.3198558236    -0.0143959917     7.9879589291
Ni      1.2503226811     2.1318190977     7.9973794662
Ni      8.5710591150     2.2257470908     8.1710081483
Ni     -1.1958378881    -2.1391019677     8.0026955775
Ni     -8.5643635869    -2.0834439531     8.0040706738
Ni      2.4592974155     0.0126106099     8.0065759024
Ni     -4.8164444768     0.0013233002     8.2446702132
Ni      3.6628928160     2.1332963685     7.9805835239
Ni     -3.5852729872     2.1703955167     8.1338217419
Ni      1.2371310175    -2.1117646854     8.0143201597
Ni     -6.0874478933    -2.0992798087     8.0094333075
Ni      4.9021520866    -0.0092232338     7.9636540376
Ni     -2.3542607480    -0.0360462409     7.9524385486
Ni      6.1075081725     2.1142996533     8.1330257476
Ni     -1.1653616616     2.1355932887     8.0111958643
Ni      3.6703778393    -2.0755198287     7.9903590448
Ni     -3.6371457816    -2.1328806782     8.0266481133
O       6.1227102896     1.4547332577    10.0338376612
H       9.0478010667     2.6462841038     9.6969671694
H       8.2648710879     2.2576767700     9.7747928672
H       1.5175414353    -3.4762853962    11.0994407855
C       5.9448883361     2.0997985976    11.0849382689
O       7.3569908082     0.4964131126    12.1542546401
H      -7.4962417773     0.2154612785    11.2129013422
C       6.6794105778     1.7284565822    12.3321845317
H       5.9039230433     1.6953022899    13.1282065467
C       7.5358470006     2.9251948470    12.9405800638
H       3.4022833088    -2.4735300141    12.6980745042
H       8.5466630964     2.8963836496    12.5144669143
O       7.5679262712     2.7621246186    14.3667371748
H       8.2120130005     3.3890327283    14.7446349593
O      -4.0682233652     1.1722428441     9.6791507059
H      -3.2601475382     0.9306013745    10.1759782699
88
Step 3 | NEB Image 3 | Cartesian Angstrom
Ni      1.2285271350     0.7092904720     2.0000000000
Ni     -6.1433728650     0.7092904720     2.0000000000
Ni      2.4570542700     2.8371618880     2.0000000000
Ni     -4.9148457300     2.8371618880     2.0000000000
Ni      0.0000000000    -1.4185809440     2.0000000000
Ni     -7.3719000000    -1.4185809440     2.0000000000
Ni      3.6855814050     0.7092904720     2.0000000000
Ni     -3.6863185950     0.7092904720     2.0000000000
Ni      4.9141085400     2.8371618880     2.0000000000
Ni     -2.4577914600     2.8371618880     2.0000000000
Ni      2.4570542700    -1.4185809440     2.0000000000
Ni     -4.9148457300    -1.4185809440     2.0000000000
Ni      6.1433728650     0.7092904720     2.0000000000
Ni     -1.2285271350     0.7092904720     2.0000000000
Ni      7.3719000000     2.8371618880     2.0000000000
Ni      0.0000000000     2.8371618880     2.0000000000
Ni      4.9148457300    -1.4185809440     2.0000000000
Ni     -2.4570542700    -1.4185809440     2.0000000000
Ni      0.0290347378    -0.0086174262     3.9967242421
Ni     -7.3416218869    -0.0137404718     4.0000322030
Ni      1.2514881176     2.1152927563     3.9967032558
Ni     -6.1056480067     2.1184431677     3.9973902222
Ni     -1.1988178393    -2.1372301535     3.9956382539
Ni     -8.5716424284    -2.1352175012     4.0083645324
Ni      2.4892612165    -0.0046609044     4.0021303629
Ni     -4.8818716010    -0.0135470320     3.9976727062
Ni      3.7145743157     2.1124988385     3.9991521173
Ni     -3.6560650817     2.1205313622     4.0100304576
Ni      1.2601063119    -2.1381898913     3.9941010515
Ni     -6.1166867705    -2.1442271353     4.0040951905
Ni      4.9456580117    -0.0096119227     4.0110465290
Ni     -2.4306501069    -0.0100160386     3.9967759697
Ni      6.1772175737     2.1155688441     4.0003389070
Ni     -1.2069263363     2.1211427609     4.0017695060
Ni      3.7185690752    -2.1312898697     3.9856512441
Ni     -3.6562665225    -2.1432762953     3.9940603210
Ni      1.2042431188     0.7342498494     6.0136689154
Ni     -6.1794083971     0.7249392039     6.0088410305
Ni      2.4240191227     2.8615368636     5.9909936777
Ni     -4.9148875255     2.8603212488     6.0266587458
Ni     -0.0323325310    -1.3893479721     6.0044323090
Ni     -7.3848081898    -1.3754675678     6.0332226035
Ni      3.6745712448     0.7273990107     6.0435729550
Ni     -3.7126841519     0.7499628136     6.0268982036
Ni      4.8855719055     2.8692137617     6.0013982689
Ni     -2.4986738178     2.8509895122     6.0582864688
Ni      2.4277710275    -1.3870930690     6.0014566818
Ni     -4.9340995384    -1.4058561821     6.0033500245
Ni      6.1181156273     0.7321715897     6.0148437343
Ni     -1.2562915871     0.7365188685     6.0020576287
Ni      7.3554829539     2.8722292553     5.9853129157
Ni     -0.0338439888     2.8608337845     6.0110056115
Ni      4.9007405302    -1.3788766545     6.0301765487
Ni     -2.4946957685    -1.3943734028     6.0019693406
Ni     -0.0114927567     0.0212354605     8.0108797411
Ni     -7.3532729637     0.0049014798     8.1301742635
Ni      1.2251485865     2.1412907899     8.0104034570
Ni      8.6116859789     2.1610940637     7.9355818231
Ni     -1.2350690442    -2.1122423390     7.9984673814
Ni     -8.5934733831    -2.1281107915     7.9925418304
Ni      2.4367425879     0.0197608113     8.0259243211
Ni     -4.9089112743    -0.0137839236     7.9734694991
Ni      3.6366845553     2.1815974673     7.9747192595
Ni     -3.6814786140     2.1175387059     8.1736849584
Ni      1.2085137568    -2.0859725406     8.0074701914
Ni     -6.1340329823    -2.1100682462     8.0202387955
Ni      4.8758469736    -0.0096010776     8.1390268977
Ni     -2.4404481735    -0.0085901950     7.9840090058
Ni      6.1509225288     2.2196204108     7.9897800978
Ni     -1.2104737105     2.1332070978     8.0153608791
Ni      3.6774189981    -2.0887955002     7.9917293294
Ni     -3.6872576988    -2.1239057110     8.0202247224
O       6.0803321725     0.9178356884     9.3693634724
H      10.5720519201     2.8697578673    10.5661963139
H       6.7387111697     2.2295462981    10.8415712189
H       1.3861650492    -4.7210954033    11.0272846540
C       6.0859809257     1.3386752112    10.7444113821
O       7.1398075719    -0.7217388633    11.2515815191
H      -7.5447753810    -0.7833024419    10.2133385120
C       6.5943864119     0.3424030316    11.7319749427
H       6.4719482479     3.2412930117    13.2000411437
C       7.4577842447     3.6026304654    13.5160021310
H       3.8158943858    -1.6933440181    13.3405672801
H       8.2223118412     3.1065146979    12.8912272045
O       7.5949930698     3.2652778462    14.8951196001
H       8.4119463434     3.6702779430    15.2276431636
O      -3.9028860620     1.9773495713    10.2721094915
H      -3.0058806257     1.8313868701    10.6299534911
88
Step 4 | NEB Image 4 | Cartesian Angstrom
Ni      1.2285271350     0.7092904720     2.0000000000
Ni     -6.1433728650     0.7092904720     2.0000000000
Ni      2.4570542700     2.8371618880     2.0000000000
Ni     -4.9148457300     2.8371618880     2.0000000000
Ni      0.0000000000    -1.4185809440     2.0000000000
Ni     -7.3719000000    -1.4185809440     2.0000000000
Ni      3.6855814050     0.7092904720     2.0000000000
Ni     -3.6863185950     0.7092904720     2.0000000000
Ni      4.9141085400     2.8371618880     2.0000000000
Ni     -2.4577914600     2.8371618880     2.0000000000
Ni      2.4570542700    -1.4185809440     2.0000000000
Ni     -4.9148457300    -1.4185809440     2.0000000000
Ni      6.1433728650     0.7092904720     2.0000000000
Ni     -1.2285271350     0.7092904720     2.0000000000
Ni      7.3719000000     2.8371618880     2.0000000000
Ni      0.0000000000     2.8371618880     2.0000000000
Ni      4.9148457300    -1.4185809440     2.0000000000
Ni     -2.4570542700    -1.4185809440     2.0000000000
Ni      0.0340668663    -0.0248205348     4.0014375238
Ni     -7.3400567231    -0.0224860252     4.0056520976
Ni      1.2651845038     2.1014919323     3.9952922899
Ni     -6.1075588775     2.1021684165     4.0047478437
Ni     -1.1939746669    -2.1499527374     4.0008242065
Ni     -8.5639836014    -2.1520914040     4.0059124733
Ni      2.4984356219    -0.0169077825     4.0043743569
Ni     -4.8808449572    -0.0216439186     4.0074150807
Ni      3.7255465788     2.1063656477     4.0095178497
Ni     -3.6505358502     2.1059254820     4.0066660459
Ni      1.2667042381    -2.1549670871     4.0027619675
Ni     -6.1052852628    -2.1533877722     3.9997902507
Ni      4.9537874454    -0.0188461500     4.0134482894
Ni     -2.4272830010    -0.0254396343     3.9950913437
Ni      6.1814767598     2.1028984061     4.0107764022
Ni     -1.1988175533     2.1048376758     4.0014721570
Ni      3.7209744479    -2.1477008141     3.9911945186
Ni     -3.6508818912    -2.1511968894     3.9955803404
Ni      1.2117765828     0.7148148600     6.0121639346
Ni     -6.1661801215     0.6977964742     6.0261883241
Ni      2.4419949334     2.8411850135     6.0015651254
Ni     -4.9132684955     2.8266391341     6.0217112254
Ni     -0.0152610172    -1.4173139838     6.0108633828
Ni     -7.3823456309    -1.4002321848     6.0213691396
Ni      3.6850550597     0.7086414260     6.0495847105
Ni     -3.6870666937     0.7302419725     6.0159504958
Ni      4.9118615980     2.8372484163     6.0355939088
Ni     -2.4872928519     2.8445102950     6.0300535624
Ni      2.4350559946    -1.4047427450     6.0072239570
Ni     -4.9236499447    -1.4219525251     6.0118031110
Ni      6.1319076003     0.7108184653     6.0394482989
Ni     -1.2529744020     0.7148462076     6.0017832503
Ni      7.3592536049     2.8405566553     6.0124337157
Ni     -0.0157514409     2.8436791955     5.9956821931
Ni      4.8993655693    -1.4032005100     6.0179825671
Ni     -2.4822590950    -1.4129898270     6.0091954487
Ni      0.0021548605    -0.0106782111     8.0084539623
Ni     -7.3340038507    -0.0145093630     8.1139110221
Ni      1.2359040634     2.1119671002     8.0071236549
Ni      8.6296096035     2.1377001859     7.9709510162
Ni     -1.2176860208    -2.1414636054     8.0074176231
Ni     -8.6045482341    -2.1626731824     7.9575471688
Ni      2.4443019686    -0.0082435302     8.0295382691
Ni     -4.8105119071     0.0142274848     7.9816189539
Ni      3.6548831132     2.1416783004     7.9987068675
Ni     -3.6536380793     2.1073022511     8.1365392248
Ni      1.2268089368    -2.1262938245     8.0230644666
Ni     -6.1149855335    -2.1593411425     8.0109849779
Ni      4.8882947985    -0.0494580714     8.1275812108
Ni     -2.4117596203    -0.0413699278     8.0022577031
Ni      6.1616693405     2.1666284884     8.0763214267
Ni     -1.1853197251     2.1070069852     7.9842322318
Ni      3.6758586918    -2.1292930741     7.9972620240
Ni     -3.6627901336    -2.1593369644     8.0200468633
O       6.1192140042     0.7568841169     9.4429055134
H      11.2312879166     3.1646004237    10.4473720999
H       6.8803010426     1.8286703634    11.0677077541
H       1.5983111364    -5.3263283934    11.3263727623
C       6.2688317602     0.9342992516    10.8487652375
O       7.5299580329    -1.1838400957    11.1922956373
H      -5.9482149346    -0.7288736133     8.8461646286
C       6.9790123584    -0.1960301683    11.5515448592
H       8.0506858668     4.3947447138    11.7258225691
C       8.2232096735     4.3152126198    12.8081364589
H       3.6797729581    -1.6339285180    13.3478568544
H       9.1257029826     4.9038400292    13.0541785598
O       8.3819661838     2.9187404780    13.0846349009
H       8.5914210907     2.8049359206    14.0263904760
O      -3.6208875103     2.2094927295    10.2469703368
H      -2.7523683973     1.8003305428    10.4357334931
88
Step 5 | NEB Image 5 | Cartesian Angstrom
Ni      1.2285271350     0.7092904720     2.0000000000
Ni     -6.1433728650     0.7092904720     2.0000000000
Ni      2.4570542700     2.8371618880     2.0000000000
Ni     -4.9148457300     2.8371618880     2.0000000000
Ni      0.0000000000    -1.4185809440     2.0000000000
Ni     -7.3719000000    -1.4185809440     2.0000000000
Ni      3.6855814050     0.7092904720     2.0000000000
Ni     -3.6863185950     0.7092904720     2.0000000000
Ni      4.9141085400     2.8371618880     2.0000000000
Ni     -2.4577914600     2.8371618880     2.0000000000
Ni      2.4570542700    -1.4185809440     2.0000000000
Ni     -4.9148457300    -1.4185809440     2.0000000000
Ni      6.1433728650     0.7092904720     2.0000000000
Ni     -1.2285271350     0.7092904720     2.0000000000
Ni      7.3719000000     2.8371618880     2.0000000000
Ni      0.0000000000     2.8371618880     2.0000000000
Ni      4.9148457300    -1.4185809440     2.0000000000
Ni     -2.4570542700    -1.4185809440     2.0000000000
Ni      0.0464326620    -0.0306468460     3.9976675890
Ni     -7.3257303870    -0.0255862300     3.9933782980
Ni      1.2739848450     2.0960038070     3.9979157030
Ni     -6.1026021170     2.1049500680     4.0019149180
Ni     -1.1827110610    -2.1546561820     3.9989053170
Ni     -8.5597082650    -2.1592869340     3.9982394010
Ni      2.5024778430    -0.0256743600     4.0031952220
Ni     -4.8641413240    -0.0227350050     3.9956475690
Ni      3.7346756480     2.0985190290     4.0083618800
Ni     -3.6458198020     2.0991473590     4.0056686860
Ni      1.2703768650    -2.1597674920     4.0015811390
Ni     -6.0933336510    -2.1603781540     3.9902680500
Ni      4.9590538200    -0.0289845540     4.0074783820
Ni     -2.4167678920    -0.0248088220     4.0022401470
Ni      6.1885777810     2.1026461420     4.0098077600
Ni     -1.1844811720     2.0985803670     3.9964394390
Ni      3.7245308300    -2.1560713310     3.9888953010
Ni     -3.6351397940    -2.1574140910     3.9933365850
Ni      1.2278611130     0.7073057200     6.0134419810
Ni     -6.1428898530     0.6957346210     6.0102358510
Ni      2.4563605190     2.8356121920     5.9987058000
Ni     -4.8924583120     2.8187736320     6.0264580820
Ni      0.0002252210    -1.4241376010     6.0155868270
Ni     -7.3667991100    -1.4101212980     5.9895528060
Ni      3.6921281460     0.7008202940     6.0360645010
Ni     -3.6779272240     0.7256007260     6.0512861550
Ni      4.9267336850     2.8309168990     6.0432780270
Ni     -2.4664659500     2.8157315660     6.0151173370
Ni      2.4509011280    -1.4197685090     6.0062316800
Ni     -4.8985683740    -1.4191884620     5.9881596610
Ni      6.1372839650     0.7115480370     6.0073921100
Ni     -1.2256557510     0.7019370040     6.0032560690
Ni      7.3730564330     2.8242126570     6.0269074010
Ni     -0.0034566730     2.8405670140     6.0010880700
Ni      4.9162369820    -1.4189308570     6.0083232610
Ni     -2.4596272260    -1.4182314770     6.0084483810
Ni      0.0277268390    -0.0168450280     8.0180888710
Ni     -7.3091221710    -0.0327920680     8.0371701400
Ni      1.2611452740     2.1078740620     8.0062525300
Ni      8.6667549770     2.1138793650     7.9801313330
Ni     -1.1942402360    -2.1496555940     8.0109921590
Ni     -8.5668484660    -2.1735761150     7.9430911750
Ni      2.4712577410    -0.0190631580     8.0243063390
Ni     -4.8670711400    -0.0431110720     7.9967287920
Ni      3.6750137580     2.1321536040     7.9940007810
Ni     -3.6274773380     2.0999917070     8.2089215290
Ni      1.2517815200    -2.1329879940     8.0267060850
Ni     -6.0785108950    -2.1534189890     7.9361595560
Ni      4.9123316280    -0.0512787390     8.0829089500
Ni     -2.4007725170    -0.0429334740     8.0081832520
Ni      6.1908597070     2.1505617180     8.1094472440
Ni     -1.1654360560     2.0989982700     7.9806126390
Ni      3.7077660390    -2.1419918620     7.9975968800
Ni     -3.6463297530    -2.1524111230     8.0158878220
O       6.1707187590     0.6663307040     9.3727337630
H      11.2555922500     3.1706166680    10.5266232770
H       7.1149227860     1.0824741990    11.1550798120
H       1.6297081310    -5.3793991980    11.2177269450
C       6.2238707100     0.5353136510    10.8108846880
O       7.5718415080    -1.5277099790    10.9241884940
H      -6.8828388710    -1.2337967880    10.0124245870
C       6.2850334910    -0.9302036460    11.2182633770
H       9.1791669060     4.9099545600    10.6626973770
C       9.7467965870     5.2786349730    12.7161077750
H       5.0959169980    -0.6608682970    12.9933131080
H      10.5457770910     5.8077082870    13.2666670860
O       9.6783811350     3.9068622240    13.1006105230
H      10.5447055700     3.5019751520    12.9206205020
O      -3.5153567700     2.2005093110    10.2599052050
H      -2.6227032800     1.8412518110    10.4321503050
