88
Step 1 | NEB Image 1 | Cartesian Angstrom
Ni      1.2285271350     0.7092904720     2.0000000000
Ni     -6.1433728650     0.7092904720     2.0000000000
Ni      2.4570542700     2.8371618880     2.0000000000
Ni     -4.9148457300     2.8371618880     2.0000000000
Ni      0.0000000000    -1.4185809440     2.0000000000
Ni     -7.3719000000    -1.4185809440     2.0000000000
Ni      3.6855814050     0.7092904720     2.0000000000
Ni     -3.6863185950     0.7092904720     2.0000000000
Ni      4.9141085400     2.8371618880     2.0000000000
Ni     -2.4577914600     2.8371618880     2.0000000000
Ni      2.4570542700    -1.4185809440     2.0000000000
Ni     -4.9148457300    -1.4185809440     2.0000000000
Ni      6.1433728650     0.7092904720     2.0000000000
Ni     -1.2285271350     0.7092904720     2.0000000000
Ni      7.3719000000     2.8371618880     2.0000000000
Ni      0.0000000000     2.8371618880     2.0000000000
Ni      4.9148457300    -1.4185809440     2.0000000000
Ni     -2.4570542700    -1.4185809440     2.0000000000
Ni      0.0345187234    -0.0219895959     3.9906686506
Ni     -7.3332872529    -0.0205271350     3.9970929970
Ni      1.2574298371     2.1090479016     3.9981086770
Ni     -6.1061214153     2.1042281316     4.0017605185
Ni     -1.1958375155    -2.1495425789     3.9888614873
Ni     -8.5615731291    -2.1597422030     3.9935633301
Ni      2.4909200515    -0.0209290578     3.9889124626
Ni     -4.8775455868    -0.0288695998     4.0155932973
Ni      3.7235299523     2.1102350339     3.9932622384
Ni     -3.6483031855     2.1055811522     4.0174271749
Ni      1.2597529797    -2.1544756242     3.9969618463
Ni     -6.1074652262    -2.1506208434     4.0019689283
Ni      4.9550771908    -0.0234645643     3.9935565644
Ni     -2.4269867653    -0.0199772708     3.9982338911
Ni      6.1741097051     2.1083418571     4.0046158614
Ni     -1.1996729370     2.1123145435     4.0000024585
Ni      3.7197951829    -2.1539414756     3.9921760547
Ni     -3.6589301935    -2.1514998115     3.9994955107
Ni      1.2136841869     0.7163863979     5.9963073096
Ni     -6.1473437226     0.7096773911     6.0218176054
Ni      2.4453295017     2.8415084524     5.9971730433
Ni     -4.9231971923     2.8360653972     6.0327934449
Ni     -0.0226348385    -1.4110330430     6.0020236029
Ni     -7.3908667378    -1.4145678834     5.9981301391
Ni      3.6669417345     0.7157583701     5.9869138182
Ni     -3.7108784987     0.7190435175     6.0328517480
Ni      4.9057976617     2.8388244163     6.0411982092
Ni     -2.4814248435     2.8298458387     6.0521186228
Ni      2.4355069788    -1.4085502466     5.9888639843
Ni     -4.9252928465    -1.4026264080     6.0548563839
Ni      6.1341025786     0.7315238745     6.0218817427
Ni     -1.2402669783     0.7221835538     5.9926808095
Ni      7.3408175190     2.8291688103     6.0248565089
Ni     -0.0225097209     2.8466795557     6.0142376281
Ni      4.9088271165    -1.4251457534     5.9900387779
Ni     -2.4790699264    -1.4211153466     5.9913638200
Ni      0.0337137405    -0.0099863123     8.0038502320
Ni     -7.3606520147    -0.0334139511     7.9835827732
Ni      1.2525382386     2.1076756093     8.0014158677
Ni      8.5596645315     2.1514300915     7.9633346422
Ni     -1.1983605499    -2.1613845897     8.0018652759
Ni     -8.5927669864    -2.1264268734     8.0165035337
Ni      2.4708324722    -0.0109047600     8.0065027389
Ni     -4.8995212632    -0.0584838282     8.1493062015
Ni      3.6789469906     2.1047412898     7.9888648741
Ni     -3.6333178494     2.1270714900     8.1546283531
Ni      1.2394335961    -2.1164979174     7.9892760222
Ni     -6.1305722611    -2.1461024656     7.9989212299
Ni      4.9150163145    -0.0283439881     7.9490640309
Ni     -2.3653823178    -0.0601929248     7.9425724452
Ni      6.1349712758     2.1197335004     8.1598232492
Ni     -1.1861990586     2.1067384809     8.0263285947
Ni      3.6953023012    -2.1157302873     7.9694462946
Ni     -3.6468332403    -2.1628724713     8.0264725749
O       5.9486020032     1.9536774433    10.1568983318
H       6.2023593986     1.0444615420    10.4395396161
H       7.6485803319     2.9982816350    10.7947394844
H       2.3841835216    -2.5662265370    10.9995346326
C       6.5922936452     2.8570131008    11.0871865803
O       6.8828593053     0.8516013498    12.3925733789
H      -6.8879959571     0.8254517200    12.3248078773
C       6.4620997723     2.2299052156    12.4710261049
H       5.3979785171     2.1706601767    12.7461907790
C       7.1981974178     3.0342299686    13.5247288963
H       3.2389656514    -2.2859498111    13.4051121917
H       8.2901195875     2.9478942375    13.3576433856
O       6.8260697992     2.5426661176    14.8120038538
H       7.2522042786     3.0948827032    15.4870039972
O      -4.3927237137     1.0982075682     9.5865509607
H      -3.6717371060     0.6667680985    10.0888232085
88
Step 2 | NEB Image 2 | Cartesian Angstrom
Ni      1.2285271350     0.7092904720     2.0000000000
Ni     -6.1433728650     0.7092904720     2.0000000000
Ni      2.4570542700     2.8371618880     2.0000000000
Ni     -4.9148457300     2.8371618880     2.0000000000
Ni      0.0000000000    -1.4185809440     2.0000000000
Ni     -7.3719000000    -1.4185809440     2.0000000000
Ni      3.6855814050     0.7092904720     2.0000000000
Ni     -3.6863185950     0.7092904720     2.0000000000
Ni      4.9141085400     2.8371618880     2.0000000000
Ni     -2.4577914600     2.8371618880     2.0000000000
Ni      2.4570542700    -1.4185809440     2.0000000000
Ni     -4.9148457300    -1.4185809440     2.0000000000
Ni      6.1433728650     0.7092904720     2.0000000000
Ni     -1.2285271350     0.7092904720     2.0000000000
Ni      7.3719000000     2.8371618880     2.0000000000
Ni      0.0000000000     2.8371618880     2.0000000000
Ni      4.9148457300    -1.4185809440     2.0000000000
Ni     -2.4570542700    -1.4185809440     2.0000000000
Ni      0.0451071792    -0.0257377894     3.9917585485
Ni     -7.3147100869    -0.0164349321     4.0075701633
Ni      1.2670183548     2.1067891119     3.9973820142
Ni     -6.0990655889     2.1056915646     4.0310223781
Ni     -1.1860486265    -2.1518886682     3.9887275125
Ni     -8.5494238155    -2.1624219983     4.0032164954
Ni      2.5048211693    -0.0267041418     3.9933367690
Ni     -4.8758834666    -0.0214901648     4.0263338772
Ni      3.7362585100     2.1056099487     3.9968150377
Ni     -3.6403276228     2.1085485123     4.0199534924
Ni      1.2718584242    -2.1571966781     3.9988199981
Ni     -6.0967577994    -2.1493191351     4.0054120734
Ni      4.9720620652    -0.0265018864     3.9975858610
Ni     -2.4203834873    -0.0197746383     3.9970977150
Ni      6.1910363548     2.1079674068     4.0108705823
Ni     -1.1922574145     2.1108791994     3.9988919202
Ni      3.7327022259    -2.1641564552     4.0009173745
Ni     -3.6526794712    -2.1469398438     4.0001908295
Ni      1.2302530572     0.7121538046     5.9955300903
Ni     -6.1109582034     0.7405148828     6.0949115695
Ni      2.4596705406     2.8385079943     5.9920655636
Ni     -4.9123239009     2.8236249610     6.0642728659
Ni     -0.0035883215    -1.4172593051     6.0023089431
Ni     -7.3653461287    -1.4076272540     6.0056364994
Ni      3.6855737971     0.7110586803     5.9915682738
Ni     -3.6869114799     0.7197376064     6.0364643726
Ni      4.9295349562     2.8322186053     6.0458359422
Ni     -2.4654291266     2.8384610681     6.0541144080
Ni      2.4552548444    -1.4194106086     5.9993107859
Ni     -4.9077621206    -1.3860883630     6.0610456451
Ni      6.1587334838     0.7211778284     6.0228218621
Ni     -1.2230696114     0.7197904020     5.9901576612
Ni      7.3699016301     2.8185270724     6.0820485405
Ni     -0.0072620715     2.8493645915     6.0053989755
Ni      4.9214319144    -1.4259034592     5.9908477078
Ni     -2.4598327481    -1.4218179700     5.9895708923
Ni      0.0524323119    -0.0176351432     8.0013163537
Ni     -7.3049332772    -0.0316195950     7.9913147457
Ni      1.2673774086     2.1097323861     7.9976069874
Ni      8.5841564172     2.2228425237     8.1762631509
Ni     -1.1814722718    -2.1610971134     7.9999561400
Ni     -8.5479139434    -2.0986456148     7.9867521667
Ni      2.4766825436    -0.0054802438     8.0072401019
Ni     -4.8225796304    -0.0284740901     8.2116805344
Ni      3.6842757399     2.1131051859     7.9873821299
Ni     -3.5691736492     2.1280973604     8.1397876961
Ni      1.2527976207    -2.1277253208     8.0069398471
Ni     -6.0809236759    -2.1315837922     8.0094318569
Ni      4.9203828931    -0.0212724407     7.9660146984
Ni     -2.3420112119    -0.0610030220     7.9489405955
Ni      6.1321692498     2.0946233446     8.1464997011
Ni     -1.1512761110     2.1069732293     8.0157939531
Ni      3.6895991424    -2.0817457895     7.9916983269
Ni     -3.6250303694    -2.1589085809     8.0228363045
O       6.2094183832     1.6355638764    10.0647709165
H       9.0611692749     2.2955045901     9.7937729475
H       8.3349014061     2.7302463665     9.7429807500
H       1.8756754467    -3.0398080616    10.9409907575
C       6.1329110231     2.4115369157    11.0366983659
O       7.3453131768     0.7508637075    12.2675988807
H      -7.4830829739     0.4307215910    11.3394298222
C       6.7502955193     2.0304184203    12.3409659905
H       5.9016133616     2.0592303740    13.0601920783
C       7.6533972416     3.1338783839    12.9902122863
H       3.5201726182    -2.2439729455    12.8622661848
H       8.6469907108     3.1383044288    12.5170090943
O       7.7255201105     2.8132472400    14.3836278286
H       8.3630242537     3.4055940732    14.8183899294
O      -4.1332664188     1.1066171722     9.6696276872
H      -3.3893747490     0.7870733455    10.2181900115
88
Step 3 | NEB Image 3 | Cartesian Angstrom
Ni      1.2285271350     0.7092904720     2.0000000000
Ni     -6.1433728650     0.7092904720     2.0000000000
Ni      2.4570542700     2.8371618880     2.0000000000
Ni     -4.9148457300     2.8371618880     2.0000000000
Ni      0.0000000000    -1.4185809440     2.0000000000
Ni     -7.3719000000    -1.4185809440     2.0000000000
Ni      3.6855814050     0.7092904720     2.0000000000
Ni     -3.6863185950     0.7092904720     2.0000000000
Ni      4.9141085400     2.8371618880     2.0000000000
Ni     -2.4577914600     2.8371618880     2.0000000000
Ni      2.4570542700    -1.4185809440     2.0000000000
Ni     -4.9148457300    -1.4185809440     2.0000000000
Ni      6.1433728650     0.7092904720     2.0000000000
Ni     -1.2285271350     0.7092904720     2.0000000000
Ni      7.3719000000     2.8371618880     2.0000000000
Ni      0.0000000000     2.8371618880     2.0000000000
Ni      4.9148457300    -1.4185809440     2.0000000000
Ni     -2.4570542700    -1.4185809440     2.0000000000
Ni      0.0346046864    -0.0169621671     3.9970655277
Ni     -7.3356972142    -0.0238821161     4.0008181961
Ni      1.2551579354     2.1070652865     3.9979110718
Ni     -6.0997574223     2.1093644693     3.9965661460
Ni     -1.1940285595    -2.1466020428     3.9957639962
Ni     -8.5666912698    -2.1411877752     4.0105471377
Ni      2.4942960181    -0.0121619879     4.0026460155
Ni     -4.8761320375    -0.0234786197     3.9987555129
Ni      3.7177889215     2.1031856937     3.9985910323
Ni     -3.6503118761     2.1130867718     4.0108242489
Ni      1.2658811847    -2.1456553040     3.9925637191
Ni     -6.1129937748    -2.1537069977     4.0081520392
Ni      4.9497287420    -0.0176132439     4.0115586467
Ni     -2.4245636848    -0.0191735361     3.9970994221
Ni      6.1821307133     2.1063654502     3.9978742609
Ni     -1.2032649749     2.1132988369     4.0049070647
Ni      3.7248459148    -2.1376797698     3.9863296585
Ni     -3.6524032535    -2.1528847092     3.9957187649
Ni      1.2153140134     0.7200758228     6.0147913269
Ni     -6.1681519498     0.7114718053     6.0076642745
Ni      2.4315892889     2.8474515516     5.9924418503
Ni     -4.9056021552     2.8511860700     6.0241123349
Ni     -0.0248862482    -1.4029007325     6.0029106837
Ni     -7.3723456922    -1.3891339183     6.0439197315
Ni      3.6871611499     0.7133976389     6.0478731943
Ni     -3.7032121900     0.7367714753     6.0226397362
Ni      4.8911196535     2.8564765038     5.9932274812
Ni     -2.4913160069     2.8347092136     6.0715938506
Ni      2.4373358534    -1.3997811894     6.0013305836
Ni     -4.9259123541    -1.4217367494     6.0068520313
Ni      6.1306743042     0.7127656298     6.0127637144
Ni     -1.2452454063     0.7231877290     6.0032967850
Ni      7.3644698503     2.8631479272     5.9775818014
Ni     -0.0263939058     2.8448610868     6.0157892720
Ni      4.9126329351    -1.3873837637     6.0376881910
Ni     -2.4869450336    -1.4090540706     6.0021789236
Ni      0.0064902868     0.0006181641     8.0105041117
Ni     -7.3279542095    -0.0075296303     8.1378327759
Ni      1.2394937998     2.1210873231     8.0132218596
Ni      8.6209443312     2.1498211117     7.9227740256
Ni     -1.2215530193    -2.1298980036     7.9988441479
Ni     -8.5800132215    -2.1412640281     8.0025289204
Ni      2.4580649867     0.0015206866     8.0270675186
Ni     -4.8887840373    -0.0342002165     7.9688190367
Ni      3.6516305983     2.1656635355     7.9760081984
Ni     -3.6704365390     2.1013264271     8.1812676570
Ni      1.2240018216    -2.1056409986     8.0013362568
Ni     -6.1201044618    -2.1297851415     8.0336482283
Ni      4.9007516092    -0.0135433795     8.1646634334
Ni     -2.4246119490    -0.0251017591     7.9798457168
Ni      6.1593238555     2.1901244572     7.9558378369
Ni     -1.1981674727     2.1122837147     8.0280955789
Ni      3.6943496624    -2.1002030147     7.9915373708
Ni     -3.6714924567    -2.1448425456     8.0222425826
O       6.1442680554     0.9308073518     9.3989524026
H      10.3472579234     2.6503065986    10.6282039469
H       6.8891900480     2.4868695535    10.5701561474
H       1.5132933147    -4.3233905803    10.8778670518
C       6.1903784168     1.6272628013    10.6709880499
O       7.1728193921    -0.3192226072    11.5674785637
H      -7.5703337497    -0.5568608576    10.5797841884
C       6.6733991915     0.8443372574    11.8383089900
H       6.6253776378     3.4109608769    12.9519523434
C       7.5867237689     3.7028495411    13.3926872463
H       3.9239713579    -1.5860371888    13.5086182132
H       8.3871578085     3.4072700610    12.6862574607
O       7.7007712135     3.0185318700    14.6404854152
H       8.2661904069     3.5429606177    15.2281524035
O      -4.0597545406     1.8131540445    10.2552759256
H      -3.2383193400     1.5931143418    10.7334893998
88
Step 4 | NEB Image 4 | Cartesian Angstrom
Ni      1.2285271350     0.7092904720     2.0000000000
Ni     -6.1433728650     0.7092904720     2.0000000000
Ni      2.4570542700     2.8371618880     2.0000000000
Ni     -4.9148457300     2.8371618880     2.0000000000
Ni      0.0000000000    -1.4185809440     2.0000000000
Ni     -7.3719000000    -1.4185809440     2.0000000000
Ni      3.6855814050     0.7092904720     2.0000000000
Ni     -3.6863185950     0.7092904720     2.0000000000
Ni      4.9141085400     2.8371618880     2.0000000000
Ni     -2.4577914600     2.8371618880     2.0000000000
Ni      2.4570542700    -1.4185809440     2.0000000000
Ni     -4.9148457300    -1.4185809440     2.0000000000
Ni      6.1433728650     0.7092904720     2.0000000000
Ni     -1.2285271350     0.7092904720     2.0000000000
Ni      7.3719000000     2.8371618880     2.0000000000
Ni      0.0000000000     2.8371618880     2.0000000000
Ni      4.9148457300    -1.4185809440     2.0000000000
Ni     -2.4570542700    -1.4185809440     2.0000000000
Ni      0.0362702231    -0.0139426497     3.9984889738
Ni     -7.3380084863    -0.0121700238     4.0002519662
Ni      1.2615229269     2.1116975274     3.9982945415
Ni     -6.1062927709     2.1178232357     3.9996201811
Ni     -1.1924533304    -2.1404064267     3.9982914634
Ni     -8.5689526305    -2.1404133700     4.0029816168
Ni      2.4962114499    -0.0095237422     4.0037400226
Ni     -4.8768804363    -0.0126088218     3.9963521223
Ni      3.7228723170     2.1108096018     4.0062797104
Ni     -3.6525233715     2.1162032076     4.0081763997
Ni      1.2641822550    -2.1443102695     3.9997870064
Ni     -6.1084515466    -2.1457999725     3.9973035178
Ni      4.9512407736    -0.0115036122     4.0124017035
Ni     -2.4259511956    -0.0123167633     3.9993350365
Ni      6.1795146396     2.1145498215     4.0072517116
Ni     -1.1980248851     2.1163417238     3.9991142393
Ni      3.7197238830    -2.1381209943     3.9911984563
Ni     -3.6478557574    -2.1447537526     3.9926131123
Ni      1.2132369486     0.7298733668     6.0133536850
Ni     -6.1660859302     0.7190869628     6.0120790527
Ni      2.4384815312     2.8561109232     5.9986662525
Ni     -4.9083247812     2.8507268937     6.0247819442
Ni     -0.0194475922    -1.3976325313     6.0098394998
Ni     -7.3793462765    -1.3822120866     6.0115554725
Ni      3.6830624217     0.7230494141     6.0486812830
Ni     -3.7002875485     0.7480145395     6.0368869142
Ni      4.9020636519     2.8585608865     6.0268838369
Ni     -2.4867515308     2.8469012000     6.0392382357
Ni      2.4347342138    -1.3932212287     6.0051473686
Ni     -4.9203401590    -1.4047126550     5.9955965794
Ni      6.1264429389     0.7309650436     6.0268690682
Ni     -1.2454830672     0.7296440472     6.0008448446
Ni      7.3591982766     2.8577831460     6.0079225460
Ni     -0.0211370220     2.8597325662     6.0055663748
Ni      4.9037532285    -1.3855775159     6.0232096555
Ni     -2.4809114590    -1.3980438928     6.0046412635
Ni      0.0031300774     0.0136477804     8.0129239512
Ni     -7.3286758898    -0.0144980907     8.1156389471
Ni      1.2382772183     2.1343894418     8.0096377015
Ni      8.6322108377     2.1525719080     7.9534065800
Ni     -1.2187949468    -2.1196462083     8.0049877929
Ni     -8.5904870810    -2.1381433957     7.9656416868
Ni      2.4504911514     0.0124401756     8.0271247207
Ni     -4.8854856710    -0.0143973315     7.9841719826
Ni      3.6541805148     2.1670043937     7.9951077109
Ni     -3.6638403107     2.1212954897     8.1798145204
Ni      1.2249353913    -2.0982354941     8.0192346996
Ni     -6.1143998750    -2.1162517404     7.9871515126
Ni      4.8945917158    -0.0163445991     8.1319051205
Ni     -2.4241858635    -0.0139128638     7.9936764341
Ni      6.1634289233     2.2000284334     8.0598213734
Ni     -1.1933582582     2.1281033885     7.9980754964
Ni      3.6871151696    -2.0999935994     7.9961518516
Ni     -3.6709068775    -2.1280507197     8.0168249046
O       6.1697040617     0.8147306490     9.3972085014
H      10.9844714667     3.0604338576    10.5698696795
H       6.9318619678     1.8793624760    11.0232006041
H       1.6861284404    -5.3203894181    11.2944786387
C       6.3550321650     0.9564378437    10.8128706698
O       7.7947519463    -0.9756765899    10.8715299566
H      -6.9016684729    -0.9119141086     9.6914449752
C       7.1274059598    -0.1211446604    11.5078926992
H       8.1858019576     4.2724796030    11.7993945267
C       8.4004895390     4.3102354011    12.8771007159
H       3.8958529930    -1.5261501494    13.3746102753
H       9.3418988318     4.8660690297    13.0244853611
O       8.4958356058     2.9530376341    13.3264991094
H       8.8692484634     2.9559201822    14.2230326067
O      -3.7154667830     2.1277802483    10.2770859552
H      -2.8198028935     1.8175747237    10.5166461282
88
Step 5 | NEB Image 5 | Cartesian Angstrom
Ni      1.2285271350     0.7092904720     2.0000000000
Ni     -6.1433728650     0.7092904720     2.0000000000
Ni      2.4570542700     2.8371618880     2.0000000000
Ni     -4.9148457300     2.8371618880     2.0000000000
Ni      0.0000000000    -1.4185809440     2.0000000000
Ni     -7.3719000000    -1.4185809440     2.0000000000
Ni      3.6855814050     0.7092904720     2.0000000000
Ni     -3.6863185950     0.7092904720     2.0000000000
Ni      4.9141085400     2.8371618880     2.0000000000
Ni     -2.4577914600     2.8371618880     2.0000000000
Ni      2.4570542700    -1.4185809440     2.0000000000
Ni     -4.9148457300    -1.4185809440     2.0000000000
Ni      6.1433728650     0.7092904720     2.0000000000
Ni     -1.2285271350     0.7092904720     2.0000000000
Ni      7.3719000000     2.8371618880     2.0000000000
Ni      0.0000000000     2.8371618880     2.0000000000
Ni      4.9148457300    -1.4185809440     2.0000000000
Ni     -2.4570542700    -1.4185809440     2.0000000000
Ni      0.0464326620    -0.0306468460     3.9976675890
Ni     -7.3257303870    -0.0255862300     3.9933782980
Ni      1.2739848450     2.0960038070     3.9979157030
Ni     -6.1026021170     2.1049500680     4.0019149180
Ni     -1.1827110610    -2.1546561820     3.9989053170
Ni     -8.5597082650    -2.1592869340     3.9982394010
Ni      2.5024778430    -0.0256743600     4.0031952220
Ni     -4.8641413240    -0.0227350050     3.9956475690
Ni      3.7346756480     2.0985190290     4.0083618800
Ni     -3.6458198020     2.0991473590     4.0056686860
Ni      1.2703768650    -2.1597674920     4.0015811390
Ni     -6.0933336510    -2.1603781540     3.9902680500
Ni      4.9590538200    -0.0289845540     4.0074783820
Ni     -2.4167678920    -0.0248088220     4.0022401470
Ni      6.1885777810     2.1026461420     4.0098077600
Ni     -1.1844811720     2.0985803670     3.9964394390
Ni      3.7245308300    -2.1560713310     3.9888953010
Ni     -3.6351397940    -2.1574140910     3.9933365850
Ni      1.2278611130     0.7073057200     6.0134419810
Ni     -6.1428898530     0.6957346210     6.0102358510
Ni      2.4563605190     2.8356121920     5.9987058000
Ni     -4.8924583120     2.8187736320     6.0264580820
Ni      0.0002252210    -1.4241376010     6.0155868270
Ni     -7.3667991100    -1.4101212980     5.9895528060
Ni      3.6921281460     0.7008202940     6.0360645010
Ni     -3.6779272240     0.7256007260     6.0512861550
Ni      4.9267336850     2.8309168990     6.0432780270
Ni     -2.4664659500     2.8157315660     6.0151173370
Ni      2.4509011280    -1.4197685090     6.0062316800
Ni     -4.8985683740    -1.4191884620     5.9881596610
Ni      6.1372839650     0.7115480370     6.0073921100
Ni     -1.2256557510     0.7019370040     6.0032560690
Ni      7.3730564330     2.8242126570     6.0269074010
Ni     -0.0034566730     2.8405670140     6.0010880700
Ni      4.9162369820    -1.4189308570     6.0083232610
Ni     -2.4596272260    -1.4182314770     6.0084483810
Ni      0.0277268390    -0.0168450280     8.0180888710
Ni     -7.3091221710    -0.0327920680     8.0371701400
Ni      1.2611452740     2.1078740620     8.0062525300
Ni      8.6667549770     2.1138793650     7.9801313330
Ni     -1.1942402360    -2.1496555940     8.0109921590
Ni     -8.5668484660    -2.1735761150     7.9430911750
Ni      2.4712577410    -0.0190631580     8.0243063390
Ni     -4.8670711400    -0.0431110720     7.9967287920
Ni      3.6750137580     2.1321536040     7.9940007810
Ni     -3.6274773380     2.0999917070     8.2089215290
Ni      1.2517815200    -2.1329879940     8.0267060850
Ni     -6.0785108950    -2.1534189890     7.9361595560
Ni      4.9123316280    -0.0512787390     8.0829089500
Ni     -2.4007725170    -0.0429334740     8.0081832520
Ni      6.1908597070     2.1505617180     8.1094472440
Ni     -1.1654360560     2.0989982700     7.9806126390
Ni      3.7077660390    -2.1419918620     7.9975968800
Ni     -3.6463297530    -2.1524111230     8.0158878220
O       6.1707187590     0.6663307040     9.3727337630
H      11.2555922500     3.1706166680    10.5266232770
H       7.1149227860     1.0824741990    11.1550798120
H       1.6297081310    -5.3793991980    11.2177269450
C       6.2238707100     0.5353136510    10.8108846880
O       7.5718415080    -1.5277099790    10.9241884940
H      -6.8828388710    -1.2337967880    10.0124245870
C       6.2850334910    -0.9302036460    11.2182633770
H       9.1791669060     4.9099545600    10.6626973770
C       9.7467965870     5.2786349730    12.7161077750
H       5.0959169980    -0.6608682970    12.9933131080
H      10.5457770910     5.8077082870    13.2666670860
O       9.6783811350     3.9068622240    13.1006105230
H      10.5447055700     3.5019751520    12.9206205020
O      -3.5153567700     2.2005093110    10.2599052050
H      -2.6227032800     1.8412518110    10.4321503050
