88
Step 1 | NEB Image 1 | Cartesian Angstrom
Ni      1.2285271350     0.7092904720     2.0000000000
Ni     -6.1433728650     0.7092904720     2.0000000000
Ni      2.4570542700     2.8371618880     2.0000000000
Ni     -4.9148457300     2.8371618880     2.0000000000
Ni      0.0000000000    -1.4185809440     2.0000000000
Ni     -7.3719000000    -1.4185809440     2.0000000000
Ni      3.6855814050     0.7092904720     2.0000000000
Ni     -3.6863185950     0.7092904720     2.0000000000
Ni      4.9141085400     2.8371618880     2.0000000000
Ni     -2.4577914600     2.8371618880     2.0000000000
Ni      2.4570542700    -1.4185809440     2.0000000000
Ni     -4.9148457300    -1.4185809440     2.0000000000
Ni      6.1433728650     0.7092904720     2.0000000000
Ni     -1.2285271350     0.7092904720     2.0000000000
Ni      7.3719000000     2.8371618880     2.0000000000
Ni      0.0000000000     2.8371618880     2.0000000000
Ni      4.9148457300    -1.4185809440     2.0000000000
Ni     -2.4570542700    -1.4185809440     2.0000000000
Ni      0.0345187234    -0.0219895959     3.9906686506
Ni     -7.3332872529    -0.0205271350     3.9970929970
Ni      1.2574298371     2.1090479016     3.9981086770
Ni     -6.1061214153     2.1042281316     4.0017605185
Ni     -1.1958375155    -2.1495425789     3.9888614873
Ni     -8.5615731291    -2.1597422030     3.9935633301
Ni      2.4909200515    -0.0209290578     3.9889124626
Ni     -4.8775455868    -0.0288695998     4.0155932973
Ni      3.7235299523     2.1102350339     3.9932622384
Ni     -3.6483031855     2.1055811522     4.0174271749
Ni      1.2597529797    -2.1544756242     3.9969618463
Ni     -6.1074652262    -2.1506208434     4.0019689283
Ni      4.9550771908    -0.0234645643     3.9935565644
Ni     -2.4269867653    -0.0199772708     3.9982338911
Ni      6.1741097051     2.1083418571     4.0046158614
Ni     -1.1996729370     2.1123145435     4.0000024585
Ni      3.7197951829    -2.1539414756     3.9921760547
Ni     -3.6589301935    -2.1514998115     3.9994955107
Ni      1.2136841869     0.7163863979     5.9963073096
Ni     -6.1473437226     0.7096773911     6.0218176054
Ni      2.4453295017     2.8415084524     5.9971730433
Ni     -4.9231971923     2.8360653972     6.0327934449
Ni     -0.0226348385    -1.4110330430     6.0020236029
Ni     -7.3908667378    -1.4145678834     5.9981301391
Ni      3.6669417345     0.7157583701     5.9869138182
Ni     -3.7108784987     0.7190435175     6.0328517480
Ni      4.9057976617     2.8388244163     6.0411982092
Ni     -2.4814248435     2.8298458387     6.0521186228
Ni      2.4355069788    -1.4085502466     5.9888639843
Ni     -4.9252928465    -1.4026264080     6.0548563839
Ni      6.1341025786     0.7315238745     6.0218817427
Ni     -1.2402669783     0.7221835538     5.9926808095
Ni      7.3408175190     2.8291688103     6.0248565089
Ni     -0.0225097209     2.8466795557     6.0142376281
Ni      4.9088271165    -1.4251457534     5.9900387779
Ni     -2.4790699264    -1.4211153466     5.9913638200
Ni      0.0337137405    -0.0099863123     8.0038502320
Ni     -7.3606520147    -0.0334139511     7.9835827732
Ni      1.2525382386     2.1076756093     8.0014158677
Ni      8.5596645315     2.1514300915     7.9633346422
Ni     -1.1983605499    -2.1613845897     8.0018652759
Ni     -8.5927669864    -2.1264268734     8.0165035337
Ni      2.4708324722    -0.0109047600     8.0065027389
Ni     -4.8995212632    -0.0584838282     8.1493062015
Ni      3.6789469906     2.1047412898     7.9888648741
Ni     -3.6333178494     2.1270714900     8.1546283531
Ni      1.2394335961    -2.1164979174     7.9892760222
Ni     -6.1305722611    -2.1461024656     7.9989212299
Ni      4.9150163145    -0.0283439881     7.9490640309
Ni     -2.3653823178    -0.0601929248     7.9425724452
Ni      6.1349712758     2.1197335004     8.1598232492
Ni     -1.1861990586     2.1067384809     8.0263285947
Ni      3.6953023012    -2.1157302873     7.9694462946
Ni     -3.6468332403    -2.1628724713     8.0264725749
O       5.9486020032     1.9536774433    10.1568983318
H       6.2023593986     1.0444615420    10.4395396161
H       7.6485803319     2.9982816350    10.7947394844
H       2.3841835216    -2.5662265370    10.9995346326
C       6.5922936452     2.8570131008    11.0871865803
O       6.8828593053     0.8516013498    12.3925733789
H      -6.8879959571     0.8254517200    12.3248078773
C       6.4620997723     2.2299052156    12.4710261049
H       5.3979785171     2.1706601767    12.7461907790
C       7.1981974178     3.0342299686    13.5247288963
H       3.2389656514    -2.2859498111    13.4051121917
H       8.2901195875     2.9478942375    13.3576433856
O       6.8260697992     2.5426661176    14.8120038538
H       7.2522042786     3.0948827032    15.4870039972
O      -4.3927237137     1.0982075682     9.5865509607
H      -3.6717371060     0.6667680985    10.0888232085
88
Step 2 | NEB Image 2 | Cartesian Angstrom
Ni      1.2285271350     0.7092904720     2.0000000000
Ni     -6.1433728650     0.7092904720     2.0000000000
Ni      2.4570542700     2.8371618880     2.0000000000
Ni     -4.9148457300     2.8371618880     2.0000000000
Ni      0.0000000000    -1.4185809440     2.0000000000
Ni     -7.3719000000    -1.4185809440     2.0000000000
Ni      3.6855814050     0.7092904720     2.0000000000
Ni     -3.6863185950     0.7092904720     2.0000000000
Ni      4.9141085400     2.8371618880     2.0000000000
Ni     -2.4577914600     2.8371618880     2.0000000000
Ni      2.4570542700    -1.4185809440     2.0000000000
Ni     -4.9148457300    -1.4185809440     2.0000000000
Ni      6.1433728650     0.7092904720     2.0000000000
Ni     -1.2285271350     0.7092904720     2.0000000000
Ni      7.3719000000     2.8371618880     2.0000000000
Ni      0.0000000000     2.8371618880     2.0000000000
Ni      4.9148457300    -1.4185809440     2.0000000000
Ni     -2.4570542700    -1.4185809440     2.0000000000
Ni      0.0364169289    -0.0148360056     3.9922889145
Ni     -7.3213033663    -0.0069947543     4.0070029738
Ni      1.2588668176     2.1179142907     3.9959725389
Ni     -6.1058516407     2.1163623533     4.0282918878
Ni     -1.1928351159    -2.1398180681     3.9890108092
Ni     -8.5574084665    -2.1497850392     4.0040959676
Ni      2.4949221023    -0.0158912358     3.9924793779
Ni     -4.8801109962    -0.0093071351     4.0264657845
Ni      3.7263550762     2.1152988472     3.9956967649
Ni     -3.6460096024     2.1202698089     4.0185975006
Ni      1.2636578155    -2.1459750351     3.9998724141
Ni     -6.1031403405    -2.1361858382     4.0068156879
Ni      4.9629848974    -0.0178315439     3.9987509216
Ni     -2.4277753031    -0.0066891503     3.9994021722
Ni      6.1807714779     2.1174589493     4.0052866323
Ni     -1.1983646172     2.1230879374     3.9984572606
Ni      3.7245335209    -2.1518493001     4.0009680951
Ni     -3.6580035907    -2.1343171386     4.0006045267
Ni      1.2182682193     0.7306998636     5.9955507120
Ni     -6.1219798008     0.7530312748     6.0914032087
Ni      2.4456512523     2.8572636869     5.9899190820
Ni     -4.9233974875     2.8432378553     6.0588074441
Ni     -0.0147204575    -1.3987983692     6.0059664039
Ni     -7.3790780482    -1.3924563573     6.0094078839
Ni      3.6725834474     0.7261210002     5.9908942723
Ni     -3.6996774717     0.7407329550     6.0432436757
Ni      4.9131850042     2.8507095193     6.0405866973
Ni     -2.4730737861     2.8594048662     6.0502587551
Ni      2.4409819632    -1.4013590718     6.0010898710
Ni     -4.9156283125    -1.3657436073     6.0618401341
Ni      6.1442869133     0.7357344020     6.0148748632
Ni     -1.2343611230     0.7392189972     5.9923015963
Ni      7.3530418232     2.8335838650     6.0697984986
Ni     -0.0169883150     2.8703942337     6.0048828519
Ni      4.9081774550    -1.4126971546     5.9987451770
Ni     -2.4689788557    -1.4015535337     5.9918747643
Ni      0.0366715144     0.0058958657     8.0027791959
Ni     -7.3199303791    -0.0144680702     7.9880476217
Ni      1.2496654933     2.1322150468     7.9974531139
Ni      8.5721387755     2.2252523094     8.1728391691
Ni     -1.1960727995    -2.1389845258     8.0026364748
Ni     -8.5645674632    -2.0835110028     8.0045411624
Ni      2.4590166088     0.0129306127     8.0067495401
Ni     -4.8162551592     0.0011461610     8.2449570299
Ni      3.6623766662     2.1336283460     7.9804769238
Ni     -3.5849922731     2.1705384748     8.1340222727
Ni      1.2368551353    -2.1115748762     8.0142023174
Ni     -6.0873566364    -2.0991505322     8.0094387519
Ni      4.9021917816    -0.0091913192     7.9637273718
Ni     -2.3545766955    -0.0359850777     7.9524464013
Ni      6.1073712951     2.1143307249     8.1328311098
Ni     -1.1655177453     2.1357041269     8.0111642050
Ni      3.6701747849    -2.0759272322     7.9902422366
Ni     -3.6374512690    -2.1326449494     8.0265757599
O       6.1227281649     1.4536112621    10.0338651580
H       9.0459910143     2.6463411759     9.6974726086
H       8.2670653685     2.2580648516     9.7747143110
H       1.5145508844    -3.4792209170    11.0995131177
C       5.9440848512     2.0980204170    11.0853009077
O       7.3566688332     0.4949069925    12.1541047134
H      -7.4972087871     0.2152612767    11.2123896514
C       6.6793521130     1.7270119012    12.3326326741
H       5.9030538622     1.6937891112    13.1282128435
C       7.5355603915     2.9233911787    12.9407368567
H       3.4015715866    -2.4761088464    12.6959857515
H       8.5473301109     2.8964829830    12.5167621183
O       7.5676522979     2.7607965982    14.3668103345
H       8.2106618872     3.3886319513    14.7450481470
O      -4.0682169475     1.1729296112     9.6794007201
H      -3.2596407367     0.9323173603    10.1764550324
88
Step 3 | NEB Image 3 | Cartesian Angstrom
Ni      1.2285271350     0.7092904720     2.0000000000
Ni     -6.1433728650     0.7092904720     2.0000000000
Ni      2.4570542700     2.8371618880     2.0000000000
Ni     -4.9148457300     2.8371618880     2.0000000000
Ni      0.0000000000    -1.4185809440     2.0000000000
Ni     -7.3719000000    -1.4185809440     2.0000000000
Ni      3.6855814050     0.7092904720     2.0000000000
Ni     -3.6863185950     0.7092904720     2.0000000000
Ni      4.9141085400     2.8371618880     2.0000000000
Ni     -2.4577914600     2.8371618880     2.0000000000
Ni      2.4570542700    -1.4185809440     2.0000000000
Ni     -4.9148457300    -1.4185809440     2.0000000000
Ni      6.1433728650     0.7092904720     2.0000000000
Ni     -1.2285271350     0.7092904720     2.0000000000
Ni      7.3719000000     2.8371618880     2.0000000000
Ni      0.0000000000     2.8371618880     2.0000000000
Ni      4.9148457300    -1.4185809440     2.0000000000
Ni     -2.4570542700    -1.4185809440     2.0000000000
Ni      0.0289313646    -0.0085487561     3.9967375353
Ni     -7.3415920680    -0.0137522203     4.0000529801
Ni      1.2513475938     2.1153355545     3.9967113744
Ni     -6.1056273118     2.1184194305     3.9974034293
Ni     -1.1989100041    -2.1371496546     3.9957356500
Ni     -8.5716187737    -2.1351887162     4.0084061426
Ni      2.4891979313    -0.0046594567     4.0022689638
Ni     -4.8819048486    -0.0135259674     3.9976757696
Ni      3.7145379553     2.1125362710     3.9992522058
Ni     -3.6561130424     2.1205503022     4.0099773103
Ni      1.2600599503    -2.1381516878     3.9941706509
Ni     -6.1167572969    -2.1441862984     4.0040829392
Ni      4.9457144869    -0.0095716931     4.0110882624
Ni     -2.4307152286    -0.0099419811     3.9967399779
Ni      6.1772524494     2.1155675420     4.0003947637
Ni     -1.2070251728     2.1211844461     4.0016880196
Ni      3.7185752541    -2.1312989315     3.9856475150
Ni     -3.6563329253    -2.1432095074     3.9939999442
Ni      1.2042311277     0.7342927728     6.0136661132
Ni     -6.1795079149     0.7249717304     6.0087786009
Ni      2.4239155302     2.8615641000     5.9909947007
Ni     -4.9148860193     2.8603590571     6.0266185140
Ni     -0.0324553340    -1.3892595226     6.0044207903
Ni     -7.3848508319    -1.3753442043     6.0332431498
Ni      3.6745943649     0.7274448016     6.0436268373
Ni     -3.7127591338     0.7499859642     6.0269607085
Ni      4.8856172464     2.8692774845     6.0014460646
Ni     -2.4986893352     2.8510066612     6.0582055559
Ni      2.4277637544    -1.3870204185     6.0014733092
Ni     -4.9341563495    -1.4058640067     6.0032607300
Ni      6.1180747290     0.7322858494     6.0148779142
Ni     -1.2563735602     0.7365551522     6.0020473204
Ni      7.3554568460     2.8722522483     5.9852661463
Ni     -0.0339224790     2.8608593401     6.0109920549
Ni      4.9007465281    -1.3788449347     6.0301112250
Ni     -2.4948086949    -1.3943073926     6.0019958927
Ni     -0.0116405448     0.0214060157     8.0108778990
Ni     -7.3533950133     0.0049319666     8.1302922892
Ni      1.2250756064     2.1414187793     8.0104003746
Ni      8.6117186985     2.1611587648     7.9355675394
Ni     -1.2351716932    -2.1121281528     7.9984869724
Ni     -8.5934063448    -2.1280436902     7.9924275509
Ni      2.4365392398     0.0198794468     8.0259786603
Ni     -4.9090839827    -0.0137776739     7.9734052917
Ni      3.6367456815     2.1817635818     7.9747618383
Ni     -3.6816150450     2.1175299158     8.1735989725
Ni      1.2084587167    -2.0859418595     8.0075093993
Ni     -6.1341356124    -2.1100147470     8.0201096391
Ni      4.8757046211    -0.0096340151     8.1388673121
Ni     -2.4405905176    -0.0085242183     7.9840824412
Ni      6.1508612328     2.2195112139     7.9900509615
Ni     -1.2105830544     2.1332348836     8.0152919376
Ni      3.6772724918    -2.0890457924     7.9917203708
Ni     -3.6873920749    -2.1238164717     8.0201933178
O       6.0804776883     0.9170390638     9.3686438013
H      10.5743277228     2.8716086727    10.5667593704
H       6.7372706234     2.2280196667    10.8439422505
H       1.3855574403    -4.7244556436    11.0279608720
C       6.0857678056     1.3359991981    10.7448749068
O       7.1399127206    -0.7256003280    11.2487869828
H      -7.5434909825    -0.7859135083    10.2100545537
C       6.5946894506     0.3380897053    11.7311163611
H       6.4719864986     3.2414511050    13.1999412416
C       7.4578160651     3.6023054909    13.5163769890
H       3.8151424986    -1.6936889718    13.3396772608
H       8.2227252482     3.1055601023    12.8924307503
O       7.5950509160     3.2658965416    14.8959319409
H       8.4127032337     3.6710672402    15.2269567088
O      -3.9016215494     1.9788008841    10.2726804776
H      -3.0041509952     1.8333630147    10.6298275353
88
Step 4 | NEB Image 4 | Cartesian Angstrom
Ni      1.2285271350     0.7092904720     2.0000000000
Ni     -6.1433728650     0.7092904720     2.0000000000
Ni      2.4570542700     2.8371618880     2.0000000000
Ni     -4.9148457300     2.8371618880     2.0000000000
Ni      0.0000000000    -1.4185809440     2.0000000000
Ni     -7.3719000000    -1.4185809440     2.0000000000
Ni      3.6855814050     0.7092904720     2.0000000000
Ni     -3.6863185950     0.7092904720     2.0000000000
Ni      4.9141085400     2.8371618880     2.0000000000
Ni     -2.4577914600     2.8371618880     2.0000000000
Ni      2.4570542700    -1.4185809440     2.0000000000
Ni     -4.9148457300    -1.4185809440     2.0000000000
Ni      6.1433728650     0.7092904720     2.0000000000
Ni     -1.2285271350     0.7092904720     2.0000000000
Ni      7.3719000000     2.8371618880     2.0000000000
Ni      0.0000000000     2.8371618880     2.0000000000
Ni      4.9148457300    -1.4185809440     2.0000000000
Ni     -2.4570542700    -1.4185809440     2.0000000000
Ni      0.0327603288    -0.0254304160     4.0021717588
Ni     -7.3400471470    -0.0229771421     4.0063877433
Ni      1.2652649360     2.1009879228     3.9947176092
Ni     -6.1077041610     2.1013328077     4.0057130438
Ni     -1.1949327603    -2.1502640786     4.0016318231
Ni     -8.5633528074    -2.1528910025     4.0066905288
Ni      2.4982797258    -0.0165757611     4.0044194638
Ni     -4.8817293182    -0.0215313725     4.0098417991
Ni      3.7254145125     2.1074731019     4.0099953869
Ni     -3.6496139013     2.1055041157     4.0091437688
Ni      1.2670683291    -2.1555635242     4.0031902007
Ni     -6.1046229839    -2.1532036447     4.0004256945
Ni      4.9543324767    -0.0181581144     4.0139775049
Ni     -2.4279867974    -0.0262535994     3.9947769587
Ni      6.1816240252     2.1020255177     4.0114508914
Ni     -1.1998996922     2.1045857563     4.0033616499
Ni      3.7210544322    -2.1475506232     3.9909962371
Ni     -3.6513962340    -2.1509865608     3.9959206726
Ni      1.2116286976     0.7143536494     6.0122851041
Ni     -6.1665393900     0.6961889075     6.0279356581
Ni      2.4421879341     2.8408018851     6.0022822144
Ni     -4.9148464259     2.8255039241     6.0215898815
Ni     -0.0143973213    -1.4183595915     6.0111432681
Ni     -7.3831994743    -1.4007472508     6.0233918888
Ni      3.6855270765     0.7086523402     6.0494442459
Ni     -3.6860644385     0.7303248573     6.0145283943
Ni      4.9124090361     2.8358630748     6.0360650004
Ni     -2.4895376968     2.8469690610     6.0327961545
Ni      2.4352714235    -1.4040042558     6.0078132275
Ni     -4.9246579171    -1.4229840696     6.0146067833
Ni      6.1326644551     0.7093658446     6.0407909295
Ni     -1.2556180201     0.7155707972     6.0031101268
Ni      7.3587799866     2.8409266166     6.0112948235
Ni     -0.0150359833     2.8427938721     5.9941515374
Ni      4.8987125411    -1.4036048717     6.0166251343
Ni     -2.4832968767    -1.4126404546     6.0100862574
Ni      0.0000465373    -0.0108860607     8.0076323019
Ni     -7.3322865190    -0.0141867365     8.1161192303
Ni      1.2344844955     2.1117827938     8.0065643752
Ni      8.6292427191     2.1373386657     7.9717970385
Ni     -1.2184162482    -2.1413936746     8.0068002399
Ni     -8.6057893038    -2.1637003937     7.9565945882
Ni      2.4435899448    -0.0088506959     8.0297751106
Ni     -4.7948219237     0.0249892372     7.9727197014
Ni      3.6541657451     2.1410385817     7.9987985700
Ni     -3.6540918851     2.1052661323     8.1351049325
Ni      1.2273486033    -2.1275171491     8.0229875683
Ni     -6.1165865579    -2.1588544414     8.0142610487
Ni      4.8875029939    -0.0514568527     8.1270835820
Ni     -2.4127512373    -0.0425425206     8.0036300693
Ni      6.1616981345     2.1663997905     8.0757456915
Ni     -1.1860971121     2.1081407998     7.9846364570
Ni      3.6759981988    -2.1304897876     7.9978401431
Ni     -3.6656628705    -2.1605360210     8.0201137920
O       6.1170662883     0.7567989875     9.4433112591
H      11.2337850204     3.1657973591    10.4466237269
H       6.8808856325     1.8274338454    11.0682961225
H       1.5984429110    -5.3274047106    11.3270430273
C       6.2687151447     0.9334100358    10.8484097206
O       7.5320621822    -1.1915106154    11.1892242712
H      -5.9306454896    -0.7235522990     8.8349193371
C       6.9759652800    -0.1933704873    11.5510808337
H       8.0546816152     4.3974105231    11.7231094478
C       8.2234426728     4.3169196659    12.8066359028
H       3.6788227557    -1.6353164860    13.3478287394
H       9.1245814709     4.9086159310    13.0543523571
O       8.3814492650     2.9189868796    13.0797498429
H       8.5901773160     2.8009027032    14.0221845765
O      -3.6195966723     2.2110039847    10.2466633150
H      -2.7514504549     1.8005173557    10.4348426470
88
Step 5 | NEB Image 5 | Cartesian Angstrom
Ni      1.2285271350     0.7092904720     2.0000000000
Ni     -6.1433728650     0.7092904720     2.0000000000
Ni      2.4570542700     2.8371618880     2.0000000000
Ni     -4.9148457300     2.8371618880     2.0000000000
Ni      0.0000000000    -1.4185809440     2.0000000000
Ni     -7.3719000000    -1.4185809440     2.0000000000
Ni      3.6855814050     0.7092904720     2.0000000000
Ni     -3.6863185950     0.7092904720     2.0000000000
Ni      4.9141085400     2.8371618880     2.0000000000
Ni     -2.4577914600     2.8371618880     2.0000000000
Ni      2.4570542700    -1.4185809440     2.0000000000
Ni     -4.9148457300    -1.4185809440     2.0000000000
Ni      6.1433728650     0.7092904720     2.0000000000
Ni     -1.2285271350     0.7092904720     2.0000000000
Ni      7.3719000000     2.8371618880     2.0000000000
Ni      0.0000000000     2.8371618880     2.0000000000
Ni      4.9148457300    -1.4185809440     2.0000000000
Ni     -2.4570542700    -1.4185809440     2.0000000000
Ni      0.0464326620    -0.0306468460     3.9976675890
Ni     -7.3257303870    -0.0255862300     3.9933782980
Ni      1.2739848450     2.0960038070     3.9979157030
Ni     -6.1026021170     2.1049500680     4.0019149180
Ni     -1.1827110610    -2.1546561820     3.9989053170
Ni     -8.5597082650    -2.1592869340     3.9982394010
Ni      2.5024778430    -0.0256743600     4.0031952220
Ni     -4.8641413240    -0.0227350050     3.9956475690
Ni      3.7346756480     2.0985190290     4.0083618800
Ni     -3.6458198020     2.0991473590     4.0056686860
Ni      1.2703768650    -2.1597674920     4.0015811390
Ni     -6.0933336510    -2.1603781540     3.9902680500
Ni      4.9590538200    -0.0289845540     4.0074783820
Ni     -2.4167678920    -0.0248088220     4.0022401470
Ni      6.1885777810     2.1026461420     4.0098077600
Ni     -1.1844811720     2.0985803670     3.9964394390
Ni      3.7245308300    -2.1560713310     3.9888953010
Ni     -3.6351397940    -2.1574140910     3.9933365850
Ni      1.2278611130     0.7073057200     6.0134419810
Ni     -6.1428898530     0.6957346210     6.0102358510
Ni      2.4563605190     2.8356121920     5.9987058000
Ni     -4.8924583120     2.8187736320     6.0264580820
Ni      0.0002252210    -1.4241376010     6.0155868270
Ni     -7.3667991100    -1.4101212980     5.9895528060
Ni      3.6921281460     0.7008202940     6.0360645010
Ni     -3.6779272240     0.7256007260     6.0512861550
Ni      4.9267336850     2.8309168990     6.0432780270
Ni     -2.4664659500     2.8157315660     6.0151173370
Ni      2.4509011280    -1.4197685090     6.0062316800
Ni     -4.8985683740    -1.4191884620     5.9881596610
Ni      6.1372839650     0.7115480370     6.0073921100
Ni     -1.2256557510     0.7019370040     6.0032560690
Ni      7.3730564330     2.8242126570     6.0269074010
Ni     -0.0034566730     2.8405670140     6.0010880700
Ni      4.9162369820    -1.4189308570     6.0083232610
Ni     -2.4596272260    -1.4182314770     6.0084483810
Ni      0.0277268390    -0.0168450280     8.0180888710
Ni     -7.3091221710    -0.0327920680     8.0371701400
Ni      1.2611452740     2.1078740620     8.0062525300
Ni      8.6667549770     2.1138793650     7.9801313330
Ni     -1.1942402360    -2.1496555940     8.0109921590
Ni     -8.5668484660    -2.1735761150     7.9430911750
Ni      2.4712577410    -0.0190631580     8.0243063390
Ni     -4.8670711400    -0.0431110720     7.9967287920
Ni      3.6750137580     2.1321536040     7.9940007810
Ni     -3.6274773380     2.0999917070     8.2089215290
Ni      1.2517815200    -2.1329879940     8.0267060850
Ni     -6.0785108950    -2.1534189890     7.9361595560
Ni      4.9123316280    -0.0512787390     8.0829089500
Ni     -2.4007725170    -0.0429334740     8.0081832520
Ni      6.1908597070     2.1505617180     8.1094472440
Ni     -1.1654360560     2.0989982700     7.9806126390
Ni      3.7077660390    -2.1419918620     7.9975968800
Ni     -3.6463297530    -2.1524111230     8.0158878220
O       6.1707187590     0.6663307040     9.3727337630
H      11.2555922500     3.1706166680    10.5266232770
H       7.1149227860     1.0824741990    11.1550798120
H       1.6297081310    -5.3793991980    11.2177269450
C       6.2238707100     0.5353136510    10.8108846880
O       7.5718415080    -1.5277099790    10.9241884940
H      -6.8828388710    -1.2337967880    10.0124245870
C       6.2850334910    -0.9302036460    11.2182633770
H       9.1791669060     4.9099545600    10.6626973770
C       9.7467965870     5.2786349730    12.7161077750
H       5.0959169980    -0.6608682970    12.9933131080
H      10.5457770910     5.8077082870    13.2666670860
O       9.6783811350     3.9068622240    13.1006105230
H      10.5447055700     3.5019751520    12.9206205020
O      -3.5153567700     2.2005093110    10.2599052050
H      -2.6227032800     1.8412518110    10.4321503050
