88
Step 1 | NEB Image 1 | Cartesian Angstrom
Ni      1.2285271350     0.7092904720     2.0000000000
Ni     -6.1433728650     0.7092904720     2.0000000000
Ni      2.4570542700     2.8371618880     2.0000000000
Ni     -4.9148457300     2.8371618880     2.0000000000
Ni      0.0000000000    -1.4185809440     2.0000000000
Ni     -7.3719000000    -1.4185809440     2.0000000000
Ni      3.6855814050     0.7092904720     2.0000000000
Ni     -3.6863185950     0.7092904720     2.0000000000
Ni      4.9141085400     2.8371618880     2.0000000000
Ni     -2.4577914600     2.8371618880     2.0000000000
Ni      2.4570542700    -1.4185809440     2.0000000000
Ni     -4.9148457300    -1.4185809440     2.0000000000
Ni      6.1433728650     0.7092904720     2.0000000000
Ni     -1.2285271350     0.7092904720     2.0000000000
Ni      7.3719000000     2.8371618880     2.0000000000
Ni      0.0000000000     2.8371618880     2.0000000000
Ni      4.9148457300    -1.4185809440     2.0000000000
Ni     -2.4570542700    -1.4185809440     2.0000000000
Ni      0.0345187234    -0.0219895959     3.9906686506
Ni     -7.3332872529    -0.0205271350     3.9970929970
Ni      1.2574298371     2.1090479016     3.9981086770
Ni     -6.1061214153     2.1042281316     4.0017605185
Ni     -1.1958375155    -2.1495425789     3.9888614873
Ni     -8.5615731291    -2.1597422030     3.9935633301
Ni      2.4909200515    -0.0209290578     3.9889124626
Ni     -4.8775455868    -0.0288695998     4.0155932973
Ni      3.7235299523     2.1102350339     3.9932622384
Ni     -3.6483031855     2.1055811522     4.0174271749
Ni      1.2597529797    -2.1544756242     3.9969618463
Ni     -6.1074652262    -2.1506208434     4.0019689283
Ni      4.9550771908    -0.0234645643     3.9935565644
Ni     -2.4269867653    -0.0199772708     3.9982338911
Ni      6.1741097051     2.1083418571     4.0046158614
Ni     -1.1996729370     2.1123145435     4.0000024585
Ni      3.7197951829    -2.1539414756     3.9921760547
Ni     -3.6589301935    -2.1514998115     3.9994955107
Ni      1.2136841869     0.7163863979     5.9963073096
Ni     -6.1473437226     0.7096773911     6.0218176054
Ni      2.4453295017     2.8415084524     5.9971730433
Ni     -4.9231971923     2.8360653972     6.0327934449
Ni     -0.0226348385    -1.4110330430     6.0020236029
Ni     -7.3908667378    -1.4145678834     5.9981301391
Ni      3.6669417345     0.7157583701     5.9869138182
Ni     -3.7108784987     0.7190435175     6.0328517480
Ni      4.9057976617     2.8388244163     6.0411982092
Ni     -2.4814248435     2.8298458387     6.0521186228
Ni      2.4355069788    -1.4085502466     5.9888639843
Ni     -4.9252928465    -1.4026264080     6.0548563839
Ni      6.1341025786     0.7315238745     6.0218817427
Ni     -1.2402669783     0.7221835538     5.9926808095
Ni      7.3408175190     2.8291688103     6.0248565089
Ni     -0.0225097209     2.8466795557     6.0142376281
Ni      4.9088271165    -1.4251457534     5.9900387779
Ni     -2.4790699264    -1.4211153466     5.9913638200
Ni      0.0337137405    -0.0099863123     8.0038502320
Ni     -7.3606520147    -0.0334139511     7.9835827732
Ni      1.2525382386     2.1076756093     8.0014158677
Ni      8.5596645315     2.1514300915     7.9633346422
Ni     -1.1983605499    -2.1613845897     8.0018652759
Ni     -8.5927669864    -2.1264268734     8.0165035337
Ni      2.4708324722    -0.0109047600     8.0065027389
Ni     -4.8995212632    -0.0584838282     8.1493062015
Ni      3.6789469906     2.1047412898     7.9888648741
Ni     -3.6333178494     2.1270714900     8.1546283531
Ni      1.2394335961    -2.1164979174     7.9892760222
Ni     -6.1305722611    -2.1461024656     7.9989212299
Ni      4.9150163145    -0.0283439881     7.9490640309
Ni     -2.3653823178    -0.0601929248     7.9425724452
Ni      6.1349712758     2.1197335004     8.1598232492
Ni     -1.1861990586     2.1067384809     8.0263285947
Ni      3.6953023012    -2.1157302873     7.9694462946
Ni     -3.6468332403    -2.1628724713     8.0264725749
O       5.9486020032     1.9536774433    10.1568983318
H       6.2023593986     1.0444615420    10.4395396161
H       7.6485803319     2.9982816350    10.7947394844
H       2.3841835216    -2.5662265370    10.9995346326
C       6.5922936452     2.8570131008    11.0871865803
O       6.8828593053     0.8516013498    12.3925733789
H      -6.8879959571     0.8254517200    12.3248078773
C       6.4620997723     2.2299052156    12.4710261049
H       5.3979785171     2.1706601767    12.7461907790
C       7.1981974178     3.0342299686    13.5247288963
H       3.2389656514    -2.2859498111    13.4051121917
H       8.2901195875     2.9478942375    13.3576433856
O       6.8260697992     2.5426661176    14.8120038538
H       7.2522042786     3.0948827032    15.4870039972
O      -4.3927237137     1.0982075682     9.5865509607
H      -3.6717371060     0.6667680985    10.0888232085
88
Step 2 | NEB Image 2 | Cartesian Angstrom
Ni      1.2285271350     0.7092904720     2.0000000000
Ni     -6.1433728650     0.7092904720     2.0000000000
Ni      2.4570542700     2.8371618880     2.0000000000
Ni     -4.9148457300     2.8371618880     2.0000000000
Ni      0.0000000000    -1.4185809440     2.0000000000
Ni     -7.3719000000    -1.4185809440     2.0000000000
Ni      3.6855814050     0.7092904720     2.0000000000
Ni     -3.6863185950     0.7092904720     2.0000000000
Ni      4.9141085400     2.8371618880     2.0000000000
Ni     -2.4577914600     2.8371618880     2.0000000000
Ni      2.4570542700    -1.4185809440     2.0000000000
Ni     -4.9148457300    -1.4185809440     2.0000000000
Ni      6.1433728650     0.7092904720     2.0000000000
Ni     -1.2285271350     0.7092904720     2.0000000000
Ni      7.3719000000     2.8371618880     2.0000000000
Ni      0.0000000000     2.8371618880     2.0000000000
Ni      4.9148457300    -1.4185809440     2.0000000000
Ni     -2.4570542700    -1.4185809440     2.0000000000
Ni      0.0390644739    -0.0152609777     3.9926808519
Ni     -7.3186247934    -0.0073375222     4.0046367763
Ni      1.2619608429     2.1174048477     3.9976718961
Ni     -6.1040546977     2.1146894250     4.0296613090
Ni     -1.1913321171    -2.1405937545     3.9896200655
Ni     -8.5543117919    -2.1513912772     4.0003354222
Ni      2.4972125354    -0.0181787778     3.9920337226
Ni     -4.8777348742    -0.0101667307     4.0269408197
Ni      3.7291174869     2.1147761758     3.9955857113
Ni     -3.6429413779     2.1191347911     4.0189472900
Ni      1.2647969226    -2.1474166789     3.9985072714
Ni     -6.0994007433    -2.1372787858     4.0048853032
Ni      4.9649816736    -0.0188397710     3.9957194022
Ni     -2.4241077148    -0.0078258667     3.9992268313
Ni      6.1831672036     2.1160189166     4.0052319778
Ni     -1.1951703902     2.1223939195     3.9995339483
Ni      3.7265057144    -2.1551465865     3.9991626005
Ni     -3.6555992470    -2.1347295730     4.0019768202
Ni      1.2226175569     0.7282166097     5.9952719560
Ni     -6.1155312566     0.7501254287     6.0914817733
Ni      2.4515601616     2.8553638090     5.9916380828
Ni     -4.9188644998     2.8404252253     6.0547024753
Ni     -0.0098594614    -1.4013504096     6.0056194817
Ni     -7.3729301612    -1.3944186163     6.0035157389
Ni      3.6758229709     0.7235939725     5.9869039001
Ni     -3.6921361126     0.7374006380     6.0413076109
Ni      4.9187434668     2.8458206796     6.0404842324
Ni     -2.4680320549     2.8586995054     6.0503720565
Ni      2.4454849013    -1.4061894229     5.9984946827
Ni     -4.9096397481    -1.3676502536     6.0635175592
Ni      6.1500609781     0.7314236654     6.0132995096
Ni     -1.2285795418     0.7378866410     5.9931683847
Ni      7.3554581907     2.8306079619     6.0705976406
Ni     -0.0116197645     2.8691690265     6.0070585110
Ni      4.9121057069    -1.4161202279     5.9914257222
Ni     -2.4632057925    -1.4032464218     5.9933833141
Ni      0.0462758470     0.0002216977     8.0036742215
Ni     -7.3136378945    -0.0186556616     7.9852490298
Ni      1.2600672534     2.1261768528     7.9979032566
Ni      8.5691995087     2.2293797299     8.1442562225
Ni     -1.1869344922    -2.1444081219     8.0043065885
Ni     -8.5562335229    -2.0847312976     7.9923263688
Ni      2.4668671075     0.0079191487     8.0041033117
Ni     -4.8136827385    -0.0053942021     8.2399164925
Ni      3.6722056250     2.1265946417     7.9815280079
Ni     -3.5799993954     2.1656525616     8.1277903326
Ni      1.2458805916    -2.1179654253     8.0114915577
Ni     -6.0810740669    -2.1029985708     8.0093412234
Ni      4.9089473281    -0.0124797544     7.9563241375
Ni     -2.3445744316    -0.0400294140     7.9539684701
Ni      6.1119331194     2.1035596294     8.1357612307
Ni     -1.1579416461     2.1312156035     8.0130361431
Ni      3.6763377895    -2.0732607059     7.9889121798
Ni     -3.6277565280    -2.1372472299     8.0293196444
O       6.1218828142     1.5015973953    10.0565892907
H       9.0613926375     2.5173354171     9.7022830762
H       8.2190415228     2.3599691943     9.7304646576
H       1.6836812967    -3.2650006592    11.0170048373
C       6.0172288670     2.2333109856    11.0594617669
O       7.3860277263     0.6299737901    12.2044273583
H      -7.5016753697     0.2948306692    11.2891958879
C       6.7164219067     1.8682981090    12.3275096976
H       5.9071682871     1.8342921127    13.0909217421
C       7.5895775318     3.0200370100    12.9325174936
H       3.4458683033    -2.3741379534    12.7389540820
H       8.5880456570     3.0048627103    12.4702618924
O       7.6545351728     2.7854716731    14.3441240684
H       8.2731841216     3.4199049076    14.7461713989
O      -4.0937347771     1.1561667500     9.6652846950
H      -3.3063279053     0.8996475578    10.1857503215
88
Step 3 | NEB Image 3 | Cartesian Angstrom
Ni      1.2285271350     0.7092904720     2.0000000000
Ni     -6.1433728650     0.7092904720     2.0000000000
Ni      2.4570542700     2.8371618880     2.0000000000
Ni     -4.9148457300     2.8371618880     2.0000000000
Ni      0.0000000000    -1.4185809440     2.0000000000
Ni     -7.3719000000    -1.4185809440     2.0000000000
Ni      3.6855814050     0.7092904720     2.0000000000
Ni     -3.6863185950     0.7092904720     2.0000000000
Ni      4.9141085400     2.8371618880     2.0000000000
Ni     -2.4577914600     2.8371618880     2.0000000000
Ni      2.4570542700    -1.4185809440     2.0000000000
Ni     -4.9148457300    -1.4185809440     2.0000000000
Ni      6.1433728650     0.7092904720     2.0000000000
Ni     -1.2285271350     0.7092904720     2.0000000000
Ni      7.3719000000     2.8371618880     2.0000000000
Ni      0.0000000000     2.8371618880     2.0000000000
Ni      4.9148457300    -1.4185809440     2.0000000000
Ni     -2.4570542700    -1.4185809440     2.0000000000
Ni      0.0328396737    -0.0117811778     3.9964742535
Ni     -7.3376421643    -0.0179777648     3.9992235499
Ni      1.2545314238     2.1121592156     3.9965894121
Ni     -6.1016169629     2.1150248708     3.9968255777
Ni     -1.1951484286    -2.1406563880     3.9948445276
Ni     -8.5684465334    -2.1381313769     4.0089826161
Ni      2.4925783219    -0.0080393998     4.0013817256
Ni     -4.8778815674    -0.0171982229     3.9978207474
Ni      3.7175689789     2.1083780070     3.9974442634
Ni     -3.6522425006     2.1181060115     4.0107826242
Ni      1.2639159682    -2.1413273661     3.9926548821
Ni     -6.1135070353    -2.1478194787     4.0053629151
Ni      4.9486239771    -0.0139430424     4.0100443717
Ni     -2.4263104805    -0.0130706447     3.9965745061
Ni      6.1809923753     2.1118702807     3.9984354130
Ni     -1.2037486850     2.1184384505     4.0029515638
Ni      3.7224574989    -2.1340797374     3.9854882014
Ni     -3.6530416418    -2.1465852652     3.9946637433
Ni      1.2106625373     0.7286545172     6.0134857574
Ni     -6.1732849281     0.7205061849     6.0073124589
Ni      2.4288135644     2.8564178989     5.9898025610
Ni     -4.9096216517     2.8565896978     6.0267401404
Ni     -0.0270536079    -1.3944694463     6.0035227454
Ni     -7.3788954644    -1.3815941972     6.0359371480
Ni      3.6807161060     0.7213750976     6.0426386085
Ni     -3.7067688872     0.7444380008     6.0240589768
Ni      4.8891521082     2.8642679714     5.9959416337
Ni     -2.4935934401     2.8449165653     6.0639746453
Ni      2.4335233141    -1.3929450336     6.0006957045
Ni     -4.9295900083    -1.4112225820     6.0048701830
Ni      6.1235365523     0.7242948633     6.0105330480
Ni     -1.2493532698     0.7319442402     6.0027737767
Ni      7.3614148454     2.8686203241     5.9818110477
Ni     -0.0289676036     2.8553028779     6.0126016939
Ni      4.9070903783    -1.3826929341     6.0338472613
Ni     -2.4893712151    -1.3997109278     6.0012997173
Ni     -0.0022945679     0.0128839302     8.0109860581
Ni     -7.3483388056     0.0034796407     8.1222897927
Ni      1.2322310931     2.1334094611     8.0104477716
Ni      8.6157212233     2.1569376752     7.9320133503
Ni     -1.2280350686    -2.1196387739     7.9977506249
Ni     -8.5861016247    -2.1323675340     7.9995480613
Ni      2.4463517320     0.0114473469     8.0251156314
Ni     -4.9013420540    -0.0208898383     7.9712341786
Ni      3.6429139164     2.1748450391     7.9713227851
Ni     -3.6749007208     2.1111474679     8.1726169778
Ni      1.2160766585    -2.0941121801     8.0047577837
Ni     -6.1286633938    -2.1156855463     8.0257799920
Ni      4.8852412669    -0.0124048022     8.1493080314
Ni     -2.4319078675    -0.0152296667     7.9810094792
Ni      6.1562932095     2.2078285659     7.9715125193
Ni     -1.2038962344     2.1260283267     8.0210522278
Ni      3.6852823851    -2.0935200842     7.9918861034
Ni     -3.6797573988    -2.1311423804     8.0203963762
O       6.0838199964     0.9386413468     9.3843486485
H      10.4682965438     2.7684881674    10.5695141746
H       6.7802285453     2.3823268873    10.7027900829
H       1.4212027755    -4.5269427935    10.9833197724
C       6.1129822632     1.4958938115    10.7160364312
O       7.1373404352    -0.5198036177    11.3872586077
H      -7.6143967660    -0.6625907288    10.3713703049
C       6.6340486258     0.6012259339    11.7867231072
H       6.5236298808     3.3415937440    13.1101892317
C       7.5045419866     3.6709362448    13.4773728742
H       3.8690508460    -1.6113996221    13.4310260426
H       8.2794477467     3.2532186968    12.8051869783
O       7.6195342755     3.1761398020    14.8113603456
H       8.3830297128     3.6006017711    15.2343137184
O      -3.9792329695     1.8931774422    10.2512797096
H      -3.1142170097     1.7141388286    10.6672841309
88
Step 4 | NEB Image 4 | Cartesian Angstrom
Ni      1.2285271350     0.7092904720     2.0000000000
Ni     -6.1433728650     0.7092904720     2.0000000000
Ni      2.4570542700     2.8371618880     2.0000000000
Ni     -4.9148457300     2.8371618880     2.0000000000
Ni      0.0000000000    -1.4185809440     2.0000000000
Ni     -7.3719000000    -1.4185809440     2.0000000000
Ni      3.6855814050     0.7092904720     2.0000000000
Ni     -3.6863185950     0.7092904720     2.0000000000
Ni      4.9141085400     2.8371618880     2.0000000000
Ni     -2.4577914600     2.8371618880     2.0000000000
Ni      2.4570542700    -1.4185809440     2.0000000000
Ni     -4.9148457300    -1.4185809440     2.0000000000
Ni      6.1433728650     0.7092904720     2.0000000000
Ni     -1.2285271350     0.7092904720     2.0000000000
Ni      7.3719000000     2.8371618880     2.0000000000
Ni      0.0000000000     2.8371618880     2.0000000000
Ni      4.9148457300    -1.4185809440     2.0000000000
Ni     -2.4570542700    -1.4185809440     2.0000000000
Ni      0.0397961939    -0.0162441319     3.9971620393
Ni     -7.3373869128    -0.0098050928     3.9976352652
Ni      1.2655779474     2.1105703051     3.9995446066
Ni     -6.1077282463     2.1197081749     4.0009244465
Ni     -1.1884097147    -2.1416684448     3.9964749716
Ni     -8.5673891896    -2.1417183675     4.0036358855
Ni      2.4972635975    -0.0102008613     4.0036771213
Ni     -4.8762176254    -0.0111502161     3.9886946527
Ni      3.7267996417     2.1089342738     4.0086662158
Ni     -3.6567717537     2.1129425601     3.9988274317
Ni      1.2659431370    -2.1453353434     4.0004937862
Ni     -6.1053356257    -2.1472175463     3.9938142941
Ni      4.9516852052    -0.0156945795     4.0112757559
Ni     -2.4252293359    -0.0122840284     4.0001158467
Ni      6.1804963223     2.1170565794     4.0042990275
Ni     -1.1908537221     2.1122547743     3.9906163292
Ni      3.7215923835    -2.1380961976     3.9951502127
Ni     -3.6434997668    -2.1468895877     3.9895581940
Ni      1.2149905905     0.7303059569     6.0136561413
Ni     -6.1627837815     0.7216148102     6.0102214873
Ni      2.4403642116     2.8552093710     5.9975910042
Ni     -4.9002453316     2.8529936435     6.0306483779
Ni     -0.0157295164    -1.3989607809     6.0100932942
Ni     -7.3752690372    -1.3831465546     5.9992908862
Ni      3.6837428846     0.7202057451     6.0495006583
Ni     -3.7021131461     0.7412017457     6.0401540738
Ni      4.9069619713     2.8586931167     6.0331895255
Ni     -2.4747337781     2.8283317069     6.0070557876
Ni      2.4375999288    -1.3938455399     6.0055353218
Ni     -4.9095455631    -1.3992717159     5.9817847530
Ni      6.1256143025     0.7365059265     6.0220136626
Ni     -1.2396807633     0.7219485193     5.9960174034
Ni      7.3592734904     2.8564748980     6.0147282820
Ni     -0.0218845726     2.8609228261     6.0076585310
Ni      4.9113033452    -1.3888583987     6.0335926952
Ni     -2.4725551660    -1.4025193734     5.9997260373
Ni      0.0116563389     0.0068225272     8.0147720873
Ni     -7.3434733216     0.0022628363     8.0909457569
Ni      1.2454745003     2.1326023916     8.0127418702
Ni      8.6351919345     2.1553631760     7.9576223216
Ni     -1.2078865297    -2.1227414741     8.0068287354
Ni     -8.5768387648    -2.1414415333     7.9825632315
Ni      2.4503463935     0.0121872599     8.0291060788
Ni     -4.8768119956    -0.0152416638     7.9911686395
Ni      3.6602377602     2.1635252109     7.9959928477
Ni     -3.6653860298     2.1124751353     8.1663447366
Ni      1.2310140859    -2.1014315118     8.0220072285
Ni     -6.0761827371    -2.1562388739     7.9553680818
Ni      4.8912097937    -0.0131959091     8.1250777096
Ni     -2.4141881670    -0.0222091270     7.9940984292
Ni      6.1653622929     2.1852626061     8.0752652679
Ni     -1.1836916569     2.1114149067     7.9897846174
Ni      3.6882703948    -2.1044054139     7.9970183771
Ni     -3.6497883161    -2.1307519344     8.0139173155
O       6.1493829008     0.7769400740     9.4435817722
H      11.1169390998     3.1102874886    10.5090673883
H       6.8693503559     1.8609072084    11.0689064742
H       1.6357539189    -5.3820296135    11.3354718612
C       6.3065071013     0.9377332483    10.8490636274
O       7.6754093432    -1.1145545231    11.2072270302
H      -6.7165253835    -1.1425682853     9.0152588867
C       7.0760220205    -0.1508570123    11.5576476361
H       8.0740255433     4.3083721842    11.7683138196
C       8.3252339943     4.3071335801    12.8376977580
H       3.8262557857    -1.5765500775    13.3889198963
H       9.2550818656     4.8854136633    12.9811391597
O       8.4847285282     2.9369316261    13.2204576622
H       8.6850332984     2.9062861500    14.1704528724
O      -3.6694711018     2.1596745245    10.2743145531
H      -2.7839305704     1.7995448144    10.4816171762
88
Step 5 | NEB Image 5 | Cartesian Angstrom
Ni      1.2285271350     0.7092904720     2.0000000000
Ni     -6.1433728650     0.7092904720     2.0000000000
Ni      2.4570542700     2.8371618880     2.0000000000
Ni     -4.9148457300     2.8371618880     2.0000000000
Ni      0.0000000000    -1.4185809440     2.0000000000
Ni     -7.3719000000    -1.4185809440     2.0000000000
Ni      3.6855814050     0.7092904720     2.0000000000
Ni     -3.6863185950     0.7092904720     2.0000000000
Ni      4.9141085400     2.8371618880     2.0000000000
Ni     -2.4577914600     2.8371618880     2.0000000000
Ni      2.4570542700    -1.4185809440     2.0000000000
Ni     -4.9148457300    -1.4185809440     2.0000000000
Ni      6.1433728650     0.7092904720     2.0000000000
Ni     -1.2285271350     0.7092904720     2.0000000000
Ni      7.3719000000     2.8371618880     2.0000000000
Ni      0.0000000000     2.8371618880     2.0000000000
Ni      4.9148457300    -1.4185809440     2.0000000000
Ni     -2.4570542700    -1.4185809440     2.0000000000
Ni      0.0464326620    -0.0306468460     3.9976675890
Ni     -7.3257303870    -0.0255862300     3.9933782980
Ni      1.2739848450     2.0960038070     3.9979157030
Ni     -6.1026021170     2.1049500680     4.0019149180
Ni     -1.1827110610    -2.1546561820     3.9989053170
Ni     -8.5597082650    -2.1592869340     3.9982394010
Ni      2.5024778430    -0.0256743600     4.0031952220
Ni     -4.8641413240    -0.0227350050     3.9956475690
Ni      3.7346756480     2.0985190290     4.0083618800
Ni     -3.6458198020     2.0991473590     4.0056686860
Ni      1.2703768650    -2.1597674920     4.0015811390
Ni     -6.0933336510    -2.1603781540     3.9902680500
Ni      4.9590538200    -0.0289845540     4.0074783820
Ni     -2.4167678920    -0.0248088220     4.0022401470
Ni      6.1885777810     2.1026461420     4.0098077600
Ni     -1.1844811720     2.0985803670     3.9964394390
Ni      3.7245308300    -2.1560713310     3.9888953010
Ni     -3.6351397940    -2.1574140910     3.9933365850
Ni      1.2278611130     0.7073057200     6.0134419810
Ni     -6.1428898530     0.6957346210     6.0102358510
Ni      2.4563605190     2.8356121920     5.9987058000
Ni     -4.8924583120     2.8187736320     6.0264580820
Ni      0.0002252210    -1.4241376010     6.0155868270
Ni     -7.3667991100    -1.4101212980     5.9895528060
Ni      3.6921281460     0.7008202940     6.0360645010
Ni     -3.6779272240     0.7256007260     6.0512861550
Ni      4.9267336850     2.8309168990     6.0432780270
Ni     -2.4664659500     2.8157315660     6.0151173370
Ni      2.4509011280    -1.4197685090     6.0062316800
Ni     -4.8985683740    -1.4191884620     5.9881596610
Ni      6.1372839650     0.7115480370     6.0073921100
Ni     -1.2256557510     0.7019370040     6.0032560690
Ni      7.3730564330     2.8242126570     6.0269074010
Ni     -0.0034566730     2.8405670140     6.0010880700
Ni      4.9162369820    -1.4189308570     6.0083232610
Ni     -2.4596272260    -1.4182314770     6.0084483810
Ni      0.0277268390    -0.0168450280     8.0180888710
Ni     -7.3091221710    -0.0327920680     8.0371701400
Ni      1.2611452740     2.1078740620     8.0062525300
Ni      8.6667549770     2.1138793650     7.9801313330
Ni     -1.1942402360    -2.1496555940     8.0109921590
Ni     -8.5668484660    -2.1735761150     7.9430911750
Ni      2.4712577410    -0.0190631580     8.0243063390
Ni     -4.8670711400    -0.0431110720     7.9967287920
Ni      3.6750137580     2.1321536040     7.9940007810
Ni     -3.6274773380     2.0999917070     8.2089215290
Ni      1.2517815200    -2.1329879940     8.0267060850
Ni     -6.0785108950    -2.1534189890     7.9361595560
Ni      4.9123316280    -0.0512787390     8.0829089500
Ni     -2.4007725170    -0.0429334740     8.0081832520
Ni      6.1908597070     2.1505617180     8.1094472440
Ni     -1.1654360560     2.0989982700     7.9806126390
Ni      3.7077660390    -2.1419918620     7.9975968800
Ni     -3.6463297530    -2.1524111230     8.0158878220
O       6.1707187590     0.6663307040     9.3727337630
H      11.2555922500     3.1706166680    10.5266232770
H       7.1149227860     1.0824741990    11.1550798120
H       1.6297081310    -5.3793991980    11.2177269450
C       6.2238707100     0.5353136510    10.8108846880
O       7.5718415080    -1.5277099790    10.9241884940
H      -6.8828388710    -1.2337967880    10.0124245870
C       6.2850334910    -0.9302036460    11.2182633770
H       9.1791669060     4.9099545600    10.6626973770
C       9.7467965870     5.2786349730    12.7161077750
H       5.0959169980    -0.6608682970    12.9933131080
H      10.5457770910     5.8077082870    13.2666670860
O       9.6783811350     3.9068622240    13.1006105230
H      10.5447055700     3.5019751520    12.9206205020
O      -3.5153567700     2.2005093110    10.2599052050
H      -2.6227032800     1.8412518110    10.4321503050
