88
Step 1 | NEB Image 1 | Cartesian Angstrom
Ni      1.2285271350     0.7092904720     2.0000000000
Ni     -6.1433728650     0.7092904720     2.0000000000
Ni      2.4570542700     2.8371618880     2.0000000000
Ni     -4.9148457300     2.8371618880     2.0000000000
Ni      0.0000000000    -1.4185809440     2.0000000000
Ni     -7.3719000000    -1.4185809440     2.0000000000
Ni      3.6855814050     0.7092904720     2.0000000000
Ni     -3.6863185950     0.7092904720     2.0000000000
Ni      4.9141085400     2.8371618880     2.0000000000
Ni     -2.4577914600     2.8371618880     2.0000000000
Ni      2.4570542700    -1.4185809440     2.0000000000
Ni     -4.9148457300    -1.4185809440     2.0000000000
Ni      6.1433728650     0.7092904720     2.0000000000
Ni     -1.2285271350     0.7092904720     2.0000000000
Ni      7.3719000000     2.8371618880     2.0000000000
Ni      0.0000000000     2.8371618880     2.0000000000
Ni      4.9148457300    -1.4185809440     2.0000000000
Ni     -2.4570542700    -1.4185809440     2.0000000000
Ni      0.0345187234    -0.0219895959     3.9906686506
Ni     -7.3332872529    -0.0205271350     3.9970929970
Ni      1.2574298371     2.1090479016     3.9981086770
Ni     -6.1061214153     2.1042281316     4.0017605185
Ni     -1.1958375155    -2.1495425789     3.9888614873
Ni     -8.5615731291    -2.1597422030     3.9935633301
Ni      2.4909200515    -0.0209290578     3.9889124626
Ni     -4.8775455868    -0.0288695998     4.0155932973
Ni      3.7235299523     2.1102350339     3.9932622384
Ni     -3.6483031855     2.1055811522     4.0174271749
Ni      1.2597529797    -2.1544756242     3.9969618463
Ni     -6.1074652262    -2.1506208434     4.0019689283
Ni      4.9550771908    -0.0234645643     3.9935565644
Ni     -2.4269867653    -0.0199772708     3.9982338911
Ni      6.1741097051     2.1083418571     4.0046158614
Ni     -1.1996729370     2.1123145435     4.0000024585
Ni      3.7197951829    -2.1539414756     3.9921760547
Ni     -3.6589301935    -2.1514998115     3.9994955107
Ni      1.2136841869     0.7163863979     5.9963073096
Ni     -6.1473437226     0.7096773911     6.0218176054
Ni      2.4453295017     2.8415084524     5.9971730433
Ni     -4.9231971923     2.8360653972     6.0327934449
Ni     -0.0226348385    -1.4110330430     6.0020236029
Ni     -7.3908667378    -1.4145678834     5.9981301391
Ni      3.6669417345     0.7157583701     5.9869138182
Ni     -3.7108784987     0.7190435175     6.0328517480
Ni      4.9057976617     2.8388244163     6.0411982092
Ni     -2.4814248435     2.8298458387     6.0521186228
Ni      2.4355069788    -1.4085502466     5.9888639843
Ni     -4.9252928465    -1.4026264080     6.0548563839
Ni      6.1341025786     0.7315238745     6.0218817427
Ni     -1.2402669783     0.7221835538     5.9926808095
Ni      7.3408175190     2.8291688103     6.0248565089
Ni     -0.0225097209     2.8466795557     6.0142376281
Ni      4.9088271165    -1.4251457534     5.9900387779
Ni     -2.4790699264    -1.4211153466     5.9913638200
Ni      0.0337137405    -0.0099863123     8.0038502320
Ni     -7.3606520147    -0.0334139511     7.9835827732
Ni      1.2525382386     2.1076756093     8.0014158677
Ni      8.5596645315     2.1514300915     7.9633346422
Ni     -1.1983605499    -2.1613845897     8.0018652759
Ni     -8.5927669864    -2.1264268734     8.0165035337
Ni      2.4708324722    -0.0109047600     8.0065027389
Ni     -4.8995212632    -0.0584838282     8.1493062015
Ni      3.6789469906     2.1047412898     7.9888648741
Ni     -3.6333178494     2.1270714900     8.1546283531
Ni      1.2394335961    -2.1164979174     7.9892760222
Ni     -6.1305722611    -2.1461024656     7.9989212299
Ni      4.9150163145    -0.0283439881     7.9490640309
Ni     -2.3653823178    -0.0601929248     7.9425724452
Ni      6.1349712758     2.1197335004     8.1598232492
Ni     -1.1861990586     2.1067384809     8.0263285947
Ni      3.6953023012    -2.1157302873     7.9694462946
Ni     -3.6468332403    -2.1628724713     8.0264725749
O       5.9486020032     1.9536774433    10.1568983318
H       6.2023593986     1.0444615420    10.4395396161
H       7.6485803319     2.9982816350    10.7947394844
H       2.3841835216    -2.5662265370    10.9995346326
C       6.5922936452     2.8570131008    11.0871865803
O       6.8828593053     0.8516013498    12.3925733789
H      -6.8879959571     0.8254517200    12.3248078773
C       6.4620997723     2.2299052156    12.4710261049
H       5.3979785171     2.1706601767    12.7461907790
C       7.1981974178     3.0342299686    13.5247288963
H       3.2389656514    -2.2859498111    13.4051121917
H       8.2901195875     2.9478942375    13.3576433856
O       6.8260697992     2.5426661176    14.8120038538
H       7.2522042786     3.0948827032    15.4870039972
O      -4.3927237137     1.0982075682     9.5865509607
H      -3.6717371060     0.6667680985    10.0888232085
88
Step 2 | NEB Image 2 | Cartesian Angstrom
Ni      1.2285271350     0.7092904720     2.0000000000
Ni     -6.1433728650     0.7092904720     2.0000000000
Ni      2.4570542700     2.8371618880     2.0000000000
Ni     -4.9148457300     2.8371618880     2.0000000000
Ni      0.0000000000    -1.4185809440     2.0000000000
Ni     -7.3719000000    -1.4185809440     2.0000000000
Ni      3.6855814050     0.7092904720     2.0000000000
Ni     -3.6863185950     0.7092904720     2.0000000000
Ni      4.9141085400     2.8371618880     2.0000000000
Ni     -2.4577914600     2.8371618880     2.0000000000
Ni      2.4570542700    -1.4185809440     2.0000000000
Ni     -4.9148457300    -1.4185809440     2.0000000000
Ni      6.1433728650     0.7092904720     2.0000000000
Ni     -1.2285271350     0.7092904720     2.0000000000
Ni      7.3719000000     2.8371618880     2.0000000000
Ni      0.0000000000     2.8371618880     2.0000000000
Ni      4.9148457300    -1.4185809440     2.0000000000
Ni     -2.4570542700    -1.4185809440     2.0000000000
Ni      0.0346557308    -0.0134148198     3.9933870825
Ni     -7.3217218162    -0.0049998404     4.0072750015
Ni      1.2578348732     2.1189770858     3.9971146797
Ni     -6.1075313849     2.1171931512     4.0321416459
Ni     -1.1947745638    -2.1381836182     3.9899308644
Ni     -8.5583895602    -2.1489773342     4.0045871287
Ni      2.4936115106    -0.0158033345     3.9934121454
Ni     -4.8817399614    -0.0070899796     4.0284060927
Ni      3.7259331628     2.1164908749     3.9963821336
Ni     -3.6481004117     2.1220376153     4.0208447712
Ni      1.2619852472    -2.1447427217     3.9996257584
Ni     -6.1036872010    -2.1349307087     4.0068114959
Ni      4.9616151506    -0.0165989483     3.9983567818
Ni     -2.4294204808    -0.0051097327     3.9999413984
Ni      6.1812033769     2.1190968677     4.0068899881
Ni     -1.1997432357     2.1240350842     3.9993588937
Ni      3.7232036075    -2.1526046085     4.0027884911
Ni     -3.6593220690    -2.1324705204     4.0019434114
Ni      1.2151676437     0.7326764426     5.9965931414
Ni     -6.1209333603     0.7571628863     6.1012979660
Ni      2.4432239961     2.8602108129     5.9901373521
Ni     -4.9285299860     2.8445802718     6.0643989917
Ni     -0.0157656949    -1.3974556437     6.0071353288
Ni     -7.3800419101    -1.3889421189     6.0094723472
Ni      3.6695733566     0.7279879516     5.9907878776
Ni     -3.7003286598     0.7432354372     6.0466905636
Ni      4.9132927319     2.8517585727     6.0397353417
Ni     -2.4754180446     2.8640848847     6.0505585473
Ni      2.4393464706    -1.4016345344     6.0025613634
Ni     -4.9170765515    -1.3603365004     6.0639961154
Ni      6.1426759629     0.7356943489     6.0139974569
Ni     -1.2373125482     0.7413293855     5.9947278915
Ni      7.3555222299     2.8328685114     6.0813155372
Ni     -0.0192603240     2.8743129897     6.0056715955
Ni      4.9049514744    -1.4092273233     5.9979295542
Ni     -2.4703714095    -1.3974024983     5.9943893506
Ni      0.0344844583     0.0079934588     8.0039916109
Ni     -7.3149515766    -0.0089679854     7.9887475778
Ni      1.2486028673     2.1348686028     7.9974909022
Ni      8.5684025384     2.2389778956     8.1950799930
Ni     -1.1986371217    -2.1355026611     8.0034515896
Ni     -8.5663073750    -2.0761886219     7.9986672572
Ni      2.4564896131     0.0150027436     8.0068128306
Ni     -4.8101691804     0.0179569689     8.2605493850
Ni      3.6620784246     2.1372431258     7.9791619483
Ni     -3.5885782325     2.1833658194     8.1286195709
Ni      1.2355767506    -2.1114063380     8.0169708671
Ni     -6.0862076994    -2.0898261242     8.0111321886
Ni      4.8979160045    -0.0035474094     7.9641621736
Ni     -2.3578732246    -0.0300165411     7.9596771617
Ni      6.1110027329     2.1146418157     8.1278600884
Ni     -1.1665365400     2.1406847284     8.0095317013
Ni      3.6692338311    -2.0701775148     7.9964515596
Ni     -3.6396731963    -2.1262573480     8.0295826650
O       6.1240794351     1.3884929571    10.0207549661
H       9.0586519468     2.6023568958     9.7592562946
H       8.2496923811     2.3065712757     9.8200978797
H       1.4616899393    -3.5910231790    11.0978274005
C       5.9343003554     2.0289136794    11.0739748772
O       7.3868025868     0.4609501215    12.1338678883
H      -7.4811756869     0.1725882647    11.1967042038
C       6.6971648909     1.6862385454    12.3146091100
H       5.9300559869     1.6365368402    13.1168817272
C       7.5418577611     2.8931467578    12.9245029257
H       3.4074514947    -2.5100665198    12.6683724499
H       8.5642646342     2.8707515602    12.5230925549
O       7.5436495592     2.7424080959    14.3534341331
H       8.1787880696     3.3730229585    14.7401252203
O      -4.0525024303     1.2177244045     9.6967165136
H      -3.2350141245     1.0233108313    10.1994922934
88
Step 3 | NEB Image 3 | Cartesian Angstrom
Ni      1.2285271350     0.7092904720     2.0000000000
Ni     -6.1433728650     0.7092904720     2.0000000000
Ni      2.4570542700     2.8371618880     2.0000000000
Ni     -4.9148457300     2.8371618880     2.0000000000
Ni      0.0000000000    -1.4185809440     2.0000000000
Ni     -7.3719000000    -1.4185809440     2.0000000000
Ni      3.6855814050     0.7092904720     2.0000000000
Ni     -3.6863185950     0.7092904720     2.0000000000
Ni      4.9141085400     2.8371618880     2.0000000000
Ni     -2.4577914600     2.8371618880     2.0000000000
Ni      2.4570542700    -1.4185809440     2.0000000000
Ni     -4.9148457300    -1.4185809440     2.0000000000
Ni      6.1433728650     0.7092904720     2.0000000000
Ni     -1.2285271350     0.7092904720     2.0000000000
Ni      7.3719000000     2.8371618880     2.0000000000
Ni      0.0000000000     2.8371618880     2.0000000000
Ni      4.9148457300    -1.4185809440     2.0000000000
Ni     -2.4570542700    -1.4185809440     2.0000000000
Ni      0.0286359677    -0.0085459411     3.9967592096
Ni     -7.3414016588    -0.0128291524     4.0002236557
Ni      1.2516119391     2.1155639537     3.9967802999
Ni     -6.1063985414     2.1188423403     3.9985118626
Ni     -1.1993196903    -2.1367142828     3.9956492513
Ni     -8.5717861092    -2.1360297503     4.0076880297
Ni      2.4888371923    -0.0048784448     4.0015387360
Ni     -4.8818379912    -0.0125834941     3.9988078397
Ni      3.7144704735     2.1132208466     3.9989405832
Ni     -3.6564374826     2.1204537523     4.0112392201
Ni      1.2592435680    -2.1381757492     3.9943390048
Ni     -6.1159476615    -2.1438535166     4.0039327496
Ni      4.9456443202    -0.0095485541     4.0100975432
Ni     -2.4312627960    -0.0094159978     3.9977031136
Ni      6.1767080052     2.1163545205     4.0009097114
Ni     -1.2066583328     2.1212017049     4.0017919882
Ni      3.7175614371    -2.1319535080     3.9857627500
Ni     -3.6562242375    -2.1425729807     3.9945788627
Ni      1.2032456156     0.7347990329     6.0132720740
Ni     -6.1788027057     0.7256469413     6.0118197024
Ni      2.4238006070     2.8623213458     5.9910703604
Ni     -4.9157686207     2.8595716359     6.0288460412
Ni     -0.0324982685    -1.3891815692     6.0049441243
Ni     -7.3859463580    -1.3753186170     6.0299785922
Ni      3.6730172133     0.7282108753     6.0408974373
Ni     -3.7126460149     0.7511051539     6.0310331666
Ni      4.8857442820     2.8692553913     6.0034755827
Ni     -2.4989573743     2.8516632251     6.0571092430
Ni      2.4269041999    -1.3871913200     6.0014524558
Ni     -4.9339720860    -1.4034583322     6.0046855724
Ni      6.1175479396     0.7337826261     6.0143342348
Ni     -1.2567030567     0.7369245965     6.0025652593
Ni      7.3550053822     2.8711405011     5.9888879192
Ni     -0.0341938786     2.8623841547     6.0107457062
Ni      4.8991557594    -1.3794394274     6.0271861594
Ni     -2.4945981133    -1.3931936850     6.0029578758
Ni     -0.0117287006     0.0219085291     8.0112440784
Ni     -7.3544346383     0.0058032021     8.1257489613
Ni      1.2244001631     2.1421117403     8.0098477211
Ni      8.6119648985     2.1619446397     7.9418195202
Ni     -1.2352017121    -2.1118776537     7.9991286801
Ni     -8.5948677690    -2.1266872578     7.9891637546
Ni      2.4363183637     0.0207752255     8.0245823735
Ni     -4.9083586697    -0.0116688348     7.9793038406
Ni      3.6356503756     2.1812947103     7.9744858944
Ni     -3.6806344670     2.1207593498     8.1780262592
Ni      1.2077993537    -2.0848485836     8.0084283699
Ni     -6.1335210067    -2.1085096110     8.0160907248
Ni      4.8755298299    -0.0094423829     8.1299987938
Ni     -2.4399960092    -0.0075187171     7.9870237869
Ni      6.1503848864     2.2212340153     7.9978833825
Ni     -1.2101704083     2.1343513130     8.0137932734
Ni      3.6766352644    -2.0877744833     7.9916885644
Ni     -3.6871164301    -2.1224645870     8.0208556289
O       6.0733940577     0.9092330232     9.3683537740
H      10.6035432455     2.8981043906    10.5624080292
H       6.7369811641     2.1741195188    10.8706094746
H       1.3784371452    -4.7839687748    11.0487897711
C       6.0789910952     1.2899119888    10.7536430750
O       7.1543409927    -0.7714922692    11.2095131314
H      -7.5374153855    -0.8108360610    10.1673902660
C       6.5976434319     0.2738299917    11.7154039407
H       6.4718732785     3.2261050618    13.2083630211
C       7.4597282349     3.5965426652    13.5123018389
H       3.8200557694    -1.7010963200    13.3217104033
H       8.2232318807     3.0949503600    12.8884464868
O       7.5965120413     3.2780536968    14.8969941176
H       8.4148543759     3.6812595073    15.2289492637
O      -3.8811426132     2.0009588087    10.2719379461
H      -2.9793509488     1.8493531412    10.6159231316
88
Step 4 | NEB Image 4 | Cartesian Angstrom
Ni      1.2285271350     0.7092904720     2.0000000000
Ni     -6.1433728650     0.7092904720     2.0000000000
Ni      2.4570542700     2.8371618880     2.0000000000
Ni     -4.9148457300     2.8371618880     2.0000000000
Ni      0.0000000000    -1.4185809440     2.0000000000
Ni     -7.3719000000    -1.4185809440     2.0000000000
Ni      3.6855814050     0.7092904720     2.0000000000
Ni     -3.6863185950     0.7092904720     2.0000000000
Ni      4.9141085400     2.8371618880     2.0000000000
Ni     -2.4577914600     2.8371618880     2.0000000000
Ni      2.4570542700    -1.4185809440     2.0000000000
Ni     -4.9148457300    -1.4185809440     2.0000000000
Ni      6.1433728650     0.7092904720     2.0000000000
Ni     -1.2285271350     0.7092904720     2.0000000000
Ni      7.3719000000     2.8371618880     2.0000000000
Ni      0.0000000000     2.8371618880     2.0000000000
Ni      4.9148457300    -1.4185809440     2.0000000000
Ni     -2.4570542700    -1.4185809440     2.0000000000
Ni      0.0406129337    -0.0245280923     3.9986429032
Ni     -7.3377997244    -0.0176193378     4.0022268513
Ni      1.2668132759     2.1019807318     3.9974140664
Ni     -6.1063547469     2.1083938628     4.0022752248
Ni     -1.1891999062    -2.1501318078     3.9975115585
Ni     -8.5642741305    -2.1469460731     4.0036792847
Ni      2.4999889995    -0.0197709301     4.0042875520
Ni     -4.8750991505    -0.0171357658     3.9987925909
Ni      3.7254623549     2.1014658820     4.0091232641
Ni     -3.6498259242     2.1083196891     4.0038760387
Ni      1.2659830819    -2.1565770148     4.0022243738
Ni     -6.1050304897    -2.1500546916     3.9963463409
Ni      4.9532282139    -0.0205704680     4.0131529597
Ni     -2.4227835504    -0.0196653957     3.9967563768
Ni      6.1804802851     2.1048548940     4.0089286718
Ni     -1.1924566980     2.1086518453     3.9948065452
Ni      3.7200597318    -2.1474510582     3.9925876726
Ni     -3.6459792575    -2.1498313741     3.9911375263
Ni      1.2195012640     0.7174059530     6.0128205047
Ni     -6.1593328703     0.7055430931     6.0198247574
Ni      2.4462125889     2.8432176892     6.0009314691
Ni     -4.9022239849     2.8371068009     6.0191844136
Ni     -0.0126433974    -1.4125580875     6.0092210717
Ni     -7.3730728493    -1.3949195826     6.0137980920
Ni      3.6880190653     0.7066247765     6.0512452400
Ni     -3.6914269120     0.7333862548     6.0279705547
Ni      4.9117527125     2.8391298898     6.0349953656
Ni     -2.4730085862     2.8407868878     6.0202512936
Ni      2.4357325227    -1.4076223071     6.0070066926
Ni     -4.9120904805    -1.4129388413     5.9988785742
Ni      6.1338945851     0.7152851170     6.0351020840
Ni     -1.2401722961     0.7187116730     5.9951477123
Ni      7.3628134776     2.8410369331     6.0138561857
Ni     -0.0103339750     2.8500686764     5.9990536047
Ni      4.9045985510    -1.4020425124     6.0221666238
Ni     -2.4715819291    -1.4100519636     5.9998667409
Ni      0.0142441705    -0.0074314495     8.0079770567
Ni     -7.3340778324    -0.0084911712     8.1043153773
Ni      1.2484564078     2.1155641914     8.0106507586
Ni      8.6422150885     2.1441863114     7.9633786101
Ni     -1.2073595718    -2.1348538701     8.0058015028
Ni     -8.5901955866    -2.1549444317     7.9585441396
Ni      2.4551574206    -0.0071957358     8.0308917043
Ni     -4.8544383251    -0.0138427236     8.0156741651
Ni      3.6633853904     2.1441176060     7.9999986223
Ni     -3.6478082947     2.1109961085     8.1354447867
Ni      1.2319811959    -2.1224637133     8.0238909348
Ni     -6.0947124787    -2.1565783518     7.9930983717
Ni      4.8982572954    -0.0417076987     8.1290903714
Ni     -2.4089615151    -0.0321716508     7.9894203537
Ni      6.1701912261     2.1731299658     8.0777491825
Ni     -1.1729899469     2.1080259033     7.9823734629
Ni      3.6847644373    -2.1238004877     7.9968081739
Ni     -3.6448710064    -2.1498344940     8.0137588976
O       6.1334765896     0.7610798858     9.4370920589
H      11.2309795711     3.1610149096    10.4508976677
H       6.8937989772     1.8081920052    11.0768183091
H       1.6019623003    -5.3347883591    11.3136436697
C       6.2755339996     0.9224139650    10.8440505666
O       7.5091300443    -1.2126041690    11.1651776550
H      -6.0462594497    -0.7564345202     8.9006309554
C       6.9687974949    -0.2210301101    11.5434057092
H       8.0389451533     4.4264907818    11.7133624547
C       8.2036853170     4.3171972229    12.7933235498
H       3.6508091145    -1.6487131482    13.3303724341
H       9.1022983538     4.8974901272    13.0674162064
O       8.3699731812     2.9164296903    13.0393941446
H       8.5683898673     2.7932436410    13.9821773236
O      -3.6118867435     2.2080775134    10.2367077924
H      -2.7435218939     1.8013161809    10.4305194417
88
Step 5 | NEB Image 5 | Cartesian Angstrom
Ni      1.2285271350     0.7092904720     2.0000000000
Ni     -6.1433728650     0.7092904720     2.0000000000
Ni      2.4570542700     2.8371618880     2.0000000000
Ni     -4.9148457300     2.8371618880     2.0000000000
Ni      0.0000000000    -1.4185809440     2.0000000000
Ni     -7.3719000000    -1.4185809440     2.0000000000
Ni      3.6855814050     0.7092904720     2.0000000000
Ni     -3.6863185950     0.7092904720     2.0000000000
Ni      4.9141085400     2.8371618880     2.0000000000
Ni     -2.4577914600     2.8371618880     2.0000000000
Ni      2.4570542700    -1.4185809440     2.0000000000
Ni     -4.9148457300    -1.4185809440     2.0000000000
Ni      6.1433728650     0.7092904720     2.0000000000
Ni     -1.2285271350     0.7092904720     2.0000000000
Ni      7.3719000000     2.8371618880     2.0000000000
Ni      0.0000000000     2.8371618880     2.0000000000
Ni      4.9148457300    -1.4185809440     2.0000000000
Ni     -2.4570542700    -1.4185809440     2.0000000000
Ni      0.0464326620    -0.0306468460     3.9976675890
Ni     -7.3257303870    -0.0255862300     3.9933782980
Ni      1.2739848450     2.0960038070     3.9979157030
Ni     -6.1026021170     2.1049500680     4.0019149180
Ni     -1.1827110610    -2.1546561820     3.9989053170
Ni     -8.5597082650    -2.1592869340     3.9982394010
Ni      2.5024778430    -0.0256743600     4.0031952220
Ni     -4.8641413240    -0.0227350050     3.9956475690
Ni      3.7346756480     2.0985190290     4.0083618800
Ni     -3.6458198020     2.0991473590     4.0056686860
Ni      1.2703768650    -2.1597674920     4.0015811390
Ni     -6.0933336510    -2.1603781540     3.9902680500
Ni      4.9590538200    -0.0289845540     4.0074783820
Ni     -2.4167678920    -0.0248088220     4.0022401470
Ni      6.1885777810     2.1026461420     4.0098077600
Ni     -1.1844811720     2.0985803670     3.9964394390
Ni      3.7245308300    -2.1560713310     3.9888953010
Ni     -3.6351397940    -2.1574140910     3.9933365850
Ni      1.2278611130     0.7073057200     6.0134419810
Ni     -6.1428898530     0.6957346210     6.0102358510
Ni      2.4563605190     2.8356121920     5.9987058000
Ni     -4.8924583120     2.8187736320     6.0264580820
Ni      0.0002252210    -1.4241376010     6.0155868270
Ni     -7.3667991100    -1.4101212980     5.9895528060
Ni      3.6921281460     0.7008202940     6.0360645010
Ni     -3.6779272240     0.7256007260     6.0512861550
Ni      4.9267336850     2.8309168990     6.0432780270
Ni     -2.4664659500     2.8157315660     6.0151173370
Ni      2.4509011280    -1.4197685090     6.0062316800
Ni     -4.8985683740    -1.4191884620     5.9881596610
Ni      6.1372839650     0.7115480370     6.0073921100
Ni     -1.2256557510     0.7019370040     6.0032560690
Ni      7.3730564330     2.8242126570     6.0269074010
Ni     -0.0034566730     2.8405670140     6.0010880700
Ni      4.9162369820    -1.4189308570     6.0083232610
Ni     -2.4596272260    -1.4182314770     6.0084483810
Ni      0.0277268390    -0.0168450280     8.0180888710
Ni     -7.3091221710    -0.0327920680     8.0371701400
Ni      1.2611452740     2.1078740620     8.0062525300
Ni      8.6667549770     2.1138793650     7.9801313330
Ni     -1.1942402360    -2.1496555940     8.0109921590
Ni     -8.5668484660    -2.1735761150     7.9430911750
Ni      2.4712577410    -0.0190631580     8.0243063390
Ni     -4.8670711400    -0.0431110720     7.9967287920
Ni      3.6750137580     2.1321536040     7.9940007810
Ni     -3.6274773380     2.0999917070     8.2089215290
Ni      1.2517815200    -2.1329879940     8.0267060850
Ni     -6.0785108950    -2.1534189890     7.9361595560
Ni      4.9123316280    -0.0512787390     8.0829089500
Ni     -2.4007725170    -0.0429334740     8.0081832520
Ni      6.1908597070     2.1505617180     8.1094472440
Ni     -1.1654360560     2.0989982700     7.9806126390
Ni      3.7077660390    -2.1419918620     7.9975968800
Ni     -3.6463297530    -2.1524111230     8.0158878220
O       6.1707187590     0.6663307040     9.3727337630
H      11.2555922500     3.1706166680    10.5266232770
H       7.1149227860     1.0824741990    11.1550798120
H       1.6297081310    -5.3793991980    11.2177269450
C       6.2238707100     0.5353136510    10.8108846880
O       7.5718415080    -1.5277099790    10.9241884940
H      -6.8828388710    -1.2337967880    10.0124245870
C       6.2850334910    -0.9302036460    11.2182633770
H       9.1791669060     4.9099545600    10.6626973770
C       9.7467965870     5.2786349730    12.7161077750
H       5.0959169980    -0.6608682970    12.9933131080
H      10.5457770910     5.8077082870    13.2666670860
O       9.6783811350     3.9068622240    13.1006105230
H      10.5447055700     3.5019751520    12.9206205020
O      -3.5153567700     2.2005093110    10.2599052050
H      -2.6227032800     1.8412518110    10.4321503050
