88
Step 1 | NEB Image 1 | Cartesian Angstrom
Ni      1.2285271350     0.7092904720     2.0000000000
Ni     -6.1433728650     0.7092904720     2.0000000000
Ni      2.4570542700     2.8371618880     2.0000000000
Ni     -4.9148457300     2.8371618880     2.0000000000
Ni      0.0000000000    -1.4185809440     2.0000000000
Ni     -7.3719000000    -1.4185809440     2.0000000000
Ni      3.6855814050     0.7092904720     2.0000000000
Ni     -3.6863185950     0.7092904720     2.0000000000
Ni      4.9141085400     2.8371618880     2.0000000000
Ni     -2.4577914600     2.8371618880     2.0000000000
Ni      2.4570542700    -1.4185809440     2.0000000000
Ni     -4.9148457300    -1.4185809440     2.0000000000
Ni      6.1433728650     0.7092904720     2.0000000000
Ni     -1.2285271350     0.7092904720     2.0000000000
Ni      7.3719000000     2.8371618880     2.0000000000
Ni      0.0000000000     2.8371618880     2.0000000000
Ni      4.9148457300    -1.4185809440     2.0000000000
Ni     -2.4570542700    -1.4185809440     2.0000000000
Ni      0.0345187234    -0.0219895959     3.9906686506
Ni     -7.3332872529    -0.0205271350     3.9970929970
Ni      1.2574298371     2.1090479016     3.9981086770
Ni     -6.1061214153     2.1042281316     4.0017605185
Ni     -1.1958375155    -2.1495425789     3.9888614873
Ni     -8.5615731291    -2.1597422030     3.9935633301
Ni      2.4909200515    -0.0209290578     3.9889124626
Ni     -4.8775455868    -0.0288695998     4.0155932973
Ni      3.7235299523     2.1102350339     3.9932622384
Ni     -3.6483031855     2.1055811522     4.0174271749
Ni      1.2597529797    -2.1544756242     3.9969618463
Ni     -6.1074652262    -2.1506208434     4.0019689283
Ni      4.9550771908    -0.0234645643     3.9935565644
Ni     -2.4269867653    -0.0199772708     3.9982338911
Ni      6.1741097051     2.1083418571     4.0046158614
Ni     -1.1996729370     2.1123145435     4.0000024585
Ni      3.7197951829    -2.1539414756     3.9921760547
Ni     -3.6589301935    -2.1514998115     3.9994955107
Ni      1.2136841869     0.7163863979     5.9963073096
Ni     -6.1473437226     0.7096773911     6.0218176054
Ni      2.4453295017     2.8415084524     5.9971730433
Ni     -4.9231971923     2.8360653972     6.0327934449
Ni     -0.0226348385    -1.4110330430     6.0020236029
Ni     -7.3908667378    -1.4145678834     5.9981301391
Ni      3.6669417345     0.7157583701     5.9869138182
Ni     -3.7108784987     0.7190435175     6.0328517480
Ni      4.9057976617     2.8388244163     6.0411982092
Ni     -2.4814248435     2.8298458387     6.0521186228
Ni      2.4355069788    -1.4085502466     5.9888639843
Ni     -4.9252928465    -1.4026264080     6.0548563839
Ni      6.1341025786     0.7315238745     6.0218817427
Ni     -1.2402669783     0.7221835538     5.9926808095
Ni      7.3408175190     2.8291688103     6.0248565089
Ni     -0.0225097209     2.8466795557     6.0142376281
Ni      4.9088271165    -1.4251457534     5.9900387779
Ni     -2.4790699264    -1.4211153466     5.9913638200
Ni      0.0337137405    -0.0099863123     8.0038502320
Ni     -7.3606520147    -0.0334139511     7.9835827732
Ni      1.2525382386     2.1076756093     8.0014158677
Ni      8.5596645315     2.1514300915     7.9633346422
Ni     -1.1983605499    -2.1613845897     8.0018652759
Ni     -8.5927669864    -2.1264268734     8.0165035337
Ni      2.4708324722    -0.0109047600     8.0065027389
Ni     -4.8995212632    -0.0584838282     8.1493062015
Ni      3.6789469906     2.1047412898     7.9888648741
Ni     -3.6333178494     2.1270714900     8.1546283531
Ni      1.2394335961    -2.1164979174     7.9892760222
Ni     -6.1305722611    -2.1461024656     7.9989212299
Ni      4.9150163145    -0.0283439881     7.9490640309
Ni     -2.3653823178    -0.0601929248     7.9425724452
Ni      6.1349712758     2.1197335004     8.1598232492
Ni     -1.1861990586     2.1067384809     8.0263285947
Ni      3.6953023012    -2.1157302873     7.9694462946
Ni     -3.6468332403    -2.1628724713     8.0264725749
O       5.9486020032     1.9536774433    10.1568983318
H       6.2023593986     1.0444615420    10.4395396161
H       7.6485803319     2.9982816350    10.7947394844
H       2.3841835216    -2.5662265370    10.9995346326
C       6.5922936452     2.8570131008    11.0871865803
O       6.8828593053     0.8516013498    12.3925733789
H      -6.8879959571     0.8254517200    12.3248078773
C       6.4620997723     2.2299052156    12.4710261049
H       5.3979785171     2.1706601767    12.7461907790
C       7.1981974178     3.0342299686    13.5247288963
H       3.2389656514    -2.2859498111    13.4051121917
H       8.2901195875     2.9478942375    13.3576433856
O       6.8260697992     2.5426661176    14.8120038538
H       7.2522042786     3.0948827032    15.4870039972
O      -4.3927237137     1.0982075682     9.5865509607
H      -3.6717371060     0.6667680985    10.0888232085
88
Step 2 | NEB Image 2 | Cartesian Angstrom
Ni      1.2285271350     0.7092904720     2.0000000000
Ni     -6.1433728650     0.7092904720     2.0000000000
Ni      2.4570542700     2.8371618880     2.0000000000
Ni     -4.9148457300     2.8371618880     2.0000000000
Ni      0.0000000000    -1.4185809440     2.0000000000
Ni     -7.3719000000    -1.4185809440     2.0000000000
Ni      3.6855814050     0.7092904720     2.0000000000
Ni     -3.6863185950     0.7092904720     2.0000000000
Ni      4.9141085400     2.8371618880     2.0000000000
Ni     -2.4577914600     2.8371618880     2.0000000000
Ni      2.4570542700    -1.4185809440     2.0000000000
Ni     -4.9148457300    -1.4185809440     2.0000000000
Ni      6.1433728650     0.7092904720     2.0000000000
Ni     -1.2285271350     0.7092904720     2.0000000000
Ni      7.3719000000     2.8371618880     2.0000000000
Ni      0.0000000000     2.8371618880     2.0000000000
Ni      4.9148457300    -1.4185809440     2.0000000000
Ni     -2.4570542700    -1.4185809440     2.0000000000
Ni      0.0412622556    -0.0259067074     3.9907907463
Ni     -7.3260192546    -0.0199007195     4.0029989661
Ni      1.2635293091     2.1076747737     3.9977809338
Ni     -6.1017316935     2.1031907831     4.0104445179
Ni     -1.1909753250    -2.1516701000     3.9882671982
Ni     -8.5571429681    -2.1609975734     3.9971512685
Ni      2.4975333384    -0.0250258069     3.9914532535
Ni     -4.8767314048    -0.0261169750     4.0204686987
Ni      3.7307309686     2.1069238040     3.9973011254
Ni     -3.6439302487     2.1071314403     4.0193021976
Ni      1.2656715097    -2.1591399296     4.0002030735
Ni     -6.1034842756    -2.1493923773     4.0027374753
Ni      4.9629280350    -0.0264522627     3.9950195118
Ni     -2.4230229866    -0.0201199926     3.9970100424
Ni      6.1811336596     2.1054004116     4.0104836016
Ni     -1.1950747481     2.1113687960     3.9973845658
Ni      3.7255073590    -2.1600015826     3.9969774290
Ni     -3.6569339674    -2.1488680110     3.9994155584
Ni      1.2232017736     0.7128434445     5.9956188956
Ni     -6.1296441982     0.7157566615     6.0484696274
Ni      2.4555356334     2.8377753701     5.9959460964
Ni     -4.9153683922     2.8275195724     6.0427347393
Ni     -0.0113408737    -1.4178885420     6.0034480551
Ni     -7.3800820147    -1.4188678519     6.0030199757
Ni      3.6756668400     0.7107381820     5.9901258131
Ni     -3.6974274393     0.7158432335     6.0304731254
Ni      4.9224462665     2.8289424090     6.0555845931
Ni     -2.4677284272     2.8321023748     6.0492250603
Ni      2.4427539560    -1.4165873041     5.9941944965
Ni     -4.9147671484    -1.3985951355     6.0591597674
Ni      6.1462789704     0.7202075246     6.0255318923
Ni     -1.2281987638     0.7197288695     5.9876456993
Ni      7.3557277137     2.8176393226     6.0428147865
Ni     -0.0110249029     2.8459637840     6.0074497119
Ni      4.9134674711    -1.4282198728     5.9920694792
Ni     -2.4670198520    -1.4257535822     5.9876299067
Ni      0.0514242034    -0.0236344961     8.0015433455
Ni     -7.3171345745    -0.0534235022     7.9824651653
Ni      1.2665599106     2.1017329379     7.9982245934
Ni      8.5847933830     2.1620319529     8.0252151446
Ni     -1.1821291385    -2.1693118690     8.0037860374
Ni     -8.5712554627    -2.1270887942     8.0053767239
Ni      2.4768536170    -0.0206713366     8.0071018635
Ni     -4.8447305968    -0.0589343589     8.1808009720
Ni      3.6864708718     2.0988602477     7.9949613360
Ni     -3.5849406467     2.1156040669     8.1345862123
Ni      1.2516872328    -2.1360264909     8.0064246986
Ni     -6.0985617263    -2.1488621446     8.0074067764
Ni      4.9138681515    -0.0362048419     7.9571337171
Ni     -2.3412784895    -0.0699558490     7.9342330467
Ni      6.1425171577     2.0822963484     8.1754524244
Ni     -1.1577065622     2.0998307840     8.0183726432
Ni      3.6984704504    -2.1194947444     7.9759705930
Ni     -3.6266905024    -2.1708382700     8.0240680315
O       6.3015728539     1.7128286873    10.0836383916
H       9.1487624578     2.3022797983    10.3258689147
H       8.5723512972     2.7775839025    10.1240739824
H       2.1140253912    -2.8787515402    10.8989467015
C       6.2450630896     2.5062575000    11.0399273938
O       7.3655887585     0.8248545217    12.3831409099
H      -7.3447882700     0.5046586244    11.4588500964
C       6.7627759829     2.0997193301    12.3779701379
H       5.8571896642     2.0907548715    13.0231608780
C       7.6579320552     3.1648035677    13.0431108042
H       3.5626760444    -2.2073743699    12.8643156837
H       8.6693304894     3.1161739292    12.6108175043
O       7.6554785625     2.8530094922    14.4364060717
H       8.4091270147     3.2905582160    14.8631539591
O      -4.1825871935     1.0475974932     9.6162542869
H      -3.4317329621     0.6588248210    10.1083536959
88
Step 3 | NEB Image 3 | Cartesian Angstrom
Ni      1.2285271350     0.7092904720     2.0000000000
Ni     -6.1433728650     0.7092904720     2.0000000000
Ni      2.4570542700     2.8371618880     2.0000000000
Ni     -4.9148457300     2.8371618880     2.0000000000
Ni      0.0000000000    -1.4185809440     2.0000000000
Ni     -7.3719000000    -1.4185809440     2.0000000000
Ni      3.6855814050     0.7092904720     2.0000000000
Ni     -3.6863185950     0.7092904720     2.0000000000
Ni      4.9141085400     2.8371618880     2.0000000000
Ni     -2.4577914600     2.8371618880     2.0000000000
Ni      2.4570542700    -1.4185809440     2.0000000000
Ni     -4.9148457300    -1.4185809440     2.0000000000
Ni      6.1433728650     0.7092904720     2.0000000000
Ni     -1.2285271350     0.7092904720     2.0000000000
Ni      7.3719000000     2.8371618880     2.0000000000
Ni      0.0000000000     2.8371618880     2.0000000000
Ni      4.9148457300    -1.4185809440     2.0000000000
Ni     -2.4570542700    -1.4185809440     2.0000000000
Ni      0.0290951267    -0.0126425945     3.9972464588
Ni     -7.3421287033    -0.0203526594     4.0016441507
Ni      1.2496469040     2.1118325255     3.9982862921
Ni     -6.1081025941     2.1127762407     3.9993162750
Ni     -1.1990245935    -2.1435583912     3.9950556063
Ni     -8.5734205373    -2.1364105005     4.0105543528
Ni      2.4877796033    -0.0078762136     4.0028288031
Ni     -4.8849015595    -0.0197676808     3.9987392686
Ni      3.7134427098     2.1073226750     4.0008860554
Ni     -3.6570712790     2.1175019447     4.0084717041
Ni      1.2606311898    -2.1418594683     3.9939432558
Ni     -6.1197482922    -2.1494493596     4.0086596790
Ni      4.9431693673    -0.0143157856     4.0120792046
Ni     -2.4298715169    -0.0156536848     3.9953569575
Ni      6.1756073804     2.1103864196     3.9983742372
Ni     -1.2097541597     2.1179968799     4.0052501273
Ni      3.7193152458    -2.1344902307     3.9894791328
Ni     -3.6601427058    -2.1483829304     3.9966649774
Ni      1.2073864957     0.7260524137     6.0151934276
Ni     -6.1778786871     0.7159352933     6.0132400064
Ni      2.4243236728     2.8519139802     5.9948523356
Ni     -4.9189515195     2.8560227473     6.0198096826
Ni     -0.0324898835    -1.3979183795     6.0026708858
Ni     -7.3825102374    -1.3878582562     6.0477309558
Ni      3.6791328815     0.7180077332     6.0493557876
Ni     -3.7155666232     0.7364124447     6.0119399550
Ni      4.8849180121     2.8593309691     6.0010681605
Ni     -2.5013947119     2.8388885157     6.0706521065
Ni      2.4297394805    -1.3941145020     6.0034052052
Ni     -4.9378939131    -1.4155583582     6.0110423487
Ni      6.1217714318     0.7152929333     6.0132918956
Ni     -1.2535185358     0.7296452813     6.0020544287
Ni      7.3491384517     2.8672045767     5.9841719343
Ni     -0.0362679309     2.8498408671     6.0165251789
Ni      4.9039006996    -1.3828267580     6.0433186328
Ni     -2.4955197973    -1.4067398164     5.9989111822
Ni      0.0005092085     0.0034410787     8.0090230533
Ni     -7.3367487006    -0.0106611123     8.1269407914
Ni      1.2310329035     2.1254063932     8.0141995279
Ni      8.6049787471     2.1582442638     7.9273747841
Ni     -1.2289627732    -2.1265715487     7.9973696756
Ni     -8.5861353393    -2.1493796054     8.0081190664
Ni      2.4516047676     0.0040876564     8.0279286929
Ni     -4.8966609391    -0.0355409604     7.9752860236
Ni      3.6476298202     2.1669169591     7.9823159441
Ni     -3.6806551009     2.0925192617     8.1504233587
Ni      1.2198632426    -2.1077860633     8.0004195857
Ni     -6.1282667990    -2.1348699863     8.0409878310
Ni      4.8952742120    -0.0031035422     8.1612030353
Ni     -2.4301912776    -0.0234462080     7.9676211101
Ni      6.1514268548     2.1686910564     7.9705746177
Ni     -1.2094750674     2.1153443813     8.0337181435
Ni      3.6862082575    -2.0993861321     7.9977219147
Ni     -3.6785419860    -2.1432001329     8.0225236406
O       6.2083592890     0.9247890584     9.4473410512
H      10.0938641917     2.3151753328    10.6241485601
H       7.3594303567     2.1800080051    10.6391480344
H       1.9063159752    -3.8981212434    10.6854672646
C       6.3541377582     1.6964478726    10.6655633036
O       7.1967857569    -0.1136474981    11.9075842039
H      -6.9358396012    -0.1244187124    11.1080499066
C       6.2871245205     0.8139174778    11.9121558600
H       7.0926771488     3.5517939474    12.5031198290
C       7.8733177180     3.8521246015    13.2147211556
H       3.9653940569    -1.5058957543    13.5455721231
H       8.8514107117     3.8652546831    12.6954708104
O       7.8425989758     2.9027337386    14.2832771161
H       8.2499909931     3.3036082435    15.0672353260
O      -4.1924990650     1.5355626040    10.2537582857
H      -3.3733694486     1.4049299442    10.7682617044
88
Step 4 | NEB Image 4 | Cartesian Angstrom
Ni      1.2285271350     0.7092904720     2.0000000000
Ni     -6.1433728650     0.7092904720     2.0000000000
Ni      2.4570542700     2.8371618880     2.0000000000
Ni     -4.9148457300     2.8371618880     2.0000000000
Ni      0.0000000000    -1.4185809440     2.0000000000
Ni     -7.3719000000    -1.4185809440     2.0000000000
Ni      3.6855814050     0.7092904720     2.0000000000
Ni     -3.6863185950     0.7092904720     2.0000000000
Ni      4.9141085400     2.8371618880     2.0000000000
Ni     -2.4577914600     2.8371618880     2.0000000000
Ni      2.4570542700    -1.4185809440     2.0000000000
Ni     -4.9148457300    -1.4185809440     2.0000000000
Ni      6.1433728650     0.7092904720     2.0000000000
Ni     -1.2285271350     0.7092904720     2.0000000000
Ni      7.3719000000     2.8371618880     2.0000000000
Ni      0.0000000000     2.8371618880     2.0000000000
Ni      4.9148457300    -1.4185809440     2.0000000000
Ni     -2.4570542700    -1.4185809440     2.0000000000
Ni      0.0388662936    -0.0163268574     3.9979219140
Ni     -7.3344299264    -0.0181414301     3.9993717885
Ni      1.2625472526     2.1083089574     3.9979374056
Ni     -6.1006214977     2.1139691824     3.9981403477
Ni     -1.1892383339    -2.1444145936     3.9970520111
Ni     -8.5657309733    -2.1423850035     4.0058990805
Ni      2.4982970168    -0.0119428822     4.0033629429
Ni     -4.8737595619    -0.0183773031     3.9958405259
Ni      3.7247690744     2.1062002827     4.0033029681
Ni     -3.6487537782     2.1133208725     4.0083313224
Ni      1.2682379318    -2.1455969089     3.9969448555
Ni     -6.1072206579    -2.1504480973     3.9998867403
Ni      4.9534741252    -0.0158895933     4.0119166270
Ni     -2.4219821021    -0.0166425072     3.9978531318
Ni      6.1840465746     2.1109017829     4.0029004044
Ni     -1.1966982649     2.1134916437     4.0008895188
Ni      3.7248306473    -2.1391321954     3.9902625488
Ni     -3.6462281424    -2.1496717263     3.9929836828
Ni      1.2185303292     0.7238085653     6.0143464643
Ni     -6.1629677775     0.7148913058     6.0070930073
Ni      2.4405607588     2.8503106517     5.9958387532
Ni     -4.9019593995     2.8482383147     6.0251106415
Ni     -0.0164835548    -1.4011546872     6.0072925530
Ni     -7.3729959567    -1.3880778310     6.0210036170
Ni      3.6887809252     0.7171307023     6.0483179845
Ni     -3.6974463512     0.7398102754     6.0285575507
Ni      4.9017868986     2.8573600722     6.0132833074
Ni     -2.4836309066     2.8392065588     6.0481697673
Ni      2.4415708089    -1.3978590785     6.0049288825
Ni     -4.9185480271    -1.4138272825     5.9976562132
Ni      6.1296902163     0.7249498124     6.0177511522
Ni     -1.2410561804     0.7245958651     6.0012795636
Ni      7.3661742001     2.8578971354     5.9967426015
Ni     -0.0182393267     2.8515656429     6.0084644969
Ni      4.9128744052    -1.3888501091     6.0309092760
Ni     -2.4787948345    -1.4055320885     6.0018406922
Ni      0.0076645116     0.0076977427     8.0131009552
Ni     -7.3343249405    -0.0147956510     8.1079179676
Ni      1.2432982139     2.1275905116     8.0109476815
Ni      8.6340574123     2.1481672563     7.9421842964
Ni     -1.2155793159    -2.1262088094     8.0012480754
Ni     -8.5789512628    -2.1464863315     7.9843487487
Ni      2.4572640648     0.0065354181     8.0275822432
Ni     -4.8879532701    -0.0252908652     7.9751724020
Ni      3.6588384162     2.1641604137     7.9877676810
Ni     -3.6622427252     2.1040851935     8.1740512597
Ni      1.2283633077    -2.1010511183     8.0130471447
Ni     -6.1127944660    -2.1269176479     8.0001482265
Ni      4.8996360626    -0.0194618317     8.1418039899
Ni     -2.4205488660    -0.0234695269     7.9851804132
Ni      6.1635429198     2.2006184537     8.0213870279
Ni     -1.1912713769     2.1199132426     8.0078209110
Ni      3.6961884802    -2.1027900473     7.9973448739
Ni     -3.6687114029    -2.1365139705     8.0177752955
O       6.1811901186     0.8604777792     9.3838572981
H      10.7836637786     2.8923901433    10.5952409820
H       7.0257091337     2.0663601137    10.8608235714
H       1.7510493061    -5.0116318160    11.2529461232
C       6.4018866207     1.1527104368    10.7738608480
O       7.7416171877    -0.8217697262    10.9722428809
H      -7.0127545678    -0.8380240466     9.8762185319
C       7.1357944003     0.1244140115    11.5676249160
H       8.4883953900     4.2703110371    11.8284076086
C       8.5876470139     4.3800612695    12.9232966969
H       4.0657616413    -1.3845491892    13.2784917374
H       9.5234188087     4.9157415041    13.1359420630
O       8.5286654904     3.0922722784    13.5516465465
H       9.3801696096     2.9138016550    13.9778286201
O      -3.7915646144     1.9822255979    10.2814509439
H      -2.8757990950     1.7676883273    10.5482044603
88
Step 5 | NEB Image 5 | Cartesian Angstrom
Ni      1.2285271350     0.7092904720     2.0000000000
Ni     -6.1433728650     0.7092904720     2.0000000000
Ni      2.4570542700     2.8371618880     2.0000000000
Ni     -4.9148457300     2.8371618880     2.0000000000
Ni      0.0000000000    -1.4185809440     2.0000000000
Ni     -7.3719000000    -1.4185809440     2.0000000000
Ni      3.6855814050     0.7092904720     2.0000000000
Ni     -3.6863185950     0.7092904720     2.0000000000
Ni      4.9141085400     2.8371618880     2.0000000000
Ni     -2.4577914600     2.8371618880     2.0000000000
Ni      2.4570542700    -1.4185809440     2.0000000000
Ni     -4.9148457300    -1.4185809440     2.0000000000
Ni      6.1433728650     0.7092904720     2.0000000000
Ni     -1.2285271350     0.7092904720     2.0000000000
Ni      7.3719000000     2.8371618880     2.0000000000
Ni      0.0000000000     2.8371618880     2.0000000000
Ni      4.9148457300    -1.4185809440     2.0000000000
Ni     -2.4570542700    -1.4185809440     2.0000000000
Ni      0.0464326620    -0.0306468460     3.9976675890
Ni     -7.3257303870    -0.0255862300     3.9933782980
Ni      1.2739848450     2.0960038070     3.9979157030
Ni     -6.1026021170     2.1049500680     4.0019149180
Ni     -1.1827110610    -2.1546561820     3.9989053170
Ni     -8.5597082650    -2.1592869340     3.9982394010
Ni      2.5024778430    -0.0256743600     4.0031952220
Ni     -4.8641413240    -0.0227350050     3.9956475690
Ni      3.7346756480     2.0985190290     4.0083618800
Ni     -3.6458198020     2.0991473590     4.0056686860
Ni      1.2703768650    -2.1597674920     4.0015811390
Ni     -6.0933336510    -2.1603781540     3.9902680500
Ni      4.9590538200    -0.0289845540     4.0074783820
Ni     -2.4167678920    -0.0248088220     4.0022401470
Ni      6.1885777810     2.1026461420     4.0098077600
Ni     -1.1844811720     2.0985803670     3.9964394390
Ni      3.7245308300    -2.1560713310     3.9888953010
Ni     -3.6351397940    -2.1574140910     3.9933365850
Ni      1.2278611130     0.7073057200     6.0134419810
Ni     -6.1428898530     0.6957346210     6.0102358510
Ni      2.4563605190     2.8356121920     5.9987058000
Ni     -4.8924583120     2.8187736320     6.0264580820
Ni      0.0002252210    -1.4241376010     6.0155868270
Ni     -7.3667991100    -1.4101212980     5.9895528060
Ni      3.6921281460     0.7008202940     6.0360645010
Ni     -3.6779272240     0.7256007260     6.0512861550
Ni      4.9267336850     2.8309168990     6.0432780270
Ni     -2.4664659500     2.8157315660     6.0151173370
Ni      2.4509011280    -1.4197685090     6.0062316800
Ni     -4.8985683740    -1.4191884620     5.9881596610
Ni      6.1372839650     0.7115480370     6.0073921100
Ni     -1.2256557510     0.7019370040     6.0032560690
Ni      7.3730564330     2.8242126570     6.0269074010
Ni     -0.0034566730     2.8405670140     6.0010880700
Ni      4.9162369820    -1.4189308570     6.0083232610
Ni     -2.4596272260    -1.4182314770     6.0084483810
Ni      0.0277268390    -0.0168450280     8.0180888710
Ni     -7.3091221710    -0.0327920680     8.0371701400
Ni      1.2611452740     2.1078740620     8.0062525300
Ni      8.6667549770     2.1138793650     7.9801313330
Ni     -1.1942402360    -2.1496555940     8.0109921590
Ni     -8.5668484660    -2.1735761150     7.9430911750
Ni      2.4712577410    -0.0190631580     8.0243063390
Ni     -4.8670711400    -0.0431110720     7.9967287920
Ni      3.6750137580     2.1321536040     7.9940007810
Ni     -3.6274773380     2.0999917070     8.2089215290
Ni      1.2517815200    -2.1329879940     8.0267060850
Ni     -6.0785108950    -2.1534189890     7.9361595560
Ni      4.9123316280    -0.0512787390     8.0829089500
Ni     -2.4007725170    -0.0429334740     8.0081832520
Ni      6.1908597070     2.1505617180     8.1094472440
Ni     -1.1654360560     2.0989982700     7.9806126390
Ni      3.7077660390    -2.1419918620     7.9975968800
Ni     -3.6463297530    -2.1524111230     8.0158878220
O       6.1707187590     0.6663307040     9.3727337630
H      11.2555922500     3.1706166680    10.5266232770
H       7.1149227860     1.0824741990    11.1550798120
H       1.6297081310    -5.3793991980    11.2177269450
C       6.2238707100     0.5353136510    10.8108846880
O       7.5718415080    -1.5277099790    10.9241884940
H      -6.8828388710    -1.2337967880    10.0124245870
C       6.2850334910    -0.9302036460    11.2182633770
H       9.1791669060     4.9099545600    10.6626973770
C       9.7467965870     5.2786349730    12.7161077750
H       5.0959169980    -0.6608682970    12.9933131080
H      10.5457770910     5.8077082870    13.2666670860
O       9.6783811350     3.9068622240    13.1006105230
H      10.5447055700     3.5019751520    12.9206205020
O      -3.5153567700     2.2005093110    10.2599052050
H      -2.6227032800     1.8412518110    10.4321503050
