88
Step 1 | NEB Image 1 | Cartesian Angstrom
Ni      1.2285271350     0.7092904720     2.0000000000
Ni     -6.1433728650     0.7092904720     2.0000000000
Ni      2.4570542700     2.8371618880     2.0000000000
Ni     -4.9148457300     2.8371618880     2.0000000000
Ni      0.0000000000    -1.4185809440     2.0000000000
Ni     -7.3719000000    -1.4185809440     2.0000000000
Ni      3.6855814050     0.7092904720     2.0000000000
Ni     -3.6863185950     0.7092904720     2.0000000000
Ni      4.9141085400     2.8371618880     2.0000000000
Ni     -2.4577914600     2.8371618880     2.0000000000
Ni      2.4570542700    -1.4185809440     2.0000000000
Ni     -4.9148457300    -1.4185809440     2.0000000000
Ni      6.1433728650     0.7092904720     2.0000000000
Ni     -1.2285271350     0.7092904720     2.0000000000
Ni      7.3719000000     2.8371618880     2.0000000000
Ni      0.0000000000     2.8371618880     2.0000000000
Ni      4.9148457300    -1.4185809440     2.0000000000
Ni     -2.4570542700    -1.4185809440     2.0000000000
Ni      0.0345187234    -0.0219895959     3.9906686506
Ni     -7.3332872529    -0.0205271350     3.9970929970
Ni      1.2574298371     2.1090479016     3.9981086770
Ni     -6.1061214153     2.1042281316     4.0017605185
Ni     -1.1958375155    -2.1495425789     3.9888614873
Ni     -8.5615731291    -2.1597422030     3.9935633301
Ni      2.4909200515    -0.0209290578     3.9889124626
Ni     -4.8775455868    -0.0288695998     4.0155932973
Ni      3.7235299523     2.1102350339     3.9932622384
Ni     -3.6483031855     2.1055811522     4.0174271749
Ni      1.2597529797    -2.1544756242     3.9969618463
Ni     -6.1074652262    -2.1506208434     4.0019689283
Ni      4.9550771908    -0.0234645643     3.9935565644
Ni     -2.4269867653    -0.0199772708     3.9982338911
Ni      6.1741097051     2.1083418571     4.0046158614
Ni     -1.1996729370     2.1123145435     4.0000024585
Ni      3.7197951829    -2.1539414756     3.9921760547
Ni     -3.6589301935    -2.1514998115     3.9994955107
Ni      1.2136841869     0.7163863979     5.9963073096
Ni     -6.1473437226     0.7096773911     6.0218176054
Ni      2.4453295017     2.8415084524     5.9971730433
Ni     -4.9231971923     2.8360653972     6.0327934449
Ni     -0.0226348385    -1.4110330430     6.0020236029
Ni     -7.3908667378    -1.4145678834     5.9981301391
Ni      3.6669417345     0.7157583701     5.9869138182
Ni     -3.7108784987     0.7190435175     6.0328517480
Ni      4.9057976617     2.8388244163     6.0411982092
Ni     -2.4814248435     2.8298458387     6.0521186228
Ni      2.4355069788    -1.4085502466     5.9888639843
Ni     -4.9252928465    -1.4026264080     6.0548563839
Ni      6.1341025786     0.7315238745     6.0218817427
Ni     -1.2402669783     0.7221835538     5.9926808095
Ni      7.3408175190     2.8291688103     6.0248565089
Ni     -0.0225097209     2.8466795557     6.0142376281
Ni      4.9088271165    -1.4251457534     5.9900387779
Ni     -2.4790699264    -1.4211153466     5.9913638200
Ni      0.0337137405    -0.0099863123     8.0038502320
Ni     -7.3606520147    -0.0334139511     7.9835827732
Ni      1.2525382386     2.1076756093     8.0014158677
Ni      8.5596645315     2.1514300915     7.9633346422
Ni     -1.1983605499    -2.1613845897     8.0018652759
Ni     -8.5927669864    -2.1264268734     8.0165035337
Ni      2.4708324722    -0.0109047600     8.0065027389
Ni     -4.8995212632    -0.0584838282     8.1493062015
Ni      3.6789469906     2.1047412898     7.9888648741
Ni     -3.6333178494     2.1270714900     8.1546283531
Ni      1.2394335961    -2.1164979174     7.9892760222
Ni     -6.1305722611    -2.1461024656     7.9989212299
Ni      4.9150163145    -0.0283439881     7.9490640309
Ni     -2.3653823178    -0.0601929248     7.9425724452
Ni      6.1349712758     2.1197335004     8.1598232492
Ni     -1.1861990586     2.1067384809     8.0263285947
Ni      3.6953023012    -2.1157302873     7.9694462946
Ni     -3.6468332403    -2.1628724713     8.0264725749
O       5.9486020032     1.9536774433    10.1568983318
H       6.2023593986     1.0444615420    10.4395396161
H       7.6485803319     2.9982816350    10.7947394844
H       2.3841835216    -2.5662265370    10.9995346326
C       6.5922936452     2.8570131008    11.0871865803
O       6.8828593053     0.8516013498    12.3925733789
H      -6.8879959571     0.8254517200    12.3248078773
C       6.4620997723     2.2299052156    12.4710261049
H       5.3979785171     2.1706601767    12.7461907790
C       7.1981974178     3.0342299686    13.5247288963
H       3.2389656514    -2.2859498111    13.4051121917
H       8.2901195875     2.9478942375    13.3576433856
O       6.8260697992     2.5426661176    14.8120038538
H       7.2522042786     3.0948827032    15.4870039972
O      -4.3927237137     1.0982075682     9.5865509607
H      -3.6717371060     0.6667680985    10.0888232085
88
Step 2 | NEB Image 2 | Cartesian Angstrom
Ni      1.2285271350     0.7092904720     2.0000000000
Ni     -6.1433728650     0.7092904720     2.0000000000
Ni      2.4570542700     2.8371618880     2.0000000000
Ni     -4.9148457300     2.8371618880     2.0000000000
Ni      0.0000000000    -1.4185809440     2.0000000000
Ni     -7.3719000000    -1.4185809440     2.0000000000
Ni      3.6855814050     0.7092904720     2.0000000000
Ni     -3.6863185950     0.7092904720     2.0000000000
Ni      4.9141085400     2.8371618880     2.0000000000
Ni     -2.4577914600     2.8371618880     2.0000000000
Ni      2.4570542700    -1.4185809440     2.0000000000
Ni     -4.9148457300    -1.4185809440     2.0000000000
Ni      6.1433728650     0.7092904720     2.0000000000
Ni     -1.2285271350     0.7092904720     2.0000000000
Ni      7.3719000000     2.8371618880     2.0000000000
Ni      0.0000000000     2.8371618880     2.0000000000
Ni      4.9148457300    -1.4185809440     2.0000000000
Ni     -2.4570542700    -1.4185809440     2.0000000000
Ni      0.0413698976    -0.0260041580     3.9908160932
Ni     -7.3257415285    -0.0199540606     4.0028457431
Ni      1.2636230387     2.1077354954     3.9978586549
Ni     -6.1015849698     2.1031075819     4.0102657177
Ni     -1.1909123937    -2.1516204050     3.9883717201
Ni     -8.5570059609    -2.1612131303     3.9970019187
Ni      2.4975016523    -0.0251801353     3.9912739187
Ni     -4.8764109092    -0.0261418725     4.0205605555
Ni      3.7306317902     2.1068610525     3.9971493982
Ni     -3.6435120869     2.1070598856     4.0192405678
Ni      1.2655518143    -2.1593022046     4.0002340078
Ni     -6.1029934662    -2.1494248012     4.0026222913
Ni      4.9629592327    -0.0265809132     3.9947267035
Ni     -2.4228176212    -0.0200757485     3.9971851279
Ni      6.1811117531     2.1053016162     4.0102965456
Ni     -1.1946664139     2.1113455750     3.9974199099
Ni      3.7253755733    -2.1601939194     3.9967437451
Ni     -3.6566170541    -2.1488095508     3.9995718497
Ni      1.2234642853     0.7126627619     5.9953221747
Ni     -6.1291592634     0.7159207836     6.0485513576
Ni      2.4559949251     2.8375594687     5.9960689551
Ni     -4.9150283297     2.8268808609     6.0427191637
Ni     -0.0110117641    -1.4182412728     6.0036965562
Ni     -7.3794710722    -1.4192995770     6.0026249813
Ni      3.6758087693     0.7103974687     5.9896665387
Ni     -3.6967630575     0.7155949240     6.0306153155
Ni      4.9229319588     2.8283288758     6.0555582014
Ni     -2.4670473268     2.8319315369     6.0489653935
Ni      2.4429643012    -1.4171021561     5.9938936462
Ni     -4.9142258552    -1.3986752034     6.0592443549
Ni      6.1466792934     0.7198522039     6.0251321459
Ni     -1.2275997048     0.7195392216     5.9877406491
Ni      7.3563075061     2.8168698112     6.0431048710
Ni     -0.0104745255     2.8459715000     6.0076154842
Ni      4.9137700165    -1.4287165172     5.9913698265
Ni     -2.4664498822    -1.4259407515     5.9880064952
Ni      0.0522988207    -0.0242694334     8.0016246498
Ni     -7.3167119598    -0.0539201313     7.9816275568
Ni      1.2672877656     2.1012356459     7.9981441157
Ni      8.5857463274     2.1620224015     8.0270351591
Ni     -1.1813095076    -2.1701266886     8.0043628351
Ni     -8.5705587247    -2.1269646518     8.0042592460
Ni      2.4773760043    -0.0212387090     8.0064770438
Ni     -4.8445004914    -0.0592899749     8.1803536012
Ni      3.6874152567     2.0979771895     7.9949667741
Ni     -3.5838995382     2.1150591753     8.1343532006
Ni      1.2523175525    -2.1368224980     8.0065222447
Ni     -6.0976622074    -2.1493850332     8.0071642261
Ni      4.9143531397    -0.0364929640     7.9564631264
Ni     -2.3401123219    -0.0705116954     7.9344352224
Ni      6.1433957489     2.0815606097     8.1758819645
Ni     -1.1567297809     2.0992745438     8.0183840983
Ni      3.6989701760    -2.1196835639     7.9751584580
Ni     -3.6258811159    -2.1711797721     8.0244487373
O       6.3042680094     1.7160099868    10.0844877846
H       9.1459810751     2.3074941341    10.3208951712
H       8.5775918840     2.7894556891    10.1101042422
H       2.1062400154    -2.8778947065    10.9015276784
C       6.2399074173     2.5075464403    11.0417311711
O       7.3724443126     0.8285781940    12.3780292063
H      -7.3553537900     0.5063523286    11.4539273019
C       6.7617334574     2.0997616436    12.3782340173
H       5.8570914604     2.0834764894    13.0238379315
C       7.6572145438     3.1639727529    13.0415109613
H       3.5635075758    -2.2077695590    12.8632714117
H       8.6659939602     3.1118406691    12.6038788608
O       7.6615353571     2.8528529807    14.4350292753
H       8.4133868045     3.2970360666    14.8584325523
O      -4.1826135470     1.0468280001     9.6144486250
H      -3.4325533654     0.6554496083    10.1056648646
88
Step 3 | NEB Image 3 | Cartesian Angstrom
Ni      1.2285271350     0.7092904720     2.0000000000
Ni     -6.1433728650     0.7092904720     2.0000000000
Ni      2.4570542700     2.8371618880     2.0000000000
Ni     -4.9148457300     2.8371618880     2.0000000000
Ni      0.0000000000    -1.4185809440     2.0000000000
Ni     -7.3719000000    -1.4185809440     2.0000000000
Ni      3.6855814050     0.7092904720     2.0000000000
Ni     -3.6863185950     0.7092904720     2.0000000000
Ni      4.9141085400     2.8371618880     2.0000000000
Ni     -2.4577914600     2.8371618880     2.0000000000
Ni      2.4570542700    -1.4185809440     2.0000000000
Ni     -4.9148457300    -1.4185809440     2.0000000000
Ni      6.1433728650     0.7092904720     2.0000000000
Ni     -1.2285271350     0.7092904720     2.0000000000
Ni      7.3719000000     2.8371618880     2.0000000000
Ni      0.0000000000     2.8371618880     2.0000000000
Ni      4.9148457300    -1.4185809440     2.0000000000
Ni     -2.4570542700    -1.4185809440     2.0000000000
Ni      0.0292184952    -0.0126237796     3.9973012909
Ni     -7.3421575248    -0.0203503646     4.0010831315
Ni      1.2495564015     2.1119348246     3.9983602916
Ni     -6.1083617659     2.1129944178     3.9990275389
Ni     -1.1991428582    -2.1434318352     3.9951458803
Ni     -8.5738941702    -2.1364432184     4.0103748261
Ni      2.4876667566    -0.0075335527     4.0028450913
Ni     -4.8847604367    -0.0196817463     3.9986521359
Ni      3.7132591353     2.1073052266     4.0009701490
Ni     -3.6573081341     2.1174806210     4.0085034398
Ni      1.2604606093    -2.1417722560     3.9939220748
Ni     -6.1196501126    -2.1497782880     4.0082893111
Ni      4.9427541436    -0.0143019766     4.0120961818
Ni     -2.4298488532    -0.0155950882     3.9954758850
Ni      6.1754864042     2.1105397168     3.9982217618
Ni     -1.2096819173     2.1178483949     4.0053588939
Ni      3.7190194594    -2.1341515602     3.9894457961
Ni     -3.6600273080    -2.1484036161     3.9967905473
Ni      1.2076714530     0.7261060092     6.0154123758
Ni     -6.1777883868     0.7161206529     6.0124196027
Ni      2.4244106486     2.8519192060     5.9948508265
Ni     -4.9187247800     2.8557575139     6.0198890666
Ni     -0.0323881615    -1.3980282076     6.0026306106
Ni     -7.3824300132    -1.3883409781     6.0460706774
Ni      3.6793934665     0.7178724669     6.0500781282
Ni     -3.7150834654     0.7364762052     6.0123639185
Ni      4.8849271246     2.8592506769     6.0006676414
Ni     -2.5012616137     2.8380856780     6.0707625819
Ni      2.4297031646    -1.3939240779     6.0030215145
Ni     -4.9378876884    -1.4157822367     6.0104968170
Ni      6.1214986790     0.7151910409     6.0123219028
Ni     -1.2530816089     0.7292019394     6.0022489427
Ni      7.3495203502     2.8673727592     5.9840346846
Ni     -0.0360937485     2.8496890054     6.0168319047
Ni      4.9042276201    -1.3827406808     6.0435793358
Ni     -2.4954741795    -1.4066282803     5.9993125436
Ni      0.0012154353     0.0029240422     8.0090805513
Ni     -7.3369696904    -0.0107080076     8.1233366824
Ni      1.2315637105     2.1251330799     8.0145048804
Ni      8.6056159488     2.1576436119     7.9276334928
Ni     -1.2283695605    -2.1266484877     7.9974162031
Ni     -8.5851857987    -2.1497002194     8.0074459395
Ni      2.4518647781     0.0037153560     8.0283006660
Ni     -4.8963767330    -0.0357037874     7.9744207201
Ni      3.6477436008     2.1669395924     7.9823728631
Ni     -3.6809294269     2.0925604725     8.1533808136
Ni      1.2205459810    -2.1082709301     8.0000418839
Ni     -6.1277449471    -2.1351317444     8.0394084922
Ni      4.8945197257    -0.0039400069     8.1644591925
Ni     -2.4298382030    -0.0234051602     7.9684299493
Ni      6.1523498888     2.1681400850     7.9694019992
Ni     -1.2089251403     2.1147363857     8.0337430718
Ni      3.6864916682    -2.0996177372     7.9969784154
Ni     -3.6781604619    -2.1433531967     8.0223944784
O       6.2043787023     0.9207514534     9.4443263247
H      10.0998026561     2.3266902863    10.6296499207
H       7.3506539990     2.1815424027    10.6325722391
H       1.8961779558    -3.9047414311    10.6826531286
C       6.3476207732     1.6934095214    10.6623184934
O       7.1968477452    -0.1155073047    11.9021725320
H      -6.9445305693    -0.1323659323    11.0959827409
C       6.2912656361     0.8160272485    11.9123692194
H       7.0717782973     3.5465183755    12.5178742087
C       7.8625256625     3.8461025527    13.2195948312
H       3.9666305621    -1.5086913137    13.5485336621
H       8.8357488827     3.8493251180    12.6902611149
O       7.8377633660     2.9034260697    14.2941868696
H       8.2421826249     3.3103700841    15.0766092255
O      -4.1898606107     1.5468163645    10.2557396413
H      -3.3712745023     1.4105734335    10.7696325262
88
Step 4 | NEB Image 4 | Cartesian Angstrom
Ni      1.2285271350     0.7092904720     2.0000000000
Ni     -6.1433728650     0.7092904720     2.0000000000
Ni      2.4570542700     2.8371618880     2.0000000000
Ni     -4.9148457300     2.8371618880     2.0000000000
Ni      0.0000000000    -1.4185809440     2.0000000000
Ni     -7.3719000000    -1.4185809440     2.0000000000
Ni      3.6855814050     0.7092904720     2.0000000000
Ni     -3.6863185950     0.7092904720     2.0000000000
Ni      4.9141085400     2.8371618880     2.0000000000
Ni     -2.4577914600     2.8371618880     2.0000000000
Ni      2.4570542700    -1.4185809440     2.0000000000
Ni     -4.9148457300    -1.4185809440     2.0000000000
Ni      6.1433728650     0.7092904720     2.0000000000
Ni     -1.2285271350     0.7092904720     2.0000000000
Ni      7.3719000000     2.8371618880     2.0000000000
Ni      0.0000000000     2.8371618880     2.0000000000
Ni      4.9148457300    -1.4185809440     2.0000000000
Ni     -2.4570542700    -1.4185809440     2.0000000000
Ni      0.0385362549    -0.0161071973     3.9979660982
Ni     -7.3347289730    -0.0177415719     3.9992616758
Ni      1.2622918943     2.1085640792     3.9979479808
Ni     -6.1009812955     2.1142642321     3.9980501636
Ni     -1.1895802250    -2.1440864089     3.9971036394
Ni     -8.5660469110    -2.1422269919     4.0056240992
Ni      2.4980006972    -0.0117061206     4.0033192723
Ni     -4.8740487566    -0.0180826484     3.9958282769
Ni      3.7244369027     2.1065292153     4.0033492511
Ni     -3.6490975649     2.1134929286     4.0083432608
Ni      1.2678738985    -2.1453562534     3.9970274613
Ni     -6.1074119304    -2.1501751011     3.9997220539
Ni      4.9531481067    -0.0155966479     4.0117963867
Ni     -2.4223546689    -0.0164114282     3.9979699171
Ni      6.1836703323     2.1112052910     4.0029736655
Ni     -1.1969987064     2.1136589047     4.0009251506
Ni      3.7244042306    -2.1389044120     3.9901733774
Ni     -3.6465053794    -2.1494134996     3.9929525041
Ni      1.2179683649     0.7242566023     6.0143330155
Ni     -6.1633920068     0.7153726100     6.0070836699
Ni      2.4401033922     2.8507768373     5.9959193254
Ni     -4.9025099598     2.8485443177     6.0250940043
Ni     -0.0168851718    -1.4007861887     6.0074448304
Ni     -7.3735976333    -1.3876645667     6.0203677128
Ni      3.6881495048     0.7176255598     6.0482137753
Ni     -3.6977904931     0.7403328490     6.0288342398
Ni      4.9013705446     2.8577075188     6.0136316496
Ni     -2.4841356609     2.8396707614     6.0478824468
Ni      2.4409968645    -1.3974874479     6.0049381269
Ni     -4.9189952550    -1.4132380069     5.9975652680
Ni      6.1291715145     0.7254241347     6.0178064933
Ni     -1.2415534251     0.7249491632     6.0014118917
Ni      7.3655926530     2.8581770727     5.9970443416
Ni     -0.0187135244     2.8520514167     6.0083740514
Ni      4.9121548449    -1.3884457975     6.0304244059
Ni     -2.4792228337    -1.4050550906     6.0019663048
Ni      0.0069904875     0.0082390202     8.0131466898
Ni     -7.3342916414    -0.0144696749     8.1074754830
Ni      1.2425825602     2.1282022289     8.0109186442
Ni      8.6336388504     2.1486251099     7.9426356873
Ni     -1.2162494776    -2.1256568183     8.0013805954
Ni     -8.5797726515    -2.1459267728     7.9834583761
Ni      2.4566202720     0.0071145569     8.0274390511
Ni     -4.8883093242    -0.0245378359     7.9753770933
Ni      3.6582239243     2.1645347858     7.9878654870
Ni     -3.6626944066     2.1048995568     8.1747413893
Ni      1.2278209280    -2.1006519422     8.0131887508
Ni     -6.1133426358    -2.1263954941     7.9994088074
Ni      4.8991328535    -0.0190022276     8.1411659879
Ni     -2.4211815217    -0.0228361967     7.9856454537
Ni      6.1631681645     2.2006434341     8.0226530250
Ni     -1.1918448041     2.1205460513     8.0076180297
Ni      3.6955621033    -2.1022590104     7.9972614485
Ni     -3.6693652969    -2.1358744799     8.0176251666
O       6.1813104836     0.8589334978     9.3835801991
H      10.7891245518     2.8987856326    10.5953670235
H       7.0234215033     2.0600633940    10.8657478138
H       1.7489884475    -5.0214109625    11.2540978920
C       6.4005227059     1.1461723873    10.7748220315
O       7.7461394746    -0.8255234277    10.9684478116
H      -7.0041909011    -0.8378172614     9.8711070458
C       7.1357348442     0.1162892739    11.5655185147
H       8.4799184551     4.2676164400    11.8289507504
C       8.5789235513     4.3762086616    12.9236643799
H       4.0574640094    -1.3885229083    13.2797968508
H       9.5147353179     4.9119890362    13.1359258497
O       8.5203848229     3.0870043344    13.5492046958
H       9.3679380529     2.9145524245    13.9854584580
O      -3.7896660472     1.9875647734    10.2826467914
H      -2.8742707259     1.7704145508    10.5485796849
88
Step 5 | NEB Image 5 | Cartesian Angstrom
Ni      1.2285271350     0.7092904720     2.0000000000
Ni     -6.1433728650     0.7092904720     2.0000000000
Ni      2.4570542700     2.8371618880     2.0000000000
Ni     -4.9148457300     2.8371618880     2.0000000000
Ni      0.0000000000    -1.4185809440     2.0000000000
Ni     -7.3719000000    -1.4185809440     2.0000000000
Ni      3.6855814050     0.7092904720     2.0000000000
Ni     -3.6863185950     0.7092904720     2.0000000000
Ni      4.9141085400     2.8371618880     2.0000000000
Ni     -2.4577914600     2.8371618880     2.0000000000
Ni      2.4570542700    -1.4185809440     2.0000000000
Ni     -4.9148457300    -1.4185809440     2.0000000000
Ni      6.1433728650     0.7092904720     2.0000000000
Ni     -1.2285271350     0.7092904720     2.0000000000
Ni      7.3719000000     2.8371618880     2.0000000000
Ni      0.0000000000     2.8371618880     2.0000000000
Ni      4.9148457300    -1.4185809440     2.0000000000
Ni     -2.4570542700    -1.4185809440     2.0000000000
Ni      0.0464326620    -0.0306468460     3.9976675890
Ni     -7.3257303870    -0.0255862300     3.9933782980
Ni      1.2739848450     2.0960038070     3.9979157030
Ni     -6.1026021170     2.1049500680     4.0019149180
Ni     -1.1827110610    -2.1546561820     3.9989053170
Ni     -8.5597082650    -2.1592869340     3.9982394010
Ni      2.5024778430    -0.0256743600     4.0031952220
Ni     -4.8641413240    -0.0227350050     3.9956475690
Ni      3.7346756480     2.0985190290     4.0083618800
Ni     -3.6458198020     2.0991473590     4.0056686860
Ni      1.2703768650    -2.1597674920     4.0015811390
Ni     -6.0933336510    -2.1603781540     3.9902680500
Ni      4.9590538200    -0.0289845540     4.0074783820
Ni     -2.4167678920    -0.0248088220     4.0022401470
Ni      6.1885777810     2.1026461420     4.0098077600
Ni     -1.1844811720     2.0985803670     3.9964394390
Ni      3.7245308300    -2.1560713310     3.9888953010
Ni     -3.6351397940    -2.1574140910     3.9933365850
Ni      1.2278611130     0.7073057200     6.0134419810
Ni     -6.1428898530     0.6957346210     6.0102358510
Ni      2.4563605190     2.8356121920     5.9987058000
Ni     -4.8924583120     2.8187736320     6.0264580820
Ni      0.0002252210    -1.4241376010     6.0155868270
Ni     -7.3667991100    -1.4101212980     5.9895528060
Ni      3.6921281460     0.7008202940     6.0360645010
Ni     -3.6779272240     0.7256007260     6.0512861550
Ni      4.9267336850     2.8309168990     6.0432780270
Ni     -2.4664659500     2.8157315660     6.0151173370
Ni      2.4509011280    -1.4197685090     6.0062316800
Ni     -4.8985683740    -1.4191884620     5.9881596610
Ni      6.1372839650     0.7115480370     6.0073921100
Ni     -1.2256557510     0.7019370040     6.0032560690
Ni      7.3730564330     2.8242126570     6.0269074010
Ni     -0.0034566730     2.8405670140     6.0010880700
Ni      4.9162369820    -1.4189308570     6.0083232610
Ni     -2.4596272260    -1.4182314770     6.0084483810
Ni      0.0277268390    -0.0168450280     8.0180888710
Ni     -7.3091221710    -0.0327920680     8.0371701400
Ni      1.2611452740     2.1078740620     8.0062525300
Ni      8.6667549770     2.1138793650     7.9801313330
Ni     -1.1942402360    -2.1496555940     8.0109921590
Ni     -8.5668484660    -2.1735761150     7.9430911750
Ni      2.4712577410    -0.0190631580     8.0243063390
Ni     -4.8670711400    -0.0431110720     7.9967287920
Ni      3.6750137580     2.1321536040     7.9940007810
Ni     -3.6274773380     2.0999917070     8.2089215290
Ni      1.2517815200    -2.1329879940     8.0267060850
Ni     -6.0785108950    -2.1534189890     7.9361595560
Ni      4.9123316280    -0.0512787390     8.0829089500
Ni     -2.4007725170    -0.0429334740     8.0081832520
Ni      6.1908597070     2.1505617180     8.1094472440
Ni     -1.1654360560     2.0989982700     7.9806126390
Ni      3.7077660390    -2.1419918620     7.9975968800
Ni     -3.6463297530    -2.1524111230     8.0158878220
O       6.1707187590     0.6663307040     9.3727337630
H      11.2555922500     3.1706166680    10.5266232770
H       7.1149227860     1.0824741990    11.1550798120
H       1.6297081310    -5.3793991980    11.2177269450
C       6.2238707100     0.5353136510    10.8108846880
O       7.5718415080    -1.5277099790    10.9241884940
H      -6.8828388710    -1.2337967880    10.0124245870
C       6.2850334910    -0.9302036460    11.2182633770
H       9.1791669060     4.9099545600    10.6626973770
C       9.7467965870     5.2786349730    12.7161077750
H       5.0959169980    -0.6608682970    12.9933131080
H      10.5457770910     5.8077082870    13.2666670860
O       9.6783811350     3.9068622240    13.1006105230
H      10.5447055700     3.5019751520    12.9206205020
O      -3.5153567700     2.2005093110    10.2599052050
H      -2.6227032800     1.8412518110    10.4321503050
