88
Step 1 | NEB Image 1 | Cartesian Angstrom
Ni      1.2285271350     0.7092904720     2.0000000000
Ni     -6.1433728650     0.7092904720     2.0000000000
Ni      2.4570542700     2.8371618880     2.0000000000
Ni     -4.9148457300     2.8371618880     2.0000000000
Ni      0.0000000000    -1.4185809440     2.0000000000
Ni     -7.3719000000    -1.4185809440     2.0000000000
Ni      3.6855814050     0.7092904720     2.0000000000
Ni     -3.6863185950     0.7092904720     2.0000000000
Ni      4.9141085400     2.8371618880     2.0000000000
Ni     -2.4577914600     2.8371618880     2.0000000000
Ni      2.4570542700    -1.4185809440     2.0000000000
Ni     -4.9148457300    -1.4185809440     2.0000000000
Ni      6.1433728650     0.7092904720     2.0000000000
Ni     -1.2285271350     0.7092904720     2.0000000000
Ni      7.3719000000     2.8371618880     2.0000000000
Ni      0.0000000000     2.8371618880     2.0000000000
Ni      4.9148457300    -1.4185809440     2.0000000000
Ni     -2.4570542700    -1.4185809440     2.0000000000
Ni      0.0345187234    -0.0219895959     3.9906686506
Ni     -7.3332872529    -0.0205271350     3.9970929970
Ni      1.2574298371     2.1090479016     3.9981086770
Ni     -6.1061214153     2.1042281316     4.0017605185
Ni     -1.1958375155    -2.1495425789     3.9888614873
Ni     -8.5615731291    -2.1597422030     3.9935633301
Ni      2.4909200515    -0.0209290578     3.9889124626
Ni     -4.8775455868    -0.0288695998     4.0155932973
Ni      3.7235299523     2.1102350339     3.9932622384
Ni     -3.6483031855     2.1055811522     4.0174271749
Ni      1.2597529797    -2.1544756242     3.9969618463
Ni     -6.1074652262    -2.1506208434     4.0019689283
Ni      4.9550771908    -0.0234645643     3.9935565644
Ni     -2.4269867653    -0.0199772708     3.9982338911
Ni      6.1741097051     2.1083418571     4.0046158614
Ni     -1.1996729370     2.1123145435     4.0000024585
Ni      3.7197951829    -2.1539414756     3.9921760547
Ni     -3.6589301935    -2.1514998115     3.9994955107
Ni      1.2136841869     0.7163863979     5.9963073096
Ni     -6.1473437226     0.7096773911     6.0218176054
Ni      2.4453295017     2.8415084524     5.9971730433
Ni     -4.9231971923     2.8360653972     6.0327934449
Ni     -0.0226348385    -1.4110330430     6.0020236029
Ni     -7.3908667378    -1.4145678834     5.9981301391
Ni      3.6669417345     0.7157583701     5.9869138182
Ni     -3.7108784987     0.7190435175     6.0328517480
Ni      4.9057976617     2.8388244163     6.0411982092
Ni     -2.4814248435     2.8298458387     6.0521186228
Ni      2.4355069788    -1.4085502466     5.9888639843
Ni     -4.9252928465    -1.4026264080     6.0548563839
Ni      6.1341025786     0.7315238745     6.0218817427
Ni     -1.2402669783     0.7221835538     5.9926808095
Ni      7.3408175190     2.8291688103     6.0248565089
Ni     -0.0225097209     2.8466795557     6.0142376281
Ni      4.9088271165    -1.4251457534     5.9900387779
Ni     -2.4790699264    -1.4211153466     5.9913638200
Ni      0.0337137405    -0.0099863123     8.0038502320
Ni     -7.3606520147    -0.0334139511     7.9835827732
Ni      1.2525382386     2.1076756093     8.0014158677
Ni      8.5596645315     2.1514300915     7.9633346422
Ni     -1.1983605499    -2.1613845897     8.0018652759
Ni     -8.5927669864    -2.1264268734     8.0165035337
Ni      2.4708324722    -0.0109047600     8.0065027389
Ni     -4.8995212632    -0.0584838282     8.1493062015
Ni      3.6789469906     2.1047412898     7.9888648741
Ni     -3.6333178494     2.1270714900     8.1546283531
Ni      1.2394335961    -2.1164979174     7.9892760222
Ni     -6.1305722611    -2.1461024656     7.9989212299
Ni      4.9150163145    -0.0283439881     7.9490640309
Ni     -2.3653823178    -0.0601929248     7.9425724452
Ni      6.1349712758     2.1197335004     8.1598232492
Ni     -1.1861990586     2.1067384809     8.0263285947
Ni      3.6953023012    -2.1157302873     7.9694462946
Ni     -3.6468332403    -2.1628724713     8.0264725749
O       5.9486020032     1.9536774433    10.1568983318
H       6.2023593986     1.0444615420    10.4395396161
H       7.6485803319     2.9982816350    10.7947394844
H       2.3841835216    -2.5662265370    10.9995346326
C       6.5922936452     2.8570131008    11.0871865803
O       6.8828593053     0.8516013498    12.3925733789
H      -6.8879959571     0.8254517200    12.3248078773
C       6.4620997723     2.2299052156    12.4710261049
H       5.3979785171     2.1706601767    12.7461907790
C       7.1981974178     3.0342299686    13.5247288963
H       3.2389656514    -2.2859498111    13.4051121917
H       8.2901195875     2.9478942375    13.3576433856
O       6.8260697992     2.5426661176    14.8120038538
H       7.2522042786     3.0948827032    15.4870039972
O      -4.3927237137     1.0982075682     9.5865509607
H      -3.6717371060     0.6667680985    10.0888232085
88
Step 2 | NEB Image 2 | Cartesian Angstrom
Ni      1.2285271350     0.7092904720     2.0000000000
Ni     -6.1433728650     0.7092904720     2.0000000000
Ni      2.4570542700     2.8371618880     2.0000000000
Ni     -4.9148457300     2.8371618880     2.0000000000
Ni      0.0000000000    -1.4185809440     2.0000000000
Ni     -7.3719000000    -1.4185809440     2.0000000000
Ni      3.6855814050     0.7092904720     2.0000000000
Ni     -3.6863185950     0.7092904720     2.0000000000
Ni      4.9141085400     2.8371618880     2.0000000000
Ni     -2.4577914600     2.8371618880     2.0000000000
Ni      2.4570542700    -1.4185809440     2.0000000000
Ni     -4.9148457300    -1.4185809440     2.0000000000
Ni      6.1433728650     0.7092904720     2.0000000000
Ni     -1.2285271350     0.7092904720     2.0000000000
Ni      7.3719000000     2.8371618880     2.0000000000
Ni      0.0000000000     2.8371618880     2.0000000000
Ni      4.9148457300    -1.4185809440     2.0000000000
Ni     -2.4570542700    -1.4185809440     2.0000000000
Ni      0.0389115224    -0.0160671588     3.9922085050
Ni     -7.3181693033    -0.0075739312     4.0049672086
Ni      1.2614068567     2.1171456261     3.9965466969
Ni     -6.1036802998     2.1154258960     4.0272010093
Ni     -1.1911268191    -2.1408529312     3.9889979466
Ni     -8.5539774847    -2.1509488578     4.0008755193
Ni      2.4967495356    -0.0175670836     3.9915388797
Ni     -4.8771695652    -0.0103177949     4.0269209195
Ni      3.7288253164     2.1147043430     3.9952691970
Ni     -3.6422431800     2.1187870132     4.0185050551
Ni      1.2652334292    -2.1478121320     3.9993725495
Ni     -6.0993146667    -2.1373458300     4.0057506856
Ni      4.9653113936    -0.0188692767     3.9964843495
Ni     -2.4243564368    -0.0081603058     3.9996036130
Ni      6.1826869038     2.1162483278     4.0046762348
Ni     -1.1952386506     2.1219414827     3.9988358403
Ni      3.7263486312    -2.1537795001     3.9994519126
Ni     -3.6554977931    -2.1350044854     4.0013459686
Ni      1.2216853503     0.7292888246     5.9946948027
Ni     -6.1163530946     0.7518745676     6.0894117184
Ni      2.4505638136     2.8557571183     5.9905422554
Ni     -4.9186499167     2.8410765068     6.0538675983
Ni     -0.0107964013    -1.4009468695     6.0055608111
Ni     -7.3731849406    -1.3942956583     6.0047363786
Ni      3.6754394259     0.7240879357     5.9869409045
Ni     -3.6935921881     0.7384515785     6.0422648344
Ni      4.9179463784     2.8467578575     6.0419757159
Ni     -2.4683641493     2.8584836609     6.0503334111
Ni      2.4441225508    -1.4042485423     5.9989466231
Ni     -4.9104019463    -1.3668450672     6.0636135871
Ni      6.1494150553     0.7329859211     6.0132387745
Ni     -1.2293764833     0.7381969649     5.9923313132
Ni      7.3552524597     2.8310272692     6.0684612036
Ni     -0.0126504393     2.8696329113     6.0057271996
Ni      4.9121897433    -1.4161954251     5.9928657605
Ni     -2.4642218471    -1.4029385520     5.9929165872
Ni      0.0451899361     0.0015219746     8.0029078939
Ni     -7.3142408635    -0.0177617432     7.9830460413
Ni      1.2576456664     2.1280773329     7.9969755649
Ni      8.5738373622     2.2262571573     8.1472662334
Ni     -1.1879531017    -2.1430188635     8.0039755961
Ni     -8.5565674570    -2.0853913055     7.9943189138
Ni      2.4653881109     0.0086515923     8.0046401204
Ni     -4.8139720235    -0.0075879753     8.2399724637
Ni      3.6695577161     2.1273460712     7.9815753232
Ni     -3.5792486008     2.1650427565     8.1306074473
Ni      1.2441221462    -2.1167989573     8.0127344832
Ni     -6.0815835576    -2.1036631929     8.0094631068
Ni      4.9078894097    -0.0128935138     7.9555033590
Ni     -2.3448410383    -0.0393639739     7.9527997982
Ni      6.1118881246     2.1043169426     8.1378831699
Ni     -1.1588801368     2.1319986435     8.0126463746
Ni      3.6746701076    -2.0766428586     7.9866301376
Ni     -3.6283671136    -2.1370857381     8.0285615625
O       6.1213421807     1.5044327323    10.0582541179
H       9.0602424155     2.5430138439     9.6971438914
H       8.2280106264     2.3401973742     9.7321754212
H       1.6653666217    -3.2775487428    11.0304388033
C       6.0063310644     2.2254782659    11.0672631059
O       7.3852287232     0.6219196208    12.2021084583
H      -7.4994685842     0.2950694574    11.2837984198
C       6.7085639551     1.8554727404    12.3328346654
H       5.9021221533     1.8093214217    13.0980267758
C       7.5809970092     3.0082705508    12.9319217646
H       3.4380597627    -2.3877070976    12.7289607413
H       8.5798216536     2.9872657954    12.4700643559
O       7.6453981614     2.7832736580    14.3447681067
H       8.2705939776     3.4148167421    14.7409766249
O      -4.0914505901     1.1480319669     9.6636351651
H      -3.3011735677     0.8865026098    10.1772960489
88
Step 3 | NEB Image 3 | Cartesian Angstrom
Ni      1.2285271350     0.7092904720     2.0000000000
Ni     -6.1433728650     0.7092904720     2.0000000000
Ni      2.4570542700     2.8371618880     2.0000000000
Ni     -4.9148457300     2.8371618880     2.0000000000
Ni      0.0000000000    -1.4185809440     2.0000000000
Ni     -7.3719000000    -1.4185809440     2.0000000000
Ni      3.6855814050     0.7092904720     2.0000000000
Ni     -3.6863185950     0.7092904720     2.0000000000
Ni      4.9141085400     2.8371618880     2.0000000000
Ni     -2.4577914600     2.8371618880     2.0000000000
Ni      2.4570542700    -1.4185809440     2.0000000000
Ni     -4.9148457300    -1.4185809440     2.0000000000
Ni      6.1433728650     0.7092904720     2.0000000000
Ni     -1.2285271350     0.7092904720     2.0000000000
Ni      7.3719000000     2.8371618880     2.0000000000
Ni      0.0000000000     2.8371618880     2.0000000000
Ni      4.9148457300    -1.4185809440     2.0000000000
Ni     -2.4570542700    -1.4185809440     2.0000000000
Ni      0.0318675318    -0.0111744246     3.9965541442
Ni     -7.3382186662    -0.0170316087     3.9993699498
Ni      1.2537389417     2.1126555957     3.9967225922
Ni     -6.1020964637     2.1156254863     3.9970621573
Ni     -1.1958804550    -2.1402476293     3.9949634489
Ni     -8.5687823379    -2.1374777603     4.0091061633
Ni      2.4918564286    -0.0070490086     4.0016145206
Ni     -4.8787269094    -0.0168498863     3.9980136954
Ni      3.7170196671     2.1091222035     3.9979660777
Ni     -3.6528194694     2.1182999180     4.0108599759
Ni      1.2632454384    -2.1404081790     3.9928642073
Ni     -6.1140107997    -2.1473973798     4.0054317254
Ni      4.9479348285    -0.0130622530     4.0104516519
Ni     -2.4272494943    -0.0129702470     3.9965553319
Ni      6.1804649443     2.1129374652     3.9985390472
Ni     -1.2045764669     2.1186924445     4.0029327802
Ni      3.7221066995    -2.1333351680     3.9856962711
Ni     -3.6538212991    -2.1464123836     3.9947291313
Ni      1.2094759940     0.7294639780     6.0134870273
Ni     -6.1740054373     0.7213413837     6.0079524477
Ni      2.4281462949     2.8570698465     5.9898566992
Ni     -4.9101707641     2.8572592512     6.0267000823
Ni     -0.0278342407    -1.3935447747     6.0033491977
Ni     -7.3792612789    -1.3804013638     6.0355684126
Ni      3.6798294543     0.7221629432     6.0435578507
Ni     -3.7076887621     0.7448031853     6.0240777095
Ni      4.8887276914     2.8652138744     5.9963417817
Ni     -2.4943639853     2.8456507871     6.0636766826
Ni      2.4330519928    -1.3918105181     6.0003948968
Ni     -4.9299402038    -1.4105348289     6.0049128695
Ni      6.1226235000     0.7256567178     6.0105990936
Ni     -1.2507000200     0.7326215901     6.0025034931
Ni      7.3608394703     2.8692688738     5.9823506045
Ni     -0.0297821480     2.8557968330     6.0124507395
Ni      4.9068657463    -1.3818352238     6.0339626938
Ni     -2.4900323411    -1.3993666040     6.0011153232
Ni     -0.0042333424     0.0145852291     8.0106041624
Ni     -7.3500769743     0.0043676995     8.1226338579
Ni      1.2315174466     2.1348062020     8.0101542312
Ni      8.6151608852     2.1580060208     7.9325993408
Ni     -1.2290439914    -2.1181661913     7.9973533437
Ni     -8.5862011649    -2.1317259116     7.9989218654
Ni      2.4440697476     0.0126497542     8.0253794363
Ni     -4.9028257717    -0.0197322063     7.9716901126
Ni      3.6420501307     2.1761430557     7.9715376796
Ni     -3.6756192508     2.1118022262     8.1713536090
Ni      1.2150895380    -2.0928737898     8.0042550967
Ni     -6.1291207485    -2.1145080230     8.0252530744
Ni      4.8831839853    -0.0119081099     8.1493853381
Ni     -2.4332111746    -0.0141673945     7.9806117668
Ni      6.1554926365     2.2087186469     7.9734234778
Ni     -1.2047126435     2.1275364757     8.0205359310
Ni      3.6841884580    -2.0927579093     7.9913146496
Ni     -3.6805603988    -2.1298887218     8.0201974277
O       6.0824695081     0.9370064827     9.3841374824
H      10.4737776893     2.7746113608    10.5651570838
H       6.7798137482     2.3679784561    10.7175597874
H       1.4186999639    -4.5338112965    10.9848989492
C       6.1089743599     1.4841495158    10.7194198959
O       7.1357241301    -0.5345543193    11.3813102088
H      -7.6044435598    -0.6701756062    10.3634935439
C       6.6235620005     0.5804296484    11.7858203779
H       6.5126895347     3.3239878395    13.1256269771
C       7.4944972643     3.6587928394    13.4845088680
H       3.8589920287    -1.6246406741    13.4182601983
H       8.2661097018     3.2282051273    12.8173836051
O       7.6137726627     3.1873434689    14.8263815868
H       8.3863125546     3.6094881820    15.2350191530
O      -3.9749929389     1.8973419583    10.2511473087
H      -3.1053539284     1.7260224602    10.6607662595
88
Step 4 | NEB Image 4 | Cartesian Angstrom
Ni      1.2285271350     0.7092904720     2.0000000000
Ni     -6.1433728650     0.7092904720     2.0000000000
Ni      2.4570542700     2.8371618880     2.0000000000
Ni     -4.9148457300     2.8371618880     2.0000000000
Ni      0.0000000000    -1.4185809440     2.0000000000
Ni     -7.3719000000    -1.4185809440     2.0000000000
Ni      3.6855814050     0.7092904720     2.0000000000
Ni     -3.6863185950     0.7092904720     2.0000000000
Ni      4.9141085400     2.8371618880     2.0000000000
Ni     -2.4577914600     2.8371618880     2.0000000000
Ni      2.4570542700    -1.4185809440     2.0000000000
Ni     -4.9148457300    -1.4185809440     2.0000000000
Ni      6.1433728650     0.7092904720     2.0000000000
Ni     -1.2285271350     0.7092904720     2.0000000000
Ni      7.3719000000     2.8371618880     2.0000000000
Ni      0.0000000000     2.8371618880     2.0000000000
Ni      4.9148457300    -1.4185809440     2.0000000000
Ni     -2.4570542700    -1.4185809440     2.0000000000
Ni      0.0401389328    -0.0175930942     3.9983784075
Ni     -7.3382074965    -0.0123776411     4.0017234624
Ni      1.2669153661     2.1092503012     3.9982987457
Ni     -6.1069441423     2.1172090552     4.0021174959
Ni     -1.1879115680    -2.1424394024     3.9977654453
Ni     -8.5651988645    -2.1414622273     4.0047298651
Ni      2.5001300248    -0.0107826194     4.0053568375
Ni     -4.8776275371    -0.0121741156     3.9942728050
Ni      3.7270397634     2.1096926284     4.0090559107
Ni     -3.6526556332     2.1145734934     4.0047154962
Ni      1.2688388457    -2.1476255451     4.0026371826
Ni     -6.1055772259    -2.1472596557     3.9960290703
Ni      4.9541771092    -0.0140641404     4.0129696521
Ni     -2.4259573508    -0.0131432240     3.9997787369
Ni      6.1810003072     2.1134197417     4.0084859017
Ni     -1.1936845434     2.1125055750     3.9947721608
Ni      3.7220329256    -2.1375574519     3.9933594249
Ni     -3.6444814827    -2.1456631717     3.9895655444
Ni      1.2164732990     0.7280799046     6.0138017512
Ni     -6.1612867548     0.7155631006     6.0131743834
Ni      2.4433379731     2.8532036783     5.9998862066
Ni     -4.9020692230     2.8480668920     6.0249568055
Ni     -0.0123715996    -1.4025168719     6.0109242196
Ni     -7.3756060798    -1.3850002409     6.0110218834
Ni      3.6868824691     0.7197255956     6.0498617500
Ni     -3.7000632876     0.7402486630     6.0380477911
Ni      4.9102004202     2.8532087970     6.0342022266
Ni     -2.4779695455     2.8348795779     6.0169550260
Ni      2.4388785125    -1.3939748763     6.0081346748
Ni     -4.9122955475    -1.4048788862     5.9870993006
Ni      6.1304706104     0.7296072587     6.0302967940
Ni     -1.2420581355     0.7244262826     5.9975802389
Ni      7.3611012761     2.8562442781     6.0105196798
Ni     -0.0173397050     2.8575703314     5.9999172701
Ni      4.9106651206    -1.3914926952     6.0289170178
Ni     -2.4734280202    -1.4023949291     6.0012976348
Ni      0.0121634560     0.0054980011     8.0121995683
Ni     -7.3415416841     0.0136686704     8.1024967376
Ni      1.2449315548     2.1303397228     8.0095690163
Ni      8.6396575806     2.1515995862     7.9571035424
Ni     -1.2080518447    -2.1254281051     8.0050272823
Ni     -8.5856411264    -2.1461441752     7.9748641343
Ni      2.4526196972     0.0083762460     8.0298055374
Ni     -4.8743140403    -0.0210468775     7.9902861321
Ni      3.6624000491     2.1593332349     7.9997274423
Ni     -3.6608395282     2.1081330323     8.1579442739
Ni      1.2346676182    -2.1068158481     8.0241833574
Ni     -6.0781212703    -2.1673330596     7.9622319875
Ni      4.8904313375    -0.0200110243     8.1263730961
Ni     -2.4116861798    -0.0255312399     7.9936043647
Ni      6.1661947152     2.1895649994     8.0721298863
Ni     -1.1812694198     2.1149255970     7.9891500826
Ni      3.6890104819    -2.1072575984     7.9994238061
Ni     -3.6563990987    -2.1346337896     8.0105109097
O       6.1394825497     0.7829903462     9.4411732221
H      11.1348941974     3.1185394920    10.4996732113
H       6.8710840063     1.8614194767    11.0706064827
H       1.6292690230    -5.3726062759    11.3320618270
C       6.3018912398     0.9411711801    10.8499770759
O       7.6576842959    -1.1219209757    11.2249309874
H      -6.6843411482    -1.1383879780     8.9989454288
C       7.0621420483    -0.1504309132    11.5558814097
H       8.0732644106     4.3171803410    11.7631484423
C       8.3133809318     4.3074454640    12.8349356968
H       3.8100148792    -1.5830562945    13.3851838944
H       9.2411466024     4.8853886924    12.9902818461
O       8.4689786176     2.9343992375    13.2085275817
H       8.6801824991     2.8984689989    14.1559328896
O      -3.6627808169     2.1676387264    10.2674830422
H      -2.7811897715     1.7983800136    10.4753992094
88
Step 5 | NEB Image 5 | Cartesian Angstrom
Ni      1.2285271350     0.7092904720     2.0000000000
Ni     -6.1433728650     0.7092904720     2.0000000000
Ni      2.4570542700     2.8371618880     2.0000000000
Ni     -4.9148457300     2.8371618880     2.0000000000
Ni      0.0000000000    -1.4185809440     2.0000000000
Ni     -7.3719000000    -1.4185809440     2.0000000000
Ni      3.6855814050     0.7092904720     2.0000000000
Ni     -3.6863185950     0.7092904720     2.0000000000
Ni      4.9141085400     2.8371618880     2.0000000000
Ni     -2.4577914600     2.8371618880     2.0000000000
Ni      2.4570542700    -1.4185809440     2.0000000000
Ni     -4.9148457300    -1.4185809440     2.0000000000
Ni      6.1433728650     0.7092904720     2.0000000000
Ni     -1.2285271350     0.7092904720     2.0000000000
Ni      7.3719000000     2.8371618880     2.0000000000
Ni      0.0000000000     2.8371618880     2.0000000000
Ni      4.9148457300    -1.4185809440     2.0000000000
Ni     -2.4570542700    -1.4185809440     2.0000000000
Ni      0.0464326620    -0.0306468460     3.9976675890
Ni     -7.3257303870    -0.0255862300     3.9933782980
Ni      1.2739848450     2.0960038070     3.9979157030
Ni     -6.1026021170     2.1049500680     4.0019149180
Ni     -1.1827110610    -2.1546561820     3.9989053170
Ni     -8.5597082650    -2.1592869340     3.9982394010
Ni      2.5024778430    -0.0256743600     4.0031952220
Ni     -4.8641413240    -0.0227350050     3.9956475690
Ni      3.7346756480     2.0985190290     4.0083618800
Ni     -3.6458198020     2.0991473590     4.0056686860
Ni      1.2703768650    -2.1597674920     4.0015811390
Ni     -6.0933336510    -2.1603781540     3.9902680500
Ni      4.9590538200    -0.0289845540     4.0074783820
Ni     -2.4167678920    -0.0248088220     4.0022401470
Ni      6.1885777810     2.1026461420     4.0098077600
Ni     -1.1844811720     2.0985803670     3.9964394390
Ni      3.7245308300    -2.1560713310     3.9888953010
Ni     -3.6351397940    -2.1574140910     3.9933365850
Ni      1.2278611130     0.7073057200     6.0134419810
Ni     -6.1428898530     0.6957346210     6.0102358510
Ni      2.4563605190     2.8356121920     5.9987058000
Ni     -4.8924583120     2.8187736320     6.0264580820
Ni      0.0002252210    -1.4241376010     6.0155868270
Ni     -7.3667991100    -1.4101212980     5.9895528060
Ni      3.6921281460     0.7008202940     6.0360645010
Ni     -3.6779272240     0.7256007260     6.0512861550
Ni      4.9267336850     2.8309168990     6.0432780270
Ni     -2.4664659500     2.8157315660     6.0151173370
Ni      2.4509011280    -1.4197685090     6.0062316800
Ni     -4.8985683740    -1.4191884620     5.9881596610
Ni      6.1372839650     0.7115480370     6.0073921100
Ni     -1.2256557510     0.7019370040     6.0032560690
Ni      7.3730564330     2.8242126570     6.0269074010
Ni     -0.0034566730     2.8405670140     6.0010880700
Ni      4.9162369820    -1.4189308570     6.0083232610
Ni     -2.4596272260    -1.4182314770     6.0084483810
Ni      0.0277268390    -0.0168450280     8.0180888710
Ni     -7.3091221710    -0.0327920680     8.0371701400
Ni      1.2611452740     2.1078740620     8.0062525300
Ni      8.6667549770     2.1138793650     7.9801313330
Ni     -1.1942402360    -2.1496555940     8.0109921590
Ni     -8.5668484660    -2.1735761150     7.9430911750
Ni      2.4712577410    -0.0190631580     8.0243063390
Ni     -4.8670711400    -0.0431110720     7.9967287920
Ni      3.6750137580     2.1321536040     7.9940007810
Ni     -3.6274773380     2.0999917070     8.2089215290
Ni      1.2517815200    -2.1329879940     8.0267060850
Ni     -6.0785108950    -2.1534189890     7.9361595560
Ni      4.9123316280    -0.0512787390     8.0829089500
Ni     -2.4007725170    -0.0429334740     8.0081832520
Ni      6.1908597070     2.1505617180     8.1094472440
Ni     -1.1654360560     2.0989982700     7.9806126390
Ni      3.7077660390    -2.1419918620     7.9975968800
Ni     -3.6463297530    -2.1524111230     8.0158878220
O       6.1707187590     0.6663307040     9.3727337630
H      11.2555922500     3.1706166680    10.5266232770
H       7.1149227860     1.0824741990    11.1550798120
H       1.6297081310    -5.3793991980    11.2177269450
C       6.2238707100     0.5353136510    10.8108846880
O       7.5718415080    -1.5277099790    10.9241884940
H      -6.8828388710    -1.2337967880    10.0124245870
C       6.2850334910    -0.9302036460    11.2182633770
H       9.1791669060     4.9099545600    10.6626973770
C       9.7467965870     5.2786349730    12.7161077750
H       5.0959169980    -0.6608682970    12.9933131080
H      10.5457770910     5.8077082870    13.2666670860
O       9.6783811350     3.9068622240    13.1006105230
H      10.5447055700     3.5019751520    12.9206205020
O      -3.5153567700     2.2005093110    10.2599052050
H      -2.6227032800     1.8412518110    10.4321503050
