88
Step 1 | NEB Image 1 | Cartesian Angstrom
Ni      1.2285271350     0.7092904720     2.0000000000
Ni     -6.1433728650     0.7092904720     2.0000000000
Ni      2.4570542700     2.8371618880     2.0000000000
Ni     -4.9148457300     2.8371618880     2.0000000000
Ni      0.0000000000    -1.4185809440     2.0000000000
Ni     -7.3719000000    -1.4185809440     2.0000000000
Ni      3.6855814050     0.7092904720     2.0000000000
Ni     -3.6863185950     0.7092904720     2.0000000000
Ni      4.9141085400     2.8371618880     2.0000000000
Ni     -2.4577914600     2.8371618880     2.0000000000
Ni      2.4570542700    -1.4185809440     2.0000000000
Ni     -4.9148457300    -1.4185809440     2.0000000000
Ni      6.1433728650     0.7092904720     2.0000000000
Ni     -1.2285271350     0.7092904720     2.0000000000
Ni      7.3719000000     2.8371618880     2.0000000000
Ni      0.0000000000     2.8371618880     2.0000000000
Ni      4.9148457300    -1.4185809440     2.0000000000
Ni     -2.4570542700    -1.4185809440     2.0000000000
Ni      0.0345187234    -0.0219895959     3.9906686506
Ni     -7.3332872529    -0.0205271350     3.9970929970
Ni      1.2574298371     2.1090479016     3.9981086770
Ni     -6.1061214153     2.1042281316     4.0017605185
Ni     -1.1958375155    -2.1495425789     3.9888614873
Ni     -8.5615731291    -2.1597422030     3.9935633301
Ni      2.4909200515    -0.0209290578     3.9889124626
Ni     -4.8775455868    -0.0288695998     4.0155932973
Ni      3.7235299523     2.1102350339     3.9932622384
Ni     -3.6483031855     2.1055811522     4.0174271749
Ni      1.2597529797    -2.1544756242     3.9969618463
Ni     -6.1074652262    -2.1506208434     4.0019689283
Ni      4.9550771908    -0.0234645643     3.9935565644
Ni     -2.4269867653    -0.0199772708     3.9982338911
Ni      6.1741097051     2.1083418571     4.0046158614
Ni     -1.1996729370     2.1123145435     4.0000024585
Ni      3.7197951829    -2.1539414756     3.9921760547
Ni     -3.6589301935    -2.1514998115     3.9994955107
Ni      1.2136841869     0.7163863979     5.9963073096
Ni     -6.1473437226     0.7096773911     6.0218176054
Ni      2.4453295017     2.8415084524     5.9971730433
Ni     -4.9231971923     2.8360653972     6.0327934449
Ni     -0.0226348385    -1.4110330430     6.0020236029
Ni     -7.3908667378    -1.4145678834     5.9981301391
Ni      3.6669417345     0.7157583701     5.9869138182
Ni     -3.7108784987     0.7190435175     6.0328517480
Ni      4.9057976617     2.8388244163     6.0411982092
Ni     -2.4814248435     2.8298458387     6.0521186228
Ni      2.4355069788    -1.4085502466     5.9888639843
Ni     -4.9252928465    -1.4026264080     6.0548563839
Ni      6.1341025786     0.7315238745     6.0218817427
Ni     -1.2402669783     0.7221835538     5.9926808095
Ni      7.3408175190     2.8291688103     6.0248565089
Ni     -0.0225097209     2.8466795557     6.0142376281
Ni      4.9088271165    -1.4251457534     5.9900387779
Ni     -2.4790699264    -1.4211153466     5.9913638200
Ni      0.0337137405    -0.0099863123     8.0038502320
Ni     -7.3606520147    -0.0334139511     7.9835827732
Ni      1.2525382386     2.1076756093     8.0014158677
Ni      8.5596645315     2.1514300915     7.9633346422
Ni     -1.1983605499    -2.1613845897     8.0018652759
Ni     -8.5927669864    -2.1264268734     8.0165035337
Ni      2.4708324722    -0.0109047600     8.0065027389
Ni     -4.8995212632    -0.0584838282     8.1493062015
Ni      3.6789469906     2.1047412898     7.9888648741
Ni     -3.6333178494     2.1270714900     8.1546283531
Ni      1.2394335961    -2.1164979174     7.9892760222
Ni     -6.1305722611    -2.1461024656     7.9989212299
Ni      4.9150163145    -0.0283439881     7.9490640309
Ni     -2.3653823178    -0.0601929248     7.9425724452
Ni      6.1349712758     2.1197335004     8.1598232492
Ni     -1.1861990586     2.1067384809     8.0263285947
Ni      3.6953023012    -2.1157302873     7.9694462946
Ni     -3.6468332403    -2.1628724713     8.0264725749
O       5.9486020032     1.9536774433    10.1568983318
H       6.2023593986     1.0444615420    10.4395396161
H       7.6485803319     2.9982816350    10.7947394844
H       2.3841835216    -2.5662265370    10.9995346326
C       6.5922936452     2.8570131008    11.0871865803
O       6.8828593053     0.8516013498    12.3925733789
H      -6.8879959571     0.8254517200    12.3248078773
C       6.4620997723     2.2299052156    12.4710261049
H       5.3979785171     2.1706601767    12.7461907790
C       7.1981974178     3.0342299686    13.5247288963
H       3.2389656514    -2.2859498111    13.4051121917
H       8.2901195875     2.9478942375    13.3576433856
O       6.8260697992     2.5426661176    14.8120038538
H       7.2522042786     3.0948827032    15.4870039972
O      -4.3927237137     1.0982075682     9.5865509607
H      -3.6717371060     0.6667680985    10.0888232085
88
Step 2 | NEB Image 2 | Cartesian Angstrom
Ni      1.2285271350     0.7092904720     2.0000000000
Ni     -6.1433728650     0.7092904720     2.0000000000
Ni      2.4570542700     2.8371618880     2.0000000000
Ni     -4.9148457300     2.8371618880     2.0000000000
Ni      0.0000000000    -1.4185809440     2.0000000000
Ni     -7.3719000000    -1.4185809440     2.0000000000
Ni      3.6855814050     0.7092904720     2.0000000000
Ni     -3.6863185950     0.7092904720     2.0000000000
Ni      4.9141085400     2.8371618880     2.0000000000
Ni     -2.4577914600     2.8371618880     2.0000000000
Ni      2.4570542700    -1.4185809440     2.0000000000
Ni     -4.9148457300    -1.4185809440     2.0000000000
Ni      6.1433728650     0.7092904720     2.0000000000
Ni     -1.2285271350     0.7092904720     2.0000000000
Ni      7.3719000000     2.8371618880     2.0000000000
Ni      0.0000000000     2.8371618880     2.0000000000
Ni      4.9148457300    -1.4185809440     2.0000000000
Ni     -2.4570542700    -1.4185809440     2.0000000000
Ni      0.0383448155    -0.0147287639     3.9916347033
Ni     -7.3200923985    -0.0060609275     4.0045743247
Ni      1.2614643890     2.1181412588     3.9968287700
Ni     -6.1045396140     2.1159721934     4.0311693558
Ni     -1.1919145031    -2.1396208973     3.9886456994
Ni     -8.5560419284    -2.1503648992     4.0007587440
Ni      2.4967382137    -0.0175441754     3.9916431646
Ni     -4.8793162032    -0.0091209959     4.0259481395
Ni      3.7288776134     2.1158646163     3.9955149365
Ni     -3.6444771249     2.1203978324     4.0188405267
Ni      1.2640304671    -2.1466626221     3.9986673615
Ni     -6.1019457783    -2.1361874718     4.0038599275
Ni      4.9642179954    -0.0177244691     3.9961209349
Ni     -2.4255746895    -0.0066674734     3.9980276687
Ni      6.1825204020     2.1174916998     4.0058376352
Ni     -1.1969957407     2.1237300513     3.9985644055
Ni      3.7257746050    -2.1543404634     3.9993904436
Ni     -3.6573730938    -2.1339050749     4.0006474371
Ni      1.2208062737     0.7288563651     5.9938075592
Ni     -6.1184710898     0.7521017234     6.0926761967
Ni      2.4502338780     2.8567542110     5.9906994435
Ni     -4.9211710903     2.8416852763     6.0587822638
Ni     -0.0117102437    -1.4001172475     6.0056104206
Ni     -7.3766665532    -1.3929422479     6.0039165682
Ni      3.6737146548     0.7251405984     5.9869232537
Ni     -3.6958090482     0.7392582151     6.0397934740
Ni      4.9169474320     2.8478522034     6.0425223746
Ni     -2.4709765050     2.8594633355     6.0500444623
Ni      2.4435304401    -1.4049216266     5.9985454601
Ni     -4.9130634871    -1.3679946601     6.0610285288
Ni      6.1474395388     0.7341598195     6.0145279319
Ni     -1.2304482586     0.7394887370     5.9905286655
Ni      7.3548305433     2.8309242528     6.0745351048
Ni     -0.0137849167     2.8694636841     6.0052387332
Ni      4.9102429139    -1.4149600718     5.9930664606
Ni     -2.4660697262    -1.4027136272     5.9905950629
Ni      0.0431956608     0.0023454928     8.0027912300
Ni     -7.3205889493    -0.0158454408     7.9849735292
Ni      1.2577492939     2.1269364101     7.9962355943
Ni      8.5667590031     2.2271696624     8.1490437579
Ni     -1.1898150697    -2.1431478999     8.0034915944
Ni     -8.5600777971    -2.0832688901     7.9991442618
Ni      2.4634619766     0.0100087866     8.0037081966
Ni     -4.8196215656    -0.0083136372     8.2370509362
Ni      3.6687542093     2.1281827532     7.9818073057
Ni     -3.5822758281     2.1629700315     8.1355436188
Ni      1.2423959386    -2.1143025272     8.0136889968
Ni     -6.0866876750    -2.1039253654     8.0067383709
Ni      4.9058514357    -0.0104450211     7.9575003330
Ni     -2.3464850529    -0.0406284620     7.9476597134
Ni      6.1063770127     2.1113346443     8.1425882404
Ni     -1.1614304195     2.1322595186     8.0117078553
Ni      3.6733419820    -2.0719606174     7.9886900595
Ni     -3.6312150433    -2.1380528515     8.0256647194
O       6.1190133447     1.5136674972    10.0558636298
H       9.0572919954     2.6519464886     9.6577593461
H       8.2558411131     2.2442738849     9.7432125153
H       1.5905378136    -3.3443062552    11.0914552444
C       5.9625083387     2.1828334245    11.0938987793
O       7.3657498192     0.5729715796    12.1855638986
H      -7.4848852974     0.2750717253    11.2529136274
C       6.6750553287     1.7941217672    12.3457868892
H       5.8910437878     1.7197162359    13.1285896404
C       7.5447092521     2.9614782735    12.9339143055
H       3.4074802939    -2.4389086982    12.7062667408
H       8.5439002982     2.9198878693    12.4749969400
O       7.6005348357     2.7794750207    14.3521700525
H       8.2553156261     3.3959265595    14.7244201127
O      -4.0786034250     1.1245118871     9.6544599830
H      -3.2824142582     0.8397003111    10.1467058848
88
Step 3 | NEB Image 3 | Cartesian Angstrom
Ni      1.2285271350     0.7092904720     2.0000000000
Ni     -6.1433728650     0.7092904720     2.0000000000
Ni      2.4570542700     2.8371618880     2.0000000000
Ni     -4.9148457300     2.8371618880     2.0000000000
Ni      0.0000000000    -1.4185809440     2.0000000000
Ni     -7.3719000000    -1.4185809440     2.0000000000
Ni      3.6855814050     0.7092904720     2.0000000000
Ni     -3.6863185950     0.7092904720     2.0000000000
Ni      4.9141085400     2.8371618880     2.0000000000
Ni     -2.4577914600     2.8371618880     2.0000000000
Ni      2.4570542700    -1.4185809440     2.0000000000
Ni     -4.9148457300    -1.4185809440     2.0000000000
Ni      6.1433728650     0.7092904720     2.0000000000
Ni     -1.2285271350     0.7092904720     2.0000000000
Ni      7.3719000000     2.8371618880     2.0000000000
Ni      0.0000000000     2.8371618880     2.0000000000
Ni      4.9148457300    -1.4185809440     2.0000000000
Ni     -2.4570542700    -1.4185809440     2.0000000000
Ni      0.0302086262    -0.0093292922     3.9967782952
Ni     -7.3410112985    -0.0143461078     4.0005824930
Ni      1.2522803576     2.1146529488     3.9969368097
Ni     -6.1051166004     2.1178820768     3.9979185974
Ni     -1.1976806291    -2.1382008269     3.9951409893
Ni     -8.5710573158    -2.1354518418     4.0089467791
Ni      2.4900665483    -0.0052437685     4.0017242615
Ni     -4.8815220711    -0.0142410430     3.9982569242
Ni      3.7152998117     2.1115055599     3.9985585961
Ni     -3.6552179361     2.1205477375     4.0109822185
Ni      1.2613045653    -2.1390022210     3.9936835955
Ni     -6.1160984752    -2.1446021306     4.0052391719
Ni      4.9461866321    -0.0104702422     4.0111558669
Ni     -2.4293385496    -0.0106733641     3.9966926564
Ni      6.1780145196     2.1148477613     4.0001726211
Ni     -1.2061783796     2.1208181600     4.0027763822
Ni      3.7194781025    -2.1316965054     3.9859701764
Ni     -3.6557960732    -2.1438702912     3.9948539224
Ni      1.2055597836     0.7332590389     6.0134527278
Ni     -6.1779144878     0.7245804986     6.0098712693
Ni      2.4250675202     2.8604901201     5.9905544863
Ni     -4.9145298673     2.8603990486     6.0271260240
Ni     -0.0311951507    -1.3903102809     6.0035913722
Ni     -7.3834769018    -1.3763875057     6.0357495884
Ni      3.6760013712     0.7260974709     6.0432295993
Ni     -3.7115570820     0.7483638176     6.0244285353
Ni      4.8856463490     2.8682463649     5.9993788884
Ni     -2.4979942792     2.8500980798     6.0618644498
Ni      2.4288056700    -1.3879557872     6.0007675267
Ni     -4.9333252833    -1.4064848889     6.0053540306
Ni      6.1194610031     0.7300507891     6.0146607396
Ni     -1.2545661748     0.7362207937     6.0022611846
Ni      7.3560885673     2.8723112489     5.9847405845
Ni     -0.0327512132     2.8598353551     6.0118768766
Ni      4.9023052702    -1.3785726633     6.0325482714
Ni     -2.4932651842    -1.3958489569     6.0012132180
Ni     -0.0086546342     0.0191953039     8.0101791777
Ni     -7.3526926953     0.0071603366     8.1297667596
Ni      1.2267215531     2.1393285295     8.0103101940
Ni      8.6102340852     2.1623093962     7.9347458805
Ni     -1.2331349883    -2.1141272276     7.9974569912
Ni     -8.5917573139    -2.1273422101     7.9967309775
Ni      2.4400398193     0.0182769969     8.0253232583
Ni     -4.9067683697    -0.0155805989     7.9732390598
Ni      3.6378404447     2.1799068987     7.9734069844
Ni     -3.6798350201     2.1155777695     8.1677300235
Ni      1.2104533361    -2.0873457599     8.0060432534
Ni     -6.1333295676    -2.1105068671     8.0244628945
Ni      4.8802138031    -0.0067796519     8.1460770792
Ni     -2.4373310218    -0.0103581520     7.9800740754
Ni      6.1517616329     2.2164903893     7.9834213070
Ni     -1.2088506262     2.1319154963     8.0178101162
Ni      3.6798337906    -2.0869786071     7.9921549804
Ni     -3.6850350352    -2.1257398233     8.0203859296
O       6.0784129580     0.9322883143     9.3807004492
H      10.4923668776     2.8006361646    10.5463113127
H       6.7827704266     2.3018625553    10.7743592515
H       1.4031640016    -4.5749163102    10.9944035476
C       6.0914851372     1.4339448030    10.7345314085
O       7.1257684753    -0.5969888986    11.3522754568
H      -7.5760913946    -0.6987520305    10.3278089837
C       6.5822678533     0.4931442400    11.7815412511
H       6.4576861342     3.2342952467    13.2050736551
C       7.4475279133     3.5974462271    13.5166607079
H       3.8154471318    -1.6913953919    13.3578603360
H       8.2053297263     3.1102496194    12.8688366676
O       7.5871763235     3.2355016395    14.8947858552
H       8.3932072751     3.6532403541    15.2418755357
O      -3.9526433831     1.9188056355    10.2481700320
H      -3.0673393866     1.7761736925    10.6357826244
88
Step 4 | NEB Image 4 | Cartesian Angstrom
Ni      1.2285271350     0.7092904720     2.0000000000
Ni     -6.1433728650     0.7092904720     2.0000000000
Ni      2.4570542700     2.8371618880     2.0000000000
Ni     -4.9148457300     2.8371618880     2.0000000000
Ni      0.0000000000    -1.4185809440     2.0000000000
Ni     -7.3719000000    -1.4185809440     2.0000000000
Ni      3.6855814050     0.7092904720     2.0000000000
Ni     -3.6863185950     0.7092904720     2.0000000000
Ni      4.9141085400     2.8371618880     2.0000000000
Ni     -2.4577914600     2.8371618880     2.0000000000
Ni      2.4570542700    -1.4185809440     2.0000000000
Ni     -4.9148457300    -1.4185809440     2.0000000000
Ni      6.1433728650     0.7092904720     2.0000000000
Ni     -1.2285271350     0.7092904720     2.0000000000
Ni      7.3719000000     2.8371618880     2.0000000000
Ni      0.0000000000     2.8371618880     2.0000000000
Ni      4.9148457300    -1.4185809440     2.0000000000
Ni     -2.4570542700    -1.4185809440     2.0000000000
Ni      0.0448089683    -0.0215821810     3.9941343397
Ni     -7.3379259237    -0.0146089453     3.9988604935
Ni      1.2702852325     2.1062999172     4.0006842724
Ni     -6.1067349293     2.1127443486     4.0048258002
Ni     -1.1840774535    -2.1470704509     3.9932577947
Ni     -8.5659841822    -2.1466191827     4.0026818113
Ni      2.5033881146    -0.0166351226     4.0045047499
Ni     -4.8750041893    -0.0201190698     3.9941184723
Ni      3.7311889520     2.1030656679     4.0097272912
Ni     -3.6516973691     2.1077242825     4.0034234149
Ni      1.2674880919    -2.1512215749     3.9999172555
Ni     -6.1040997858    -2.1553887652     3.9932567821
Ni      4.9542421420    -0.0195712018     4.0133129394
Ni     -2.4255520101    -0.0169416909     4.0024219969
Ni      6.1803729626     2.1126232975     4.0071592970
Ni     -1.1883506138     2.1062221410     3.9891976807
Ni      3.7230585222    -2.1439294703     3.9966144339
Ni     -3.6425826967    -2.1519580927     3.9899744532
Ni      1.2191694015     0.7211610831     6.0135372589
Ni     -6.1594771853     0.7064946691     6.0117338711
Ni      2.4453531568     2.8455487494     5.9970226834
Ni     -4.8959880844     2.8396014556     6.0237686275
Ni     -0.0110722813    -1.4090207268     6.0090095357
Ni     -7.3712084995    -1.3957421707     6.0032562183
Ni      3.6863719485     0.7137640241     6.0501957679
Ni     -3.7018748933     0.7322946368     6.0460333467
Ni      4.9116934134     2.8504975492     6.0330661150
Ni     -2.4705621266     2.8270185514     6.0154107340
Ni      2.4395713207    -1.4008985569     6.0043341416
Ni     -4.9095223776    -1.4125258796     5.9892141722
Ni      6.1284234832     0.7247510927     6.0235269420
Ni     -1.2387734817     0.7131121224     5.9931495939
Ni      7.3661601252     2.8473727663     6.0131400245
Ni     -0.0176897229     2.8503272690     6.0045833141
Ni      4.9134822219    -1.3953126015     6.0293542657
Ni     -2.4703800797    -1.4135738357     5.9986091456
Ni      0.0166734730    -0.0052973862     8.0135643849
Ni     -7.3519724182    -0.0126547376     8.1028922093
Ni      1.2502653855     2.1177794785     8.0109748923
Ni      8.6399469773     2.1397879856     7.9608168586
Ni     -1.2034788811    -2.1338944057     8.0072531125
Ni     -8.5916695372    -2.1642110846     7.9641588323
Ni      2.4576612227    -0.0015077295     8.0274267543
Ni     -4.8825667098    -0.0393451989     8.0099854584
Ni      3.6695945667     2.1522749685     7.9957991542
Ni     -3.6570707627     2.1026890115     8.1478917452
Ni      1.2369254404    -2.1150348011     8.0234828974
Ni     -6.0942474402    -2.1673945808     7.9703603255
Ni      4.8880259575    -0.0285708907     8.1292353810
Ni     -2.4158392591    -0.0335344627     7.9948850491
Ni      6.1692141488     2.1781070014     8.0755149682
Ni     -1.1837945130     2.1067234409     7.9796340698
Ni      3.6870416023    -2.1141353383     7.9957574670
Ni     -3.6497267598    -2.1484926480     8.0135057432
O       6.1313813039     0.7749735479     9.4615557033
H      11.1967903513     3.1459286519    10.4539747004
H       6.8674391800     1.8679094923    11.0640015902
H       1.6017627562    -5.3145827459    11.3131058585
C       6.2775454433     0.9618577962    10.8525721696
O       7.5801963423    -1.1580181977    11.2550191152
H      -6.4789912386    -1.0250015448     9.0325282208
C       6.9784912423    -0.1192071639    11.5923008632
H       8.0343454075     4.3355927835    11.7542335729
C       8.2455425818     4.2987603793    12.8338950073
H       3.7244365235    -1.6019895516    13.3737387843
H       9.1725961801     4.8717515592    13.0303484112
O       8.3894422910     2.9122880102    13.1785879311
H       8.6456169237     2.8631772585    14.1153372875
O      -3.6435963878     2.1911131932    10.2524529513
H      -2.7717849400     1.7917996543    10.4503128679
88
Step 5 | NEB Image 5 | Cartesian Angstrom
Ni      1.2285271350     0.7092904720     2.0000000000
Ni     -6.1433728650     0.7092904720     2.0000000000
Ni      2.4570542700     2.8371618880     2.0000000000
Ni     -4.9148457300     2.8371618880     2.0000000000
Ni      0.0000000000    -1.4185809440     2.0000000000
Ni     -7.3719000000    -1.4185809440     2.0000000000
Ni      3.6855814050     0.7092904720     2.0000000000
Ni     -3.6863185950     0.7092904720     2.0000000000
Ni      4.9141085400     2.8371618880     2.0000000000
Ni     -2.4577914600     2.8371618880     2.0000000000
Ni      2.4570542700    -1.4185809440     2.0000000000
Ni     -4.9148457300    -1.4185809440     2.0000000000
Ni      6.1433728650     0.7092904720     2.0000000000
Ni     -1.2285271350     0.7092904720     2.0000000000
Ni      7.3719000000     2.8371618880     2.0000000000
Ni      0.0000000000     2.8371618880     2.0000000000
Ni      4.9148457300    -1.4185809440     2.0000000000
Ni     -2.4570542700    -1.4185809440     2.0000000000
Ni      0.0464326620    -0.0306468460     3.9976675890
Ni     -7.3257303870    -0.0255862300     3.9933782980
Ni      1.2739848450     2.0960038070     3.9979157030
Ni     -6.1026021170     2.1049500680     4.0019149180
Ni     -1.1827110610    -2.1546561820     3.9989053170
Ni     -8.5597082650    -2.1592869340     3.9982394010
Ni      2.5024778430    -0.0256743600     4.0031952220
Ni     -4.8641413240    -0.0227350050     3.9956475690
Ni      3.7346756480     2.0985190290     4.0083618800
Ni     -3.6458198020     2.0991473590     4.0056686860
Ni      1.2703768650    -2.1597674920     4.0015811390
Ni     -6.0933336510    -2.1603781540     3.9902680500
Ni      4.9590538200    -0.0289845540     4.0074783820
Ni     -2.4167678920    -0.0248088220     4.0022401470
Ni      6.1885777810     2.1026461420     4.0098077600
Ni     -1.1844811720     2.0985803670     3.9964394390
Ni      3.7245308300    -2.1560713310     3.9888953010
Ni     -3.6351397940    -2.1574140910     3.9933365850
Ni      1.2278611130     0.7073057200     6.0134419810
Ni     -6.1428898530     0.6957346210     6.0102358510
Ni      2.4563605190     2.8356121920     5.9987058000
Ni     -4.8924583120     2.8187736320     6.0264580820
Ni      0.0002252210    -1.4241376010     6.0155868270
Ni     -7.3667991100    -1.4101212980     5.9895528060
Ni      3.6921281460     0.7008202940     6.0360645010
Ni     -3.6779272240     0.7256007260     6.0512861550
Ni      4.9267336850     2.8309168990     6.0432780270
Ni     -2.4664659500     2.8157315660     6.0151173370
Ni      2.4509011280    -1.4197685090     6.0062316800
Ni     -4.8985683740    -1.4191884620     5.9881596610
Ni      6.1372839650     0.7115480370     6.0073921100
Ni     -1.2256557510     0.7019370040     6.0032560690
Ni      7.3730564330     2.8242126570     6.0269074010
Ni     -0.0034566730     2.8405670140     6.0010880700
Ni      4.9162369820    -1.4189308570     6.0083232610
Ni     -2.4596272260    -1.4182314770     6.0084483810
Ni      0.0277268390    -0.0168450280     8.0180888710
Ni     -7.3091221710    -0.0327920680     8.0371701400
Ni      1.2611452740     2.1078740620     8.0062525300
Ni      8.6667549770     2.1138793650     7.9801313330
Ni     -1.1942402360    -2.1496555940     8.0109921590
Ni     -8.5668484660    -2.1735761150     7.9430911750
Ni      2.4712577410    -0.0190631580     8.0243063390
Ni     -4.8670711400    -0.0431110720     7.9967287920
Ni      3.6750137580     2.1321536040     7.9940007810
Ni     -3.6274773380     2.0999917070     8.2089215290
Ni      1.2517815200    -2.1329879940     8.0267060850
Ni     -6.0785108950    -2.1534189890     7.9361595560
Ni      4.9123316280    -0.0512787390     8.0829089500
Ni     -2.4007725170    -0.0429334740     8.0081832520
Ni      6.1908597070     2.1505617180     8.1094472440
Ni     -1.1654360560     2.0989982700     7.9806126390
Ni      3.7077660390    -2.1419918620     7.9975968800
Ni     -3.6463297530    -2.1524111230     8.0158878220
O       6.1707187590     0.6663307040     9.3727337630
H      11.2555922500     3.1706166680    10.5266232770
H       7.1149227860     1.0824741990    11.1550798120
H       1.6297081310    -5.3793991980    11.2177269450
C       6.2238707100     0.5353136510    10.8108846880
O       7.5718415080    -1.5277099790    10.9241884940
H      -6.8828388710    -1.2337967880    10.0124245870
C       6.2850334910    -0.9302036460    11.2182633770
H       9.1791669060     4.9099545600    10.6626973770
C       9.7467965870     5.2786349730    12.7161077750
H       5.0959169980    -0.6608682970    12.9933131080
H      10.5457770910     5.8077082870    13.2666670860
O       9.6783811350     3.9068622240    13.1006105230
H      10.5447055700     3.5019751520    12.9206205020
O      -3.5153567700     2.2005093110    10.2599052050
H      -2.6227032800     1.8412518110    10.4321503050
