88
Step 1 | NEB Image 1 | Cartesian Angstrom
Ni      1.2285271350     0.7092904720     2.0000000000
Ni     -6.1433728650     0.7092904720     2.0000000000
Ni      2.4570542700     2.8371618880     2.0000000000
Ni     -4.9148457300     2.8371618880     2.0000000000
Ni      0.0000000000    -1.4185809440     2.0000000000
Ni     -7.3719000000    -1.4185809440     2.0000000000
Ni      3.6855814050     0.7092904720     2.0000000000
Ni     -3.6863185950     0.7092904720     2.0000000000
Ni      4.9141085400     2.8371618880     2.0000000000
Ni     -2.4577914600     2.8371618880     2.0000000000
Ni      2.4570542700    -1.4185809440     2.0000000000
Ni     -4.9148457300    -1.4185809440     2.0000000000
Ni      6.1433728650     0.7092904720     2.0000000000
Ni     -1.2285271350     0.7092904720     2.0000000000
Ni      7.3719000000     2.8371618880     2.0000000000
Ni      0.0000000000     2.8371618880     2.0000000000
Ni      4.9148457300    -1.4185809440     2.0000000000
Ni     -2.4570542700    -1.4185809440     2.0000000000
Ni      0.0345187234    -0.0219895959     3.9906686506
Ni     -7.3332872529    -0.0205271350     3.9970929970
Ni      1.2574298371     2.1090479016     3.9981086770
Ni     -6.1061214153     2.1042281316     4.0017605185
Ni     -1.1958375155    -2.1495425789     3.9888614873
Ni     -8.5615731291    -2.1597422030     3.9935633301
Ni      2.4909200515    -0.0209290578     3.9889124626
Ni     -4.8775455868    -0.0288695998     4.0155932973
Ni      3.7235299523     2.1102350339     3.9932622384
Ni     -3.6483031855     2.1055811522     4.0174271749
Ni      1.2597529797    -2.1544756242     3.9969618463
Ni     -6.1074652262    -2.1506208434     4.0019689283
Ni      4.9550771908    -0.0234645643     3.9935565644
Ni     -2.4269867653    -0.0199772708     3.9982338911
Ni      6.1741097051     2.1083418571     4.0046158614
Ni     -1.1996729370     2.1123145435     4.0000024585
Ni      3.7197951829    -2.1539414756     3.9921760547
Ni     -3.6589301935    -2.1514998115     3.9994955107
Ni      1.2136841869     0.7163863979     5.9963073096
Ni     -6.1473437226     0.7096773911     6.0218176054
Ni      2.4453295017     2.8415084524     5.9971730433
Ni     -4.9231971923     2.8360653972     6.0327934449
Ni     -0.0226348385    -1.4110330430     6.0020236029
Ni     -7.3908667378    -1.4145678834     5.9981301391
Ni      3.6669417345     0.7157583701     5.9869138182
Ni     -3.7108784987     0.7190435175     6.0328517480
Ni      4.9057976617     2.8388244163     6.0411982092
Ni     -2.4814248435     2.8298458387     6.0521186228
Ni      2.4355069788    -1.4085502466     5.9888639843
Ni     -4.9252928465    -1.4026264080     6.0548563839
Ni      6.1341025786     0.7315238745     6.0218817427
Ni     -1.2402669783     0.7221835538     5.9926808095
Ni      7.3408175190     2.8291688103     6.0248565089
Ni     -0.0225097209     2.8466795557     6.0142376281
Ni      4.9088271165    -1.4251457534     5.9900387779
Ni     -2.4790699264    -1.4211153466     5.9913638200
Ni      0.0337137405    -0.0099863123     8.0038502320
Ni     -7.3606520147    -0.0334139511     7.9835827732
Ni      1.2525382386     2.1076756093     8.0014158677
Ni      8.5596645315     2.1514300915     7.9633346422
Ni     -1.1983605499    -2.1613845897     8.0018652759
Ni     -8.5927669864    -2.1264268734     8.0165035337
Ni      2.4708324722    -0.0109047600     8.0065027389
Ni     -4.8995212632    -0.0584838282     8.1493062015
Ni      3.6789469906     2.1047412898     7.9888648741
Ni     -3.6333178494     2.1270714900     8.1546283531
Ni      1.2394335961    -2.1164979174     7.9892760222
Ni     -6.1305722611    -2.1461024656     7.9989212299
Ni      4.9150163145    -0.0283439881     7.9490640309
Ni     -2.3653823178    -0.0601929248     7.9425724452
Ni      6.1349712758     2.1197335004     8.1598232492
Ni     -1.1861990586     2.1067384809     8.0263285947
Ni      3.6953023012    -2.1157302873     7.9694462946
Ni     -3.6468332403    -2.1628724713     8.0264725749
O       5.9486020032     1.9536774433    10.1568983318
H       6.2023593986     1.0444615420    10.4395396161
H       7.6485803319     2.9982816350    10.7947394844
H       2.3841835216    -2.5662265370    10.9995346326
C       6.5922936452     2.8570131008    11.0871865803
O       6.8828593053     0.8516013498    12.3925733789
H      -6.8879959571     0.8254517200    12.3248078773
C       6.4620997723     2.2299052156    12.4710261049
H       5.3979785171     2.1706601767    12.7461907790
C       7.1981974178     3.0342299686    13.5247288963
H       3.2389656514    -2.2859498111    13.4051121917
H       8.2901195875     2.9478942375    13.3576433856
O       6.8260697992     2.5426661176    14.8120038538
H       7.2522042786     3.0948827032    15.4870039972
O      -4.3927237137     1.0982075682     9.5865509607
H      -3.6717371060     0.6667680985    10.0888232085
88
Step 2 | NEB Image 2 | Cartesian Angstrom
Ni      1.2285271350     0.7092904720     2.0000000000
Ni     -6.1433728650     0.7092904720     2.0000000000
Ni      2.4570542700     2.8371618880     2.0000000000
Ni     -4.9148457300     2.8371618880     2.0000000000
Ni      0.0000000000    -1.4185809440     2.0000000000
Ni     -7.3719000000    -1.4185809440     2.0000000000
Ni      3.6855814050     0.7092904720     2.0000000000
Ni     -3.6863185950     0.7092904720     2.0000000000
Ni      4.9141085400     2.8371618880     2.0000000000
Ni     -2.4577914600     2.8371618880     2.0000000000
Ni      2.4570542700    -1.4185809440     2.0000000000
Ni     -4.9148457300    -1.4185809440     2.0000000000
Ni      6.1433728650     0.7092904720     2.0000000000
Ni     -1.2285271350     0.7092904720     2.0000000000
Ni      7.3719000000     2.8371618880     2.0000000000
Ni      0.0000000000     2.8371618880     2.0000000000
Ni      4.9148457300    -1.4185809440     2.0000000000
Ni     -2.4570542700    -1.4185809440     2.0000000000
Ni      0.0443753510    -0.0283512676     3.9906754556
Ni     -7.3235400031    -0.0199482278     4.0028245266
Ni      1.2667132569     2.1064722724     3.9980543286
Ni     -6.1001140766     2.1025935525     4.0103506494
Ni     -1.1881849744    -2.1534470994     3.9889006765
Ni     -8.5540316524    -2.1632931919     3.9958500466
Ni      2.5001164527    -0.0272950454     3.9904034485
Ni     -4.8746489753    -0.0262406857     4.0191600280
Ni      3.7327972371     2.1052594922     3.9971182395
Ni     -3.6404113150     2.1058647844     4.0170696678
Ni      1.2668227036    -2.1614924255     3.9998547825
Ni     -6.1000305237    -2.1502562585     4.0003316563
Ni      4.9655397867    -0.0276291620     3.9933858253
Ni     -2.4194229689    -0.0217642370     3.9965823942
Ni      6.1828474173     2.1045096795     4.0107324679
Ni     -1.1910189278     2.1100090860     3.9966826407
Ni      3.7271514360    -2.1634439745     3.9963774324
Ni     -3.6532029719    -2.1495008523     3.9987109852
Ni      1.2284952235     0.7093170947     5.9938678688
Ni     -6.1222877788     0.7174713075     6.0506216083
Ni      2.4625418541     2.8340255131     5.9971499114
Ni     -4.9110839575     2.8212559827     6.0422101713
Ni     -0.0063321845    -1.4218648651     6.0052345785
Ni     -7.3727244001    -1.4202949344     5.9984998592
Ni      3.6806656528     0.7068513662     5.9880764412
Ni     -3.6892464006     0.7120232461     6.0264507538
Ni      4.9288942692     2.8246031897     6.0567722795
Ni     -2.4617941744     2.8299266585     6.0450795537
Ni      2.4470998958    -1.4216838480     5.9910332066
Ni     -4.9084187336    -1.4016951053     6.0541144631
Ni      6.1513342201     0.7185182868     6.0257537474
Ni     -1.2213096591     0.7171999772     5.9860956543
Ni      7.3634572474     2.8106443847     6.0490838390
Ni     -0.0042617542     2.8430824062     6.0063680421
Ni      4.9184497299    -1.4313317764     5.9853674139
Ni     -2.4602150926    -1.4299278367     5.9878168636
Ni      0.0601403126    -0.0283401420     8.0011411190
Ni     -7.3133128994    -0.0531643871     7.9788920184
Ni      1.2745845948     2.0965097150     7.9978047013
Ni      8.5928134020     2.1653727750     8.0555267042
Ni     -1.1743447601    -2.1759731586     8.0069450910
Ni     -8.5595437016    -2.1258234348     7.9907421555
Ni      2.4841704423    -0.0249956950     8.0033326977
Ni     -4.8431028659    -0.0645786605     8.1663882003
Ni      3.6940689586     2.0920995682     7.9958210990
Ni     -3.5720469758     2.1082219063     8.1267765961
Ni      1.2587033268    -2.1397368471     8.0066577816
Ni     -6.0903100655    -2.1538491560     8.0020360663
Ni      4.9225839572    -0.0389634008     7.9555096359
Ni     -2.3305952045    -0.0765335461     7.9322100217
Ni      6.1454152129     2.0836344708     8.1835133615
Ni     -1.1493333078     2.0951505970     8.0166852884
Ni      3.7038310891    -2.1174814250     7.9680670342
Ni     -3.6196351265    -2.1750503269     8.0223694988
O       6.2893940938     1.7631383922    10.0899480622
H       9.0869231103     2.3339235308    10.2334611269
H       8.6274708351     2.9058555993     9.9580364000
H       2.0553400330    -2.8619599869    10.9545896902
C       6.2083387445     2.5291097521    11.0655332795
O       7.3809662959     0.8285560611    12.3213299235
H      -7.4334934898     0.5121982720    11.3963314907
C       6.7444719235     2.0866255206    12.3883305762
H       5.8579561899     2.0325025124    13.0590683045
C       7.6470442296     3.1567414392    13.0308812540
H       3.5419560437    -2.2196569968    12.8497636633
H       8.6415671810     3.0985757489    12.5611523692
O       7.6989504168     2.8724075521    14.4283664269
H       8.4478484891     3.3526451502    14.8175962293
O      -4.1817510882     1.0356100379     9.6006805860
H      -3.4375075899     0.6197222591    10.0811918568
88
Step 3 | NEB Image 3 | Cartesian Angstrom
Ni      1.2285271350     0.7092904720     2.0000000000
Ni     -6.1433728650     0.7092904720     2.0000000000
Ni      2.4570542700     2.8371618880     2.0000000000
Ni     -4.9148457300     2.8371618880     2.0000000000
Ni      0.0000000000    -1.4185809440     2.0000000000
Ni     -7.3719000000    -1.4185809440     2.0000000000
Ni      3.6855814050     0.7092904720     2.0000000000
Ni     -3.6863185950     0.7092904720     2.0000000000
Ni      4.9141085400     2.8371618880     2.0000000000
Ni     -2.4577914600     2.8371618880     2.0000000000
Ni      2.4570542700    -1.4185809440     2.0000000000
Ni     -4.9148457300    -1.4185809440     2.0000000000
Ni      6.1433728650     0.7092904720     2.0000000000
Ni     -1.2285271350     0.7092904720     2.0000000000
Ni      7.3719000000     2.8371618880     2.0000000000
Ni      0.0000000000     2.8371618880     2.0000000000
Ni      4.9148457300    -1.4185809440     2.0000000000
Ni     -2.4570542700    -1.4185809440     2.0000000000
Ni      0.0313799517    -0.0140459961     3.9974463763
Ni     -7.3408472816    -0.0216446608     3.9992432636
Ni      1.2513849622     2.1105496696     3.9987201618
Ni     -6.1063643480     2.1122083761     3.9977245388
Ni     -1.1968773399    -2.1443385976     3.9956548046
Ni     -8.5727809551    -2.1386790590     4.0100166316
Ni      2.4894032709    -0.0083878734     4.0031040587
Ni     -4.8822220047    -0.0207124834     3.9984229194
Ni      3.7145698157     2.1059708559     4.0011144103
Ni     -3.6556445800     2.1154303017     4.0098644454
Ni      1.2624382063    -2.1427322177     3.9934091490
Ni     -6.1178535398    -2.1525604613     4.0070468710
Ni      4.9435588174    -0.0153892997     4.0123781400
Ni     -2.4282982295    -0.0167945587     3.9962803314
Ni      6.1772315929     2.1096321676     3.9974965957
Ni     -1.2078164616     2.1158299290     4.0058350233
Ni      3.7202375761    -2.1350455512     3.9884702397
Ni     -3.6569694749    -2.1503234498     3.9957347613
Ni      1.2108764564     0.7236726604     6.0164808921
Ni     -6.1758174981     0.7135844954     6.0082918090
Ni      2.4274346480     2.8501408662     5.9950861754
Ni     -4.9136718448     2.8515239156     6.0220243625
Ni     -0.0280511349    -1.4003388584     6.0033270905
Ni     -7.3792842624    -1.3900854480     6.0408807326
Ni      3.6814733663     0.7152048330     6.0521718133
Ni     -3.7100555852     0.7356535082     6.0175238448
Ni      4.8874712810     2.8574848887     5.9983051131
Ni     -2.4986232304     2.8334163635     6.0732624736
Ni      2.4336604701    -1.3962918929     6.0025663630
Ni     -4.9332810318    -1.4194073086     6.0052337079
Ni      6.1225930600     0.7130223408     6.0104671045
Ni     -1.2491465694     0.7253563028     6.0032509772
Ni      7.3545925400     2.8647703040     5.9822815105
Ni     -0.0327897422     2.8467923024     6.0167890141
Ni      4.9076526048    -1.3857729314     6.0421256846
Ni     -2.4912112434    -1.4080459647     6.0002954109
Ni      0.0022903261     0.0002117921     8.0115502906
Ni     -7.3360478884    -0.0137789551     8.1251561871
Ni      1.2349374592     2.1226416771     8.0153912194
Ni      8.6096523499     2.1503603686     7.9259671818
Ni     -1.2249665104    -2.1286798600     7.9986824321
Ni     -8.5821953807    -2.1515251935     8.0015085036
Ni      2.4503747995    -0.0006939980     8.0303082447
Ni     -4.8965574671    -0.0363989168     7.9683269285
Ni      3.6495979379     2.1640576627     7.9818580248
Ni     -3.6793772036     2.0936202977     8.1757133313
Ni      1.2234553250    -2.1125200389     7.9999544745
Ni     -6.1252726450    -2.1345969569     8.0314843995
Ni      4.8895681125    -0.0118649198     8.1698584614
Ni     -2.4291842499    -0.0245343456     7.9743947842
Ni      6.1552263876     2.1645205356     7.9641009637
Ni     -1.2052076267     2.1123638299     8.0331865096
Ni      3.6886714224    -2.1064079206     7.9947510330
Ni     -3.6759236752    -2.1438790281     8.0189304969
O       6.1883356282     0.9020274009     9.4309668811
H      10.1556566998     2.4304952796    10.6623585736
H       7.2441873827     2.2501185343    10.6087166304
H       1.7805262130    -3.9662899655    10.6684728582
C       6.2826172555     1.6844372903    10.6480421102
O       7.1933133446    -0.1263478091    11.8405609475
H      -7.0871650065    -0.2323007706    10.9519749355
C       6.3687086641     0.8741755035    11.9239566016
H       6.8664420740     3.4812173887    12.6855211027
C       7.7447569947     3.7721025662    13.2787755792
H       3.9609230058    -1.5488710027    13.5477528715
H       8.6516440471     3.6640561408    12.6494935074
O       7.7812748011     2.9121612146    14.4189937995
H       8.1835751309     3.3913412049    15.1596791683
O      -4.1622810131     1.6502667839    10.2580187999
H      -3.3528692647     1.4605219417    10.7686499092
88
Step 4 | NEB Image 4 | Cartesian Angstrom
Ni      1.2285271350     0.7092904720     2.0000000000
Ni     -6.1433728650     0.7092904720     2.0000000000
Ni      2.4570542700     2.8371618880     2.0000000000
Ni     -4.9148457300     2.8371618880     2.0000000000
Ni      0.0000000000    -1.4185809440     2.0000000000
Ni     -7.3719000000    -1.4185809440     2.0000000000
Ni      3.6855814050     0.7092904720     2.0000000000
Ni     -3.6863185950     0.7092904720     2.0000000000
Ni      4.9141085400     2.8371618880     2.0000000000
Ni     -2.4577914600     2.8371618880     2.0000000000
Ni      2.4570542700    -1.4185809440     2.0000000000
Ni     -4.9148457300    -1.4185809440     2.0000000000
Ni      6.1433728650     0.7092904720     2.0000000000
Ni     -1.2285271350     0.7092904720     2.0000000000
Ni      7.3719000000     2.8371618880     2.0000000000
Ni      0.0000000000     2.8371618880     2.0000000000
Ni      4.9148457300    -1.4185809440     2.0000000000
Ni     -2.4570542700    -1.4185809440     2.0000000000
Ni      0.0357772184    -0.0140949980     3.9980406115
Ni     -7.3376375980    -0.0146512860     3.9995441554
Ni      1.2601567293     2.1109280480     3.9980157633
Ni     -6.1047021142     2.1166192980     3.9984100429
Ni     -1.1922440760    -2.1417041403     3.9975082812
Ni     -8.5688361513    -2.1404243088     4.0043541684
Ni      2.4954339230    -0.0096130482     4.0034765001
Ni     -4.8767239909    -0.0151046797     3.9958515090
Ni      3.7219168394     2.1094245146     4.0043169670
Ni     -3.6520889558     2.1155652605     4.0082160376
Ni      1.2646973651    -2.1436374870     3.9979849028
Ni     -6.1093929674    -2.1477479043     3.9986517817
Ni      4.9505899616    -0.0125301287     4.0117687579
Ni     -2.4252863337    -0.0138791611     3.9982318180
Ni      6.1802913583     2.1136857501     4.0043565713
Ni     -1.1991250107     2.1157028395     4.0002564204
Ni      3.7207881868    -2.1373660444     3.9899541045
Ni     -3.6486873453    -2.1466528415     3.9930893904
Ni      1.2133868656     0.7280591626     6.0137016512
Ni     -6.1665536878     0.7183455031     6.0086945998
Ni      2.4366881699     2.8544279856     5.9970204289
Ni     -4.9072300079     2.8506676211     6.0247304217
Ni     -0.0206298306    -1.3978726706     6.0083271678
Ni     -7.3780224269    -1.3843777091     6.0169538133
Ni      3.6839879051     0.7214284613     6.0483182792
Ni     -3.7014521446     0.7444893580     6.0316152665
Ni      4.8989685659     2.8597105226     6.0181978623
Ni     -2.4881329494     2.8433912686     6.0452865733
Ni      2.4359626707    -1.3940959700     6.0049407193
Ni     -4.9224897598    -1.4085058610     5.9970576908
Ni      6.1262172236     0.7289013440     6.0208569418
Ni     -1.2458841876     0.7283968891     6.0014203810
Ni      7.3609415650     2.8599813092     6.0003155444
Ni     -0.0228358365     2.8564550040     6.0076678801
Ni      4.9065311508    -1.3857679250     6.0265241208
Ni     -2.4826603852    -1.4007863475     6.0030462043
Ni      0.0027200272     0.0120200841     8.0130534539
Ni     -7.3314974432    -0.0135522402     8.1098756459
Ni      1.2379685790     2.1322788981     8.0101577432
Ni      8.6305212349     2.1519397467     7.9463889115
Ni     -1.2202028563    -2.1215552658     8.0026889446
Ni     -8.5855987577    -2.1414471030     7.9756974524
Ni      2.4517033837     0.0114216286     8.0269577370
Ni     -4.8893494610    -0.0198206841     7.9792202472
Ni      3.6541338043     2.1675176881     7.9906321778
Ni     -3.6663522628     2.1120564494     8.1784543032
Ni      1.2238563433    -2.0980020551     8.0153361925
Ni     -6.1157868338    -2.1227216204     7.9949653781
Ni      4.8959919163    -0.0166217135     8.1367878064
Ni     -2.4252022322    -0.0176816436     7.9888979852
Ni      6.1612000041     2.2023190369     8.0346736280
Ni     -1.1955978926     2.1246238091     8.0055378105
Ni      3.6898894957    -2.0992182850     7.9961265358
Ni     -3.6727521808    -2.1314403636     8.0175792125
O       6.1795523175     0.8426035035     9.3842468436
H      10.8403724445     2.9552842649    10.5916662094
H       7.0027366265     1.9967514999    10.9146990258
H       1.7236429957    -5.1008732677    11.2583887722
C       6.3823045852     1.0854892192    10.7861425285
O       7.7777787114    -0.8598973240    10.9445714799
H      -6.9355909328    -0.8385589795     9.8340430524
C       7.1216343323     0.0392201673    11.5542775545
H       8.3725316958     4.2403223346    11.8299871331
C       8.4901542921     4.3394115188    12.9225650848
H       3.9772793649    -1.4240438207    13.3009275433
H       9.4343857329     4.8659046685    13.1220827015
O       8.4489987152     3.0339142233    13.5164990134
H       9.2287152966     2.9263703462    14.0816926131
O      -3.7743796044     2.0355251628    10.2863674092
H      -2.8641698801     1.7908009295    10.5460958000
88
Step 5 | NEB Image 5 | Cartesian Angstrom
Ni      1.2285271350     0.7092904720     2.0000000000
Ni     -6.1433728650     0.7092904720     2.0000000000
Ni      2.4570542700     2.8371618880     2.0000000000
Ni     -4.9148457300     2.8371618880     2.0000000000
Ni      0.0000000000    -1.4185809440     2.0000000000
Ni     -7.3719000000    -1.4185809440     2.0000000000
Ni      3.6855814050     0.7092904720     2.0000000000
Ni     -3.6863185950     0.7092904720     2.0000000000
Ni      4.9141085400     2.8371618880     2.0000000000
Ni     -2.4577914600     2.8371618880     2.0000000000
Ni      2.4570542700    -1.4185809440     2.0000000000
Ni     -4.9148457300    -1.4185809440     2.0000000000
Ni      6.1433728650     0.7092904720     2.0000000000
Ni     -1.2285271350     0.7092904720     2.0000000000
Ni      7.3719000000     2.8371618880     2.0000000000
Ni      0.0000000000     2.8371618880     2.0000000000
Ni      4.9148457300    -1.4185809440     2.0000000000
Ni     -2.4570542700    -1.4185809440     2.0000000000
Ni      0.0464326620    -0.0306468460     3.9976675890
Ni     -7.3257303870    -0.0255862300     3.9933782980
Ni      1.2739848450     2.0960038070     3.9979157030
Ni     -6.1026021170     2.1049500680     4.0019149180
Ni     -1.1827110610    -2.1546561820     3.9989053170
Ni     -8.5597082650    -2.1592869340     3.9982394010
Ni      2.5024778430    -0.0256743600     4.0031952220
Ni     -4.8641413240    -0.0227350050     3.9956475690
Ni      3.7346756480     2.0985190290     4.0083618800
Ni     -3.6458198020     2.0991473590     4.0056686860
Ni      1.2703768650    -2.1597674920     4.0015811390
Ni     -6.0933336510    -2.1603781540     3.9902680500
Ni      4.9590538200    -0.0289845540     4.0074783820
Ni     -2.4167678920    -0.0248088220     4.0022401470
Ni      6.1885777810     2.1026461420     4.0098077600
Ni     -1.1844811720     2.0985803670     3.9964394390
Ni      3.7245308300    -2.1560713310     3.9888953010
Ni     -3.6351397940    -2.1574140910     3.9933365850
Ni      1.2278611130     0.7073057200     6.0134419810
Ni     -6.1428898530     0.6957346210     6.0102358510
Ni      2.4563605190     2.8356121920     5.9987058000
Ni     -4.8924583120     2.8187736320     6.0264580820
Ni      0.0002252210    -1.4241376010     6.0155868270
Ni     -7.3667991100    -1.4101212980     5.9895528060
Ni      3.6921281460     0.7008202940     6.0360645010
Ni     -3.6779272240     0.7256007260     6.0512861550
Ni      4.9267336850     2.8309168990     6.0432780270
Ni     -2.4664659500     2.8157315660     6.0151173370
Ni      2.4509011280    -1.4197685090     6.0062316800
Ni     -4.8985683740    -1.4191884620     5.9881596610
Ni      6.1372839650     0.7115480370     6.0073921100
Ni     -1.2256557510     0.7019370040     6.0032560690
Ni      7.3730564330     2.8242126570     6.0269074010
Ni     -0.0034566730     2.8405670140     6.0010880700
Ni      4.9162369820    -1.4189308570     6.0083232610
Ni     -2.4596272260    -1.4182314770     6.0084483810
Ni      0.0277268390    -0.0168450280     8.0180888710
Ni     -7.3091221710    -0.0327920680     8.0371701400
Ni      1.2611452740     2.1078740620     8.0062525300
Ni      8.6667549770     2.1138793650     7.9801313330
Ni     -1.1942402360    -2.1496555940     8.0109921590
Ni     -8.5668484660    -2.1735761150     7.9430911750
Ni      2.4712577410    -0.0190631580     8.0243063390
Ni     -4.8670711400    -0.0431110720     7.9967287920
Ni      3.6750137580     2.1321536040     7.9940007810
Ni     -3.6274773380     2.0999917070     8.2089215290
Ni      1.2517815200    -2.1329879940     8.0267060850
Ni     -6.0785108950    -2.1534189890     7.9361595560
Ni      4.9123316280    -0.0512787390     8.0829089500
Ni     -2.4007725170    -0.0429334740     8.0081832520
Ni      6.1908597070     2.1505617180     8.1094472440
Ni     -1.1654360560     2.0989982700     7.9806126390
Ni      3.7077660390    -2.1419918620     7.9975968800
Ni     -3.6463297530    -2.1524111230     8.0158878220
O       6.1707187590     0.6663307040     9.3727337630
H      11.2555922500     3.1706166680    10.5266232770
H       7.1149227860     1.0824741990    11.1550798120
H       1.6297081310    -5.3793991980    11.2177269450
C       6.2238707100     0.5353136510    10.8108846880
O       7.5718415080    -1.5277099790    10.9241884940
H      -6.8828388710    -1.2337967880    10.0124245870
C       6.2850334910    -0.9302036460    11.2182633770
H       9.1791669060     4.9099545600    10.6626973770
C       9.7467965870     5.2786349730    12.7161077750
H       5.0959169980    -0.6608682970    12.9933131080
H      10.5457770910     5.8077082870    13.2666670860
O       9.6783811350     3.9068622240    13.1006105230
H      10.5447055700     3.5019751520    12.9206205020
O      -3.5153567700     2.2005093110    10.2599052050
H      -2.6227032800     1.8412518110    10.4321503050
