88
Step 1 | NEB Image 1 | Cartesian Angstrom
Ni      1.2285271350     0.7092904720     2.0000000000
Ni     -6.1433728650     0.7092904720     2.0000000000
Ni      2.4570542700     2.8371618880     2.0000000000
Ni     -4.9148457300     2.8371618880     2.0000000000
Ni      0.0000000000    -1.4185809440     2.0000000000
Ni     -7.3719000000    -1.4185809440     2.0000000000
Ni      3.6855814050     0.7092904720     2.0000000000
Ni     -3.6863185950     0.7092904720     2.0000000000
Ni      4.9141085400     2.8371618880     2.0000000000
Ni     -2.4577914600     2.8371618880     2.0000000000
Ni      2.4570542700    -1.4185809440     2.0000000000
Ni     -4.9148457300    -1.4185809440     2.0000000000
Ni      6.1433728650     0.7092904720     2.0000000000
Ni     -1.2285271350     0.7092904720     2.0000000000
Ni      7.3719000000     2.8371618880     2.0000000000
Ni      0.0000000000     2.8371618880     2.0000000000
Ni      4.9148457300    -1.4185809440     2.0000000000
Ni     -2.4570542700    -1.4185809440     2.0000000000
Ni      0.0345187234    -0.0219895959     3.9906686506
Ni     -7.3332872529    -0.0205271350     3.9970929970
Ni      1.2574298371     2.1090479016     3.9981086770
Ni     -6.1061214153     2.1042281316     4.0017605185
Ni     -1.1958375155    -2.1495425789     3.9888614873
Ni     -8.5615731291    -2.1597422030     3.9935633301
Ni      2.4909200515    -0.0209290578     3.9889124626
Ni     -4.8775455868    -0.0288695998     4.0155932973
Ni      3.7235299523     2.1102350339     3.9932622384
Ni     -3.6483031855     2.1055811522     4.0174271749
Ni      1.2597529797    -2.1544756242     3.9969618463
Ni     -6.1074652262    -2.1506208434     4.0019689283
Ni      4.9550771908    -0.0234645643     3.9935565644
Ni     -2.4269867653    -0.0199772708     3.9982338911
Ni      6.1741097051     2.1083418571     4.0046158614
Ni     -1.1996729370     2.1123145435     4.0000024585
Ni      3.7197951829    -2.1539414756     3.9921760547
Ni     -3.6589301935    -2.1514998115     3.9994955107
Ni      1.2136841869     0.7163863979     5.9963073096
Ni     -6.1473437226     0.7096773911     6.0218176054
Ni      2.4453295017     2.8415084524     5.9971730433
Ni     -4.9231971923     2.8360653972     6.0327934449
Ni     -0.0226348385    -1.4110330430     6.0020236029
Ni     -7.3908667378    -1.4145678834     5.9981301391
Ni      3.6669417345     0.7157583701     5.9869138182
Ni     -3.7108784987     0.7190435175     6.0328517480
Ni      4.9057976617     2.8388244163     6.0411982092
Ni     -2.4814248435     2.8298458387     6.0521186228
Ni      2.4355069788    -1.4085502466     5.9888639843
Ni     -4.9252928465    -1.4026264080     6.0548563839
Ni      6.1341025786     0.7315238745     6.0218817427
Ni     -1.2402669783     0.7221835538     5.9926808095
Ni      7.3408175190     2.8291688103     6.0248565089
Ni     -0.0225097209     2.8466795557     6.0142376281
Ni      4.9088271165    -1.4251457534     5.9900387779
Ni     -2.4790699264    -1.4211153466     5.9913638200
Ni      0.0337137405    -0.0099863123     8.0038502320
Ni     -7.3606520147    -0.0334139511     7.9835827732
Ni      1.2525382386     2.1076756093     8.0014158677
Ni      8.5596645315     2.1514300915     7.9633346422
Ni     -1.1983605499    -2.1613845897     8.0018652759
Ni     -8.5927669864    -2.1264268734     8.0165035337
Ni      2.4708324722    -0.0109047600     8.0065027389
Ni     -4.8995212632    -0.0584838282     8.1493062015
Ni      3.6789469906     2.1047412898     7.9888648741
Ni     -3.6333178494     2.1270714900     8.1546283531
Ni      1.2394335961    -2.1164979174     7.9892760222
Ni     -6.1305722611    -2.1461024656     7.9989212299
Ni      4.9150163145    -0.0283439881     7.9490640309
Ni     -2.3653823178    -0.0601929248     7.9425724452
Ni      6.1349712758     2.1197335004     8.1598232492
Ni     -1.1861990586     2.1067384809     8.0263285947
Ni      3.6953023012    -2.1157302873     7.9694462946
Ni     -3.6468332403    -2.1628724713     8.0264725749
O       5.9486020032     1.9536774433    10.1568983318
H       6.2023593986     1.0444615420    10.4395396161
H       7.6485803319     2.9982816350    10.7947394844
H       2.3841835216    -2.5662265370    10.9995346326
C       6.5922936452     2.8570131008    11.0871865803
O       6.8828593053     0.8516013498    12.3925733789
H      -6.8879959571     0.8254517200    12.3248078773
C       6.4620997723     2.2299052156    12.4710261049
H       5.3979785171     2.1706601767    12.7461907790
C       7.1981974178     3.0342299686    13.5247288963
H       3.2389656514    -2.2859498111    13.4051121917
H       8.2901195875     2.9478942375    13.3576433856
O       6.8260697992     2.5426661176    14.8120038538
H       7.2522042786     3.0948827032    15.4870039972
O      -4.3927237137     1.0982075682     9.5865509607
H      -3.6717371060     0.6667680985    10.0888232085
88
Step 2 | NEB Image 2 | Cartesian Angstrom
Ni      1.2285271350     0.7092904720     2.0000000000
Ni     -6.1433728650     0.7092904720     2.0000000000
Ni      2.4570542700     2.8371618880     2.0000000000
Ni     -4.9148457300     2.8371618880     2.0000000000
Ni      0.0000000000    -1.4185809440     2.0000000000
Ni     -7.3719000000    -1.4185809440     2.0000000000
Ni      3.6855814050     0.7092904720     2.0000000000
Ni     -3.6863185950     0.7092904720     2.0000000000
Ni      4.9141085400     2.8371618880     2.0000000000
Ni     -2.4577914600     2.8371618880     2.0000000000
Ni      2.4570542700    -1.4185809440     2.0000000000
Ni     -4.9148457300    -1.4185809440     2.0000000000
Ni      6.1433728650     0.7092904720     2.0000000000
Ni     -1.2285271350     0.7092904720     2.0000000000
Ni      7.3719000000     2.8371618880     2.0000000000
Ni      0.0000000000     2.8371618880     2.0000000000
Ni      4.9148457300    -1.4185809440     2.0000000000
Ni     -2.4570542700    -1.4185809440     2.0000000000
Ni      0.0341545793    -0.0130636406     3.9934839504
Ni     -7.3213600375    -0.0043756080     4.0074140121
Ni      1.2574457994     2.1193936849     3.9970479703
Ni     -6.1080723875     2.1176878814     4.0332017105
Ni     -1.1952017825    -2.1376494560     3.9899348370
Ni     -8.5583114496    -2.1487836621     4.0046264712
Ni      2.4932422505    -0.0157999697     3.9933490365
Ni     -4.8819183133    -0.0061182295     4.0292836577
Ni      3.7258715507     2.1169494895     3.9963363377
Ni     -3.6484409014     2.1225686912     4.0214727827
Ni      1.2615508068    -2.1443943390     3.9998223621
Ni     -6.1033925490    -2.1342808184     4.0068741476
Ni      4.9616327120    -0.0164686404     3.9980575666
Ni     -2.4298595862    -0.0044524768     4.0002729935
Ni      6.1811495453     2.1196802843     4.0071205065
Ni     -1.1999856028     2.1244008181     3.9993000547
Ni      3.7228169702    -2.1527819539     4.0033202753
Ni     -3.6595395271    -2.1316165854     4.0021867194
Ni      1.2144849436     0.7335930612     5.9964638195
Ni     -6.1196877446     0.7584214912     6.1035794698
Ni      2.4427495499     2.8611077548     5.9898782702
Ni     -4.9290891657     2.8456353451     6.0651912259
Ni     -0.0158086762    -1.3970180000     6.0076089338
Ni     -7.3798338512    -1.3878981329     6.0091677245
Ni      3.6688151448     0.7288020346     5.9897352557
Ni     -3.6998584771     0.7442508553     6.0482277461
Ni      4.9136254639     2.8519684968     6.0404298137
Ni     -2.4751335525     2.8659029175     6.0501701138
Ni      2.4388964519    -1.4013256070     6.0032222274
Ni     -4.9166383170    -1.3583395927     6.0647933240
Ni      6.1428635962     0.7362691585     6.0133193628
Ni     -1.2375535242     0.7423555804     5.9951409321
Ni      7.3554658367     2.8330293957     6.0841627039
Ni     -0.0195785480     2.8760081627     6.0054872693
Ni      4.9041562473    -1.4085437541     5.9974021792
Ni     -2.4701742192    -1.3961740508     5.9950221200
Ni      0.0346451937     0.0089406000     8.0040859783
Ni     -7.3136672141    -0.0069639237     7.9883358893
Ni      1.2483376799     2.1362854629     7.9972544417
Ni      8.5680437705     2.2421543656     8.1984104194
Ni     -1.1986963992    -2.1345430847     8.0039147677
Ni     -8.5664625707    -2.0732541707     7.9976424192
Ni      2.4560047392     0.0161907777     8.0065372593
Ni     -4.8081362059     0.0199544128     8.2666307083
Ni      3.6619465590     2.1381211387     7.9789764333
Ni     -3.5884593727     2.1881754742     8.1262491422
Ni      1.2358136411    -2.1116360248     8.0180129929
Ni     -6.0849350475    -2.0864555083     8.0114462616
Ni      4.8970819550    -0.0015328098     7.9623012686
Ni     -2.3569680009    -0.0283937133     7.9611195137
Ni      6.1117895480     2.1135799309     8.1304339059
Ni     -1.1661616775     2.1426242725     8.0090195490
Ni      3.6688022699    -2.0685434085     7.9981042611
Ni     -3.6392612664    -2.1242743774     8.0307485270
O       6.1234032148     1.3764812830    10.0227295903
H       9.0571321545     2.5937035091     9.7666237358
H       8.2489083725     2.3122272730     9.8235548993
H       1.4508532643    -3.6109379656    11.1009691158
C       5.9297977125     2.0144197913    11.0764538521
O       7.4052808742     0.4603989612    12.1324953133
H      -7.4708785589     0.1676461950    11.1988121783
C       6.6989045821     1.6748596126    12.3149069569
H       5.9323012407     1.6097592310    13.1166285951
C       7.5391061387     2.8795239818    12.9171158804
H       3.4052878080    -2.5266667366    12.6510002333
H       8.5628029249     2.8529587982    12.5176856958
O       7.5374431172     2.7315163294    14.3455593949
H       8.1675965041     3.3659455286    14.7329761899
O      -4.0504342563     1.2218760058     9.6947095792
H      -3.2315220547     1.0354989959    10.1980861290
88
Step 3 | NEB Image 3 | Cartesian Angstrom
Ni      1.2285271350     0.7092904720     2.0000000000
Ni     -6.1433728650     0.7092904720     2.0000000000
Ni      2.4570542700     2.8371618880     2.0000000000
Ni     -4.9148457300     2.8371618880     2.0000000000
Ni      0.0000000000    -1.4185809440     2.0000000000
Ni     -7.3719000000    -1.4185809440     2.0000000000
Ni      3.6855814050     0.7092904720     2.0000000000
Ni     -3.6863185950     0.7092904720     2.0000000000
Ni      4.9141085400     2.8371618880     2.0000000000
Ni     -2.4577914600     2.8371618880     2.0000000000
Ni      2.4570542700    -1.4185809440     2.0000000000
Ni     -4.9148457300    -1.4185809440     2.0000000000
Ni      6.1433728650     0.7092904720     2.0000000000
Ni     -1.2285271350     0.7092904720     2.0000000000
Ni      7.3719000000     2.8371618880     2.0000000000
Ni      0.0000000000     2.8371618880     2.0000000000
Ni      4.9148457300    -1.4185809440     2.0000000000
Ni     -2.4570542700    -1.4185809440     2.0000000000
Ni      0.0284876442    -0.0084656667     3.9966887175
Ni     -7.3412678033    -0.0124735002     4.0002510927
Ni      1.2515716513     2.1157141308     3.9966826197
Ni     -6.1066314679     2.1190216279     3.9989035673
Ni     -1.1995330612    -2.1364739488     3.9956007215
Ni     -8.5717890071    -2.1361296965     4.0074937281
Ni      2.4887944598    -0.0048936425     4.0012935616
Ni     -4.8819276424    -0.0122072933     3.9990052251
Ni      3.7145289446     2.1134744650     3.9989279521
Ni     -3.6566046454     2.1205212194     4.0114165344
Ni      1.2589894147    -2.1380965845     3.9944248537
Ni     -6.1157869847    -2.1436534186     4.0037544588
Ni      4.9457372688    -0.0095947944     4.0098554989
Ni     -2.4314558118    -0.0091670435     3.9978540770
Ni      6.1766220685     2.1166665160     4.0010657417
Ni     -1.2066826479     2.1213367962     4.0016868708
Ni      3.7173889158    -2.1321325913     3.9859073689
Ni     -3.6562576228    -2.1422465813     3.9946460177
Ni      1.2029724735     0.7351162745     6.0130173064
Ni     -6.1787365584     0.7259630659     6.0127367637
Ni      2.4237547140     2.8626951173     5.9909575998
Ni     -4.9160469523     2.8596169342     6.0290509508
Ni     -0.0324531604    -1.3890317272     6.0051572195
Ni     -7.3862442937    -1.3749884681     6.0290742595
Ni      3.6726438785     0.7285530523     6.0401071776
Ni     -3.7126029861     0.7513169911     6.0316291648
Ni      4.8860939522     2.8693152231     6.0043593209
Ni     -2.4990163636     2.8520995172     6.0565061874
Ni      2.4267307927    -1.3870744320     6.0013906886
Ni     -4.9339878299    -1.4027804139     6.0047974915
Ni      6.1172899502     0.7343411557     6.0142033532
Ni     -1.2568201482     0.7371678274     6.0026337768
Ni      7.3546250041     2.8708544522     5.9902137771
Ni     -0.0343537550     2.8629366130     6.0105796919
Ni      4.8987165655    -1.3794531790     6.0266503673
Ni     -2.4945653400    -1.3928176708     6.0032585605
Ni     -0.0116435319     0.0222642078     8.0113489932
Ni     -7.3550853123     0.0065027944     8.1246643286
Ni      1.2243229689     2.1426092546     8.0096046992
Ni      8.6118647960     2.1625019824     7.9433113541
Ni     -1.2350713770    -2.1115794021     7.9994103299
Ni     -8.5949955218    -2.1261468854     7.9881793061
Ni      2.4359786411     0.0210595582     8.0240568717
Ni     -4.9084060180    -0.0110689051     7.9803720661
Ni      3.6354876511     2.1813169796     7.9743460402
Ni     -3.6805906634     2.1214566913     8.1770474257
Ni      1.2079682093    -2.0849033203     8.0088879911
Ni     -6.1335248987    -2.1077364454     8.0151491170
Ni      4.8744429925    -0.0095885520     8.1278438036
Ni     -2.4397599430    -0.0072130991     7.9876902313
Ni      6.1502388872     2.2206219668     8.0011759151
Ni     -1.2101487511     2.1349658111     8.0133445951
Ni      3.6761521233    -2.0879882844     7.9917773538
Ni     -3.6871195305    -2.1218615008     8.0211502309
O       6.0714020486     0.9060584330     9.3695096665
H      10.6080156851     2.9027962870    10.5587747602
H       6.7378991417     2.1618777838    10.8777552802
H       1.3783723074    -4.7947259703    11.0545985741
C       6.0781911064     1.2794906761    10.7565607155
O       7.1557393728    -0.7833374265    11.2016851497
H      -7.5368448967    -0.8179796390    10.1589193067
C       6.5977649005     0.2585852631    11.7128409502
H       6.4679433982     3.2142573003    13.2136510809
C       7.4565470828     3.5877319851    13.5127234200
H       3.8164149065    -1.7111311953    13.3138489444
H       8.2193174477     3.0812116308    12.8915695118
O       7.5961515727     3.2803714464    14.8999252643
H       8.4139607675     3.6882086601    15.2277753609
O      -3.8773637506     2.0046410667    10.2704036806
H      -2.9739944295     1.8541031805    10.6109118327
88
Step 4 | NEB Image 4 | Cartesian Angstrom
Ni      1.2285271350     0.7092904720     2.0000000000
Ni     -6.1433728650     0.7092904720     2.0000000000
Ni      2.4570542700     2.8371618880     2.0000000000
Ni     -4.9148457300     2.8371618880     2.0000000000
Ni      0.0000000000    -1.4185809440     2.0000000000
Ni     -7.3719000000    -1.4185809440     2.0000000000
Ni      3.6855814050     0.7092904720     2.0000000000
Ni     -3.6863185950     0.7092904720     2.0000000000
Ni      4.9141085400     2.8371618880     2.0000000000
Ni     -2.4577914600     2.8371618880     2.0000000000
Ni      2.4570542700    -1.4185809440     2.0000000000
Ni     -4.9148457300    -1.4185809440     2.0000000000
Ni      6.1433728650     0.7092904720     2.0000000000
Ni     -1.2285271350     0.7092904720     2.0000000000
Ni      7.3719000000     2.8371618880     2.0000000000
Ni      0.0000000000     2.8371618880     2.0000000000
Ni      4.9148457300    -1.4185809440     2.0000000000
Ni     -2.4570542700    -1.4185809440     2.0000000000
Ni      0.0402631658    -0.0228699624     3.9995602929
Ni     -7.3367454036    -0.0174645317     4.0026810587
Ni      1.2681300208     2.1027188357     3.9969635927
Ni     -6.1051879653     2.1084671704     4.0021131048
Ni     -1.1882007738    -2.1491700227     3.9973010172
Ni     -8.5619588603    -2.1466598615     4.0027275864
Ni      2.5004799174    -0.0192959712     4.0046273967
Ni     -4.8752691635    -0.0171647297     3.9997313513
Ni      3.7266027541     2.1021094548     4.0089990783
Ni     -3.6487730393     2.1097387171     4.0015982543
Ni      1.2676579937    -2.1553144089     4.0023255449
Ni     -6.1033929822    -2.1499093116     3.9964249778
Ni      4.9545047862    -0.0200064217     4.0121677951
Ni     -2.4227879733    -0.0188486247     3.9966532943
Ni      6.1821392208     2.1054964350     4.0082619837
Ni     -1.1911337855     2.1089069197     3.9944279487
Ni      3.7220817227    -2.1467445927     3.9917528295
Ni     -3.6457035465    -2.1491363038     3.9915198870
Ni      1.2199141851     0.7185121794     6.0127307577
Ni     -6.1582584756     0.7062197159     6.0219010637
Ni      2.4480588877     2.8437507614     6.0006187303
Ni     -4.9026920565     2.8372662957     6.0188071348
Ni     -0.0102714313    -1.4117963998     6.0080567275
Ni     -7.3720319412    -1.3948215617     6.0127696560
Ni      3.6893920406     0.7081834382     6.0514233872
Ni     -3.6912830586     0.7338783352     6.0296877129
Ni      4.9143802194     2.8406640354     6.0350682234
Ni     -2.4722355086     2.8420548322     6.0208355961
Ni      2.4389624605    -1.4063665546     6.0076150826
Ni     -4.9099856773    -1.4120815906     6.0006547864
Ni      6.1348231343     0.7162820097     6.0345697316
Ni     -1.2404989813     0.7188779841     5.9961843392
Ni      7.3646565853     2.8421253746     6.0135679623
Ni     -0.0090155806     2.8499212561     5.9984878887
Ni      4.9068054994    -1.4005941100     6.0213217159
Ni     -2.4702440102    -1.4095980833     6.0003357160
Ni      0.0145626143    -0.0060549438     8.0077613154
Ni     -7.3381306728    -0.0077409631     8.1023066846
Ni      1.2501603888     2.1162199248     8.0104470482
Ni      8.6426318042     2.1443205018     7.9644551015
Ni     -1.2058296832    -2.1352767120     8.0050921842
Ni     -8.5878913775    -2.1561459091     7.9586175711
Ni      2.4550000185    -0.0047169512     8.0316058473
Ni     -4.8568469853    -0.0171531907     8.0199686730
Ni      3.6647553996     2.1465077541     8.0004011903
Ni     -3.6443207665     2.1131852344     8.1364608585
Ni      1.2344315175    -2.1199180004     8.0233952224
Ni     -6.0976419277    -2.1586935913     7.9939590906
Ni      4.8997903151    -0.0405301471     8.1281710389
Ni     -2.4075788854    -0.0336636874     7.9930269909
Ni      6.1728985840     2.1742808679     8.0761383798
Ni     -1.1721830770     2.1087594505     7.9814573370
Ni      3.6879469301    -2.1224175961     7.9967049007
Ni     -3.6438947173    -2.1500332059     8.0136164328
O       6.1349597554     0.7627160064     9.4352859079
H      11.2298361795     3.1597366792    10.4511350449
H       6.8977740173     1.8016535752    11.0790972585
H       1.6032684656    -5.3356903885    11.3128022312
C       6.2763479946     0.9192059869    10.8429675566
O       7.4986449231    -1.2194070374    11.1605111148
H      -6.0482530343    -0.7547342488     8.8966554062
C       6.9653104833    -0.2298449523    11.5394095863
H       8.0317804213     4.4324174107    11.7102418629
C       8.1953628319     4.3175610821    12.7898068014
H       3.6398907395    -1.6508654447    13.3252567243
H       9.0932814929     4.8959525446    13.0702034161
O       8.3639689232     2.9154166257    13.0275075907
H       8.5604426627     2.7858747555    13.9698780198
O      -3.6101233099     2.2065643677    10.2358218506
H      -2.7405373246     1.8019892819    10.4285916547
88
Step 5 | NEB Image 5 | Cartesian Angstrom
Ni      1.2285271350     0.7092904720     2.0000000000
Ni     -6.1433728650     0.7092904720     2.0000000000
Ni      2.4570542700     2.8371618880     2.0000000000
Ni     -4.9148457300     2.8371618880     2.0000000000
Ni      0.0000000000    -1.4185809440     2.0000000000
Ni     -7.3719000000    -1.4185809440     2.0000000000
Ni      3.6855814050     0.7092904720     2.0000000000
Ni     -3.6863185950     0.7092904720     2.0000000000
Ni      4.9141085400     2.8371618880     2.0000000000
Ni     -2.4577914600     2.8371618880     2.0000000000
Ni      2.4570542700    -1.4185809440     2.0000000000
Ni     -4.9148457300    -1.4185809440     2.0000000000
Ni      6.1433728650     0.7092904720     2.0000000000
Ni     -1.2285271350     0.7092904720     2.0000000000
Ni      7.3719000000     2.8371618880     2.0000000000
Ni      0.0000000000     2.8371618880     2.0000000000
Ni      4.9148457300    -1.4185809440     2.0000000000
Ni     -2.4570542700    -1.4185809440     2.0000000000
Ni      0.0464326620    -0.0306468460     3.9976675890
Ni     -7.3257303870    -0.0255862300     3.9933782980
Ni      1.2739848450     2.0960038070     3.9979157030
Ni     -6.1026021170     2.1049500680     4.0019149180
Ni     -1.1827110610    -2.1546561820     3.9989053170
Ni     -8.5597082650    -2.1592869340     3.9982394010
Ni      2.5024778430    -0.0256743600     4.0031952220
Ni     -4.8641413240    -0.0227350050     3.9956475690
Ni      3.7346756480     2.0985190290     4.0083618800
Ni     -3.6458198020     2.0991473590     4.0056686860
Ni      1.2703768650    -2.1597674920     4.0015811390
Ni     -6.0933336510    -2.1603781540     3.9902680500
Ni      4.9590538200    -0.0289845540     4.0074783820
Ni     -2.4167678920    -0.0248088220     4.0022401470
Ni      6.1885777810     2.1026461420     4.0098077600
Ni     -1.1844811720     2.0985803670     3.9964394390
Ni      3.7245308300    -2.1560713310     3.9888953010
Ni     -3.6351397940    -2.1574140910     3.9933365850
Ni      1.2278611130     0.7073057200     6.0134419810
Ni     -6.1428898530     0.6957346210     6.0102358510
Ni      2.4563605190     2.8356121920     5.9987058000
Ni     -4.8924583120     2.8187736320     6.0264580820
Ni      0.0002252210    -1.4241376010     6.0155868270
Ni     -7.3667991100    -1.4101212980     5.9895528060
Ni      3.6921281460     0.7008202940     6.0360645010
Ni     -3.6779272240     0.7256007260     6.0512861550
Ni      4.9267336850     2.8309168990     6.0432780270
Ni     -2.4664659500     2.8157315660     6.0151173370
Ni      2.4509011280    -1.4197685090     6.0062316800
Ni     -4.8985683740    -1.4191884620     5.9881596610
Ni      6.1372839650     0.7115480370     6.0073921100
Ni     -1.2256557510     0.7019370040     6.0032560690
Ni      7.3730564330     2.8242126570     6.0269074010
Ni     -0.0034566730     2.8405670140     6.0010880700
Ni      4.9162369820    -1.4189308570     6.0083232610
Ni     -2.4596272260    -1.4182314770     6.0084483810
Ni      0.0277268390    -0.0168450280     8.0180888710
Ni     -7.3091221710    -0.0327920680     8.0371701400
Ni      1.2611452740     2.1078740620     8.0062525300
Ni      8.6667549770     2.1138793650     7.9801313330
Ni     -1.1942402360    -2.1496555940     8.0109921590
Ni     -8.5668484660    -2.1735761150     7.9430911750
Ni      2.4712577410    -0.0190631580     8.0243063390
Ni     -4.8670711400    -0.0431110720     7.9967287920
Ni      3.6750137580     2.1321536040     7.9940007810
Ni     -3.6274773380     2.0999917070     8.2089215290
Ni      1.2517815200    -2.1329879940     8.0267060850
Ni     -6.0785108950    -2.1534189890     7.9361595560
Ni      4.9123316280    -0.0512787390     8.0829089500
Ni     -2.4007725170    -0.0429334740     8.0081832520
Ni      6.1908597070     2.1505617180     8.1094472440
Ni     -1.1654360560     2.0989982700     7.9806126390
Ni      3.7077660390    -2.1419918620     7.9975968800
Ni     -3.6463297530    -2.1524111230     8.0158878220
O       6.1707187590     0.6663307040     9.3727337630
H      11.2555922500     3.1706166680    10.5266232770
H       7.1149227860     1.0824741990    11.1550798120
H       1.6297081310    -5.3793991980    11.2177269450
C       6.2238707100     0.5353136510    10.8108846880
O       7.5718415080    -1.5277099790    10.9241884940
H      -6.8828388710    -1.2337967880    10.0124245870
C       6.2850334910    -0.9302036460    11.2182633770
H       9.1791669060     4.9099545600    10.6626973770
C       9.7467965870     5.2786349730    12.7161077750
H       5.0959169980    -0.6608682970    12.9933131080
H      10.5457770910     5.8077082870    13.2666670860
O       9.6783811350     3.9068622240    13.1006105230
H      10.5447055700     3.5019751520    12.9206205020
O      -3.5153567700     2.2005093110    10.2599052050
H      -2.6227032800     1.8412518110    10.4321503050
