88
Step 1 | NEB Image 1 | Cartesian Angstrom
Ni      1.2285271350     0.7092904720     2.0000000000
Ni     -6.1433728650     0.7092904720     2.0000000000
Ni      2.4570542700     2.8371618880     2.0000000000
Ni     -4.9148457300     2.8371618880     2.0000000000
Ni      0.0000000000    -1.4185809440     2.0000000000
Ni     -7.3719000000    -1.4185809440     2.0000000000
Ni      3.6855814050     0.7092904720     2.0000000000
Ni     -3.6863185950     0.7092904720     2.0000000000
Ni      4.9141085400     2.8371618880     2.0000000000
Ni     -2.4577914600     2.8371618880     2.0000000000
Ni      2.4570542700    -1.4185809440     2.0000000000
Ni     -4.9148457300    -1.4185809440     2.0000000000
Ni      6.1433728650     0.7092904720     2.0000000000
Ni     -1.2285271350     0.7092904720     2.0000000000
Ni      7.3719000000     2.8371618880     2.0000000000
Ni      0.0000000000     2.8371618880     2.0000000000
Ni      4.9148457300    -1.4185809440     2.0000000000
Ni     -2.4570542700    -1.4185809440     2.0000000000
Ni      0.0345187234    -0.0219895959     3.9906686506
Ni     -7.3332872529    -0.0205271350     3.9970929970
Ni      1.2574298371     2.1090479016     3.9981086770
Ni     -6.1061214153     2.1042281316     4.0017605185
Ni     -1.1958375155    -2.1495425789     3.9888614873
Ni     -8.5615731291    -2.1597422030     3.9935633301
Ni      2.4909200515    -0.0209290578     3.9889124626
Ni     -4.8775455868    -0.0288695998     4.0155932973
Ni      3.7235299523     2.1102350339     3.9932622384
Ni     -3.6483031855     2.1055811522     4.0174271749
Ni      1.2597529797    -2.1544756242     3.9969618463
Ni     -6.1074652262    -2.1506208434     4.0019689283
Ni      4.9550771908    -0.0234645643     3.9935565644
Ni     -2.4269867653    -0.0199772708     3.9982338911
Ni      6.1741097051     2.1083418571     4.0046158614
Ni     -1.1996729370     2.1123145435     4.0000024585
Ni      3.7197951829    -2.1539414756     3.9921760547
Ni     -3.6589301935    -2.1514998115     3.9994955107
Ni      1.2136841869     0.7163863979     5.9963073096
Ni     -6.1473437226     0.7096773911     6.0218176054
Ni      2.4453295017     2.8415084524     5.9971730433
Ni     -4.9231971923     2.8360653972     6.0327934449
Ni     -0.0226348385    -1.4110330430     6.0020236029
Ni     -7.3908667378    -1.4145678834     5.9981301391
Ni      3.6669417345     0.7157583701     5.9869138182
Ni     -3.7108784987     0.7190435175     6.0328517480
Ni      4.9057976617     2.8388244163     6.0411982092
Ni     -2.4814248435     2.8298458387     6.0521186228
Ni      2.4355069788    -1.4085502466     5.9888639843
Ni     -4.9252928465    -1.4026264080     6.0548563839
Ni      6.1341025786     0.7315238745     6.0218817427
Ni     -1.2402669783     0.7221835538     5.9926808095
Ni      7.3408175190     2.8291688103     6.0248565089
Ni     -0.0225097209     2.8466795557     6.0142376281
Ni      4.9088271165    -1.4251457534     5.9900387779
Ni     -2.4790699264    -1.4211153466     5.9913638200
Ni      0.0337137405    -0.0099863123     8.0038502320
Ni     -7.3606520147    -0.0334139511     7.9835827732
Ni      1.2525382386     2.1076756093     8.0014158677
Ni      8.5596645315     2.1514300915     7.9633346422
Ni     -1.1983605499    -2.1613845897     8.0018652759
Ni     -8.5927669864    -2.1264268734     8.0165035337
Ni      2.4708324722    -0.0109047600     8.0065027389
Ni     -4.8995212632    -0.0584838282     8.1493062015
Ni      3.6789469906     2.1047412898     7.9888648741
Ni     -3.6333178494     2.1270714900     8.1546283531
Ni      1.2394335961    -2.1164979174     7.9892760222
Ni     -6.1305722611    -2.1461024656     7.9989212299
Ni      4.9150163145    -0.0283439881     7.9490640309
Ni     -2.3653823178    -0.0601929248     7.9425724452
Ni      6.1349712758     2.1197335004     8.1598232492
Ni     -1.1861990586     2.1067384809     8.0263285947
Ni      3.6953023012    -2.1157302873     7.9694462946
Ni     -3.6468332403    -2.1628724713     8.0264725749
O       5.9486020032     1.9536774433    10.1568983318
H       6.2023593986     1.0444615420    10.4395396161
H       7.6485803319     2.9982816350    10.7947394844
H       2.3841835216    -2.5662265370    10.9995346326
C       6.5922936452     2.8570131008    11.0871865803
O       6.8828593053     0.8516013498    12.3925733789
H      -6.8879959571     0.8254517200    12.3248078773
C       6.4620997723     2.2299052156    12.4710261049
H       5.3979785171     2.1706601767    12.7461907790
C       7.1981974178     3.0342299686    13.5247288963
H       3.2389656514    -2.2859498111    13.4051121917
H       8.2901195875     2.9478942375    13.3576433856
O       6.8260697992     2.5426661176    14.8120038538
H       7.2522042786     3.0948827032    15.4870039972
O      -4.3927237137     1.0982075682     9.5865509607
H      -3.6717371060     0.6667680985    10.0888232085
88
Step 2 | NEB Image 2 | Cartesian Angstrom
Ni      1.2285271350     0.7092904720     2.0000000000
Ni     -6.1433728650     0.7092904720     2.0000000000
Ni      2.4570542700     2.8371618880     2.0000000000
Ni     -4.9148457300     2.8371618880     2.0000000000
Ni      0.0000000000    -1.4185809440     2.0000000000
Ni     -7.3719000000    -1.4185809440     2.0000000000
Ni      3.6855814050     0.7092904720     2.0000000000
Ni     -3.6863185950     0.7092904720     2.0000000000
Ni      4.9141085400     2.8371618880     2.0000000000
Ni     -2.4577914600     2.8371618880     2.0000000000
Ni      2.4570542700    -1.4185809440     2.0000000000
Ni     -4.9148457300    -1.4185809440     2.0000000000
Ni      6.1433728650     0.7092904720     2.0000000000
Ni     -1.2285271350     0.7092904720     2.0000000000
Ni      7.3719000000     2.8371618880     2.0000000000
Ni      0.0000000000     2.8371618880     2.0000000000
Ni      4.9148457300    -1.4185809440     2.0000000000
Ni     -2.4570542700    -1.4185809440     2.0000000000
Ni      0.0375627374    -0.0147604875     3.9921220070
Ni     -7.3206588501    -0.0065271598     4.0058107725
Ni      1.2604014528     2.1180505553     3.9967229504
Ni     -6.1049857618     2.1161254164     4.0298074477
Ni     -1.1924995771    -2.1396797129     3.9890134383
Ni     -8.5566379273    -2.1500619383     4.0024593700
Ni      2.4959087980    -0.0167370468     3.9922079246
Ni     -4.8795445627    -0.0095148588     4.0261607587
Ni      3.7277677864     2.1156113124     3.9958678319
Ni     -3.6449128401     2.1203348625     4.0189440091
Ni      1.2638768339    -2.1465467153     3.9994651828
Ni     -6.1024586732    -2.1362166732     4.0054443633
Ni      4.9635542454    -0.0176884830     3.9976969184
Ni     -2.4262341411    -0.0069000766     3.9988409518
Ni      6.1819757025     2.1173637680     4.0061277218
Ni     -1.1972651960     2.1234084144     3.9987369675
Ni      3.7252656450    -2.1533407904     4.0002296870
Ni     -3.6574658983    -2.1342607193     4.0008680191
Ni      1.2195790908     0.7298154575     5.9945964966
Ni     -6.1204430866     0.7517831480     6.0911915859
Ni      2.4482522646     2.8571564888     5.9905608791
Ni     -4.9220390843     2.8426800579     6.0584957474
Ni     -0.0131292562    -1.3994843422     6.0058146818
Ni     -7.3778146746    -1.3929867250     6.0065460394
Ni      3.6734518079     0.7253542024     5.9890775739
Ni     -3.6975815756     0.7397493252     6.0406659590
Ni      4.9156833207     2.8489103174     6.0419007908
Ni     -2.4722966161     2.8593618752     6.0499279453
Ni      2.4425797841    -1.4039021096     5.9996306196
Ni     -4.9144894524    -1.3669895095     6.0612770512
Ni      6.1457494264     0.7345313014     6.0148403495
Ni     -1.2322812880     0.7392835143     5.9912609451
Ni      7.3537925488     2.8320493939     6.0714028910
Ni     -0.0149713786     2.8698109822     6.0051656894
Ni      4.9094728083    -1.4138806591     5.9956610715
Ni     -2.4674743256    -1.4019947878     5.9912852956
Ni      0.0404413103     0.0039021652     8.0028460466
Ni     -7.3203829050    -0.0158583186     7.9866079414
Ni      1.2545653693     2.1288399726     7.9966305669
Ni      8.5673078809     2.2246360526     8.1570274905
Ni     -1.1925438424    -2.1413180886     8.0033366586
Ni     -8.5622945628    -2.0842715533     8.0026250803
Ni      2.4617930074     0.0107066818     8.0049134025
Ni     -4.8185503825    -0.0038780757     8.2390190375
Ni      3.6661791026     2.1300907969     7.9814679454
Ni     -3.5837424995     2.1661323784     8.1340454114
Ni      1.2398566016    -2.1130541527     8.0142645401
Ni     -6.0870594142    -2.1022575351     8.0082042722
Ni      4.9041621896    -0.0105022387     7.9608757478
Ni     -2.3499119178    -0.0387142455     7.9497299766
Ni      6.1063666686     2.1130536022     8.1374474674
Ni     -1.1631864702     2.1334776262     8.0116121499
Ni      3.6718350566    -2.0739706069     7.9891545271
Ni     -3.6337682609    -2.1358306671     8.0261345208
O       6.1209173709     1.4875568383    10.0441097214
H       9.0415866279     2.6524219332     9.6687764825
H       8.2699234188     2.2435260753     9.7505877015
H       1.5575646621    -3.4042167538    11.0958285429
C       5.9543134948     2.1434311273    11.0893117582
O       7.3596429360     0.5323334134    12.1712755531
H      -7.4915899741     0.2443677231    11.2334302394
C       6.6761993731     1.7610226384    12.3402775386
H       5.8956054674     1.7103552440    13.1296413929
C       7.5376627612     2.9442895501    12.9391153778
H       3.4047793915    -2.4518609877    12.7075326414
H       8.5413660685     2.9067773023    12.4940828123
O       7.5841428525     2.7704120980    14.3621019554
H       8.2320726676     3.3942291034    14.7366775008
O      -4.0754337181     1.1473922936     9.6668364343
H      -3.2733156526     0.8820680707    10.1608576689
88
Step 3 | NEB Image 3 | Cartesian Angstrom
Ni      1.2285271350     0.7092904720     2.0000000000
Ni     -6.1433728650     0.7092904720     2.0000000000
Ni      2.4570542700     2.8371618880     2.0000000000
Ni     -4.9148457300     2.8371618880     2.0000000000
Ni      0.0000000000    -1.4185809440     2.0000000000
Ni     -7.3719000000    -1.4185809440     2.0000000000
Ni      3.6855814050     0.7092904720     2.0000000000
Ni     -3.6863185950     0.7092904720     2.0000000000
Ni      4.9141085400     2.8371618880     2.0000000000
Ni     -2.4577914600     2.8371618880     2.0000000000
Ni      2.4570542700    -1.4185809440     2.0000000000
Ni     -4.9148457300    -1.4185809440     2.0000000000
Ni      6.1433728650     0.7092904720     2.0000000000
Ni     -1.2285271350     0.7092904720     2.0000000000
Ni      7.3719000000     2.8371618880     2.0000000000
Ni      0.0000000000     2.8371618880     2.0000000000
Ni      4.9148457300    -1.4185809440     2.0000000000
Ni     -2.4570542700    -1.4185809440     2.0000000000
Ni      0.0297016849    -0.0089735405     3.9966051663
Ni     -7.3413468028    -0.0141074326     4.0001059176
Ni      1.2520607739     2.1150287408     3.9966459334
Ni     -6.1052790617     2.1182050068     3.9974521417
Ni     -1.1981528626    -2.1377291282     3.9951670098
Ni     -8.5713471686    -2.1352847152     4.0086161055
Ni      2.4896563792    -0.0048724768     4.0017261094
Ni     -4.8815225873    -0.0139056020     3.9977049469
Ni      3.7149000757     2.1119647933     3.9986394688
Ni     -3.6555351968     2.1205533792     4.0102522469
Ni      1.2607110335    -2.1384731971     3.9936645387
Ni     -6.1162351578    -2.1445448066     4.0045787375
Ni      4.9457454701    -0.0100992432     4.0110200144
Ni     -2.4299116483    -0.0104066011     3.9965506298
Ni      6.1774967334     2.1152525945     4.0000507077
Ni     -1.2063889905     2.1209775137     4.0021015740
Ni      3.7190908528    -2.1313167682     3.9857878007
Ni     -3.6558691628    -2.1436522814     3.9942677154
Ni      1.2050082528     0.7337646207     6.0135506282
Ni     -6.1787092142     0.7246263363     6.0089991153
Ni      2.4246948759     2.8609905399     5.9907144390
Ni     -4.9145957656     2.8604742343     6.0267100603
Ni     -0.0315629229    -1.3898630499     6.0041261147
Ni     -7.3840333112    -1.3761470487     6.0343237150
Ni      3.6752877312     0.7267122173     6.0435584811
Ni     -3.7119389968     0.7490764311     6.0254009423
Ni      4.8854565362     2.8687943421     6.0002731404
Ni     -2.4981650385     2.8504479663     6.0597731452
Ni      2.4282514394    -1.3876650118     6.0012333915
Ni     -4.9334623078    -1.4063792141     6.0040229631
Ni      6.1186939592     0.7311025139     6.0145220315
Ni     -1.2551740156     0.7362985305     6.0019625248
Ni      7.3559706280     2.8725331593     5.9847823761
Ni     -0.0331675494     2.8603521421     6.0113299501
Ni      4.9015520134    -1.3786303599     6.0315667383
Ni     -2.4936652214    -1.3951344578     6.0014999718
Ni     -0.0098256792     0.0200224994     8.0107169749
Ni     -7.3528555414     0.0059998116     8.1295994060
Ni      1.2260829769     2.1401598390     8.0103999867
Ni      8.6112212156     2.1613407205     7.9346335187
Ni     -1.2338497343    -2.1133205530     7.9981645822
Ni     -8.5924425544    -2.1279908966     7.9948855853
Ni      2.4385513412     0.0188197028     8.0255914839
Ni     -4.9079053623    -0.0147704340     7.9728924642
Ni      3.6371891500     2.1808141176     7.9740417678
Ni     -3.6805730461     2.1164740499     8.1704590409
Ni      1.2095511972    -2.0866396672     8.0068109012
Ni     -6.1333971248    -2.1103883077     8.0223313742
Ni      4.8773090904    -0.0088612171     8.1429642161
Ni     -2.4387332628    -0.0095481742     7.9822752782
Ni      6.1516365030     2.2181421793     7.9857099745
Ni     -1.2093288693     2.1325413912     8.0167113552
Ni      3.6787387750    -2.0879078994     7.9920004359
Ni     -3.6857311704    -2.1248052435     8.0204935459
O       6.0797926707     0.9250596165     9.3752881657
H      10.5304533178     2.8351587559    10.5567755111
H       6.7581133950     2.2691324348    10.8060532092
H       1.3956109593    -4.6497404864    11.0122312615
C       6.0899321291     1.3867217166    10.7384881392
O       7.1309827619    -0.6614820184    11.3012166456
H      -7.5662427492    -0.7445880254    10.2697862466
C       6.5908840880     0.4181511729    11.7556459612
H       6.4641160388     3.2346357420    13.2046877512
C       7.4511802757     3.5958577749    13.5169309962
H       3.8114147265    -1.6992757050    13.3477627752
H       8.2115712746     3.1021819685    12.8848818566
O       7.5921809349     3.2502092391    14.8933242804
H       8.4007269523     3.6647202980    15.2342941102
O      -3.9279377948     1.9483234441    10.2613501394
H      -3.0367196220     1.8050600776    10.6343166231
88
Step 4 | NEB Image 4 | Cartesian Angstrom
Ni      1.2285271350     0.7092904720     2.0000000000
Ni     -6.1433728650     0.7092904720     2.0000000000
Ni      2.4570542700     2.8371618880     2.0000000000
Ni     -4.9148457300     2.8371618880     2.0000000000
Ni      0.0000000000    -1.4185809440     2.0000000000
Ni     -7.3719000000    -1.4185809440     2.0000000000
Ni      3.6855814050     0.7092904720     2.0000000000
Ni     -3.6863185950     0.7092904720     2.0000000000
Ni      4.9141085400     2.8371618880     2.0000000000
Ni     -2.4577914600     2.8371618880     2.0000000000
Ni      2.4570542700    -1.4185809440     2.0000000000
Ni     -4.9148457300    -1.4185809440     2.0000000000
Ni      6.1433728650     0.7092904720     2.0000000000
Ni     -1.2285271350     0.7092904720     2.0000000000
Ni      7.3719000000     2.8371618880     2.0000000000
Ni      0.0000000000     2.8371618880     2.0000000000
Ni      4.9148457300    -1.4185809440     2.0000000000
Ni     -2.4570542700    -1.4185809440     2.0000000000
Ni      0.0397948449    -0.0221697571     3.9979903944
Ni     -7.3390539333    -0.0186025504     4.0005641439
Ni      1.2675070358     2.1043101915     3.9986160188
Ni     -6.1072115063     2.1057518628     4.0037937199
Ni     -1.1892592200    -2.1470751530     3.9965867546
Ni     -8.5660745733    -2.1493180451     4.0024987707
Ni      2.4996399859    -0.0157789112     4.0036107329
Ni     -4.8773428508    -0.0199496971     4.0034997569
Ni      3.7273515267     2.1042767350     4.0087172042
Ni     -3.6529466575     2.1030477688     4.0068013793
Ni      1.2661756112    -2.1512029665     4.0005260619
Ni     -6.1054409126    -2.1544879951     3.9968877226
Ni      4.9527043247    -0.0201203421     4.0112605931
Ni     -2.4279820970    -0.0202122362     4.0016355203
Ni      6.1812401066     2.1090372643     4.0076898411
Ni     -1.1928182430     2.1042753117     3.9949885214
Ni      3.7211974806    -2.1460357048     3.9936390600
Ni     -3.6469578724    -2.1515661949     3.9940186122
Ni      1.2126349794     0.7182990972     6.0123838049
Ni     -6.1660048272     0.7008182505     6.0257235743
Ni      2.4423240618     2.8459411499     5.9995659765
Ni     -4.9060101811     2.8311639651     6.0214557220
Ni     -0.0157907455    -1.4116223089     6.0093590438
Ni     -7.3786671094    -1.3979776072     6.0112834266
Ni      3.6834556513     0.7118562908     6.0493262556
Ni     -3.7056136616     0.7224707656     6.0498203304
Ni      4.9111665804     2.8457384201     6.0332253289
Ni     -2.4799032675     2.8303950966     6.0171287854
Ni      2.4361694225    -1.4033807750     6.0047007983
Ni     -4.9189346163    -1.4175397434     6.0043840667
Ni      6.1284352059     0.7203242206     6.0289163274
Ni     -1.2490821351     0.7105279296     5.9986741012
Ni      7.3628026007     2.8432442065     6.0165125855
Ni     -0.0177119898     2.8464673447     6.0007975059
Ni      4.9050094293    -1.3985216574     6.0232092049
Ni     -2.4776785172    -1.4137136259     6.0050797911
Ni      0.0057014203    -0.0083807017     8.0111484534
Ni     -7.3658021979    -0.0228374678     8.1015911111
Ni      1.2420157616     2.1144984459     8.0088635137
Ni      8.6303984341     2.1317237738     7.9674031006
Ni     -1.2141561621    -2.1361532050     8.0073050740
Ni     -8.6049058416    -2.1661489400     7.9591554090
Ni      2.4471708872    -0.0027184396     8.0287470312
Ni     -4.8808332138    -0.0268987037     8.0366548784
Ni      3.6609320581     2.1489555042     7.9965824864
Ni     -3.6667209501     2.0896846481     8.1424674772
Ni      1.2287016587    -2.1184392849     8.0238000342
Ni     -6.1158051832    -2.1769865112     7.9910141321
Ni      4.8856518169    -0.0382332963     8.1293699515
Ni     -2.4296775965    -0.0425542910     8.0014095740
Ni      6.1634114067     2.1718255349     8.0765837756
Ni     -1.1884033269     2.0980008087     7.9804138582
Ni      3.6766975977    -2.1228541996     7.9953272830
Ni     -3.6567311547    -2.1584705181     8.0171068808
O       6.1221132917     0.7635916091     9.4430419971
H      11.2062417750     3.1534365389    10.4542610408
H       6.8728082712     1.8500074800    11.0630705444
H       1.5949119353    -5.3124242539    11.3227771730
C       6.2680195637     0.9501389534    10.8501133255
O       7.5402369173    -1.1493373847    11.2263123984
H      -6.0457939154    -0.7545550020     8.8966286016
C       6.9869554253    -0.1721331217    11.5643917970
H       8.0273893421     4.3525031252    11.7461101472
C       8.2245035020     4.3009089876    12.8266116996
H       3.6970959554    -1.6196949144    13.3691851021
H       9.1415540356     4.8791789916    13.0393815652
O       8.3744800809     2.9122502219    13.1469688882
H       8.6116382620     2.8366147599    14.0862955258
O      -3.6353347453     2.1975860863    10.2521505328
H      -2.7637811808     1.7973917359    10.4455531192
88
Step 5 | NEB Image 5 | Cartesian Angstrom
Ni      1.2285271350     0.7092904720     2.0000000000
Ni     -6.1433728650     0.7092904720     2.0000000000
Ni      2.4570542700     2.8371618880     2.0000000000
Ni     -4.9148457300     2.8371618880     2.0000000000
Ni      0.0000000000    -1.4185809440     2.0000000000
Ni     -7.3719000000    -1.4185809440     2.0000000000
Ni      3.6855814050     0.7092904720     2.0000000000
Ni     -3.6863185950     0.7092904720     2.0000000000
Ni      4.9141085400     2.8371618880     2.0000000000
Ni     -2.4577914600     2.8371618880     2.0000000000
Ni      2.4570542700    -1.4185809440     2.0000000000
Ni     -4.9148457300    -1.4185809440     2.0000000000
Ni      6.1433728650     0.7092904720     2.0000000000
Ni     -1.2285271350     0.7092904720     2.0000000000
Ni      7.3719000000     2.8371618880     2.0000000000
Ni      0.0000000000     2.8371618880     2.0000000000
Ni      4.9148457300    -1.4185809440     2.0000000000
Ni     -2.4570542700    -1.4185809440     2.0000000000
Ni      0.0464326620    -0.0306468460     3.9976675890
Ni     -7.3257303870    -0.0255862300     3.9933782980
Ni      1.2739848450     2.0960038070     3.9979157030
Ni     -6.1026021170     2.1049500680     4.0019149180
Ni     -1.1827110610    -2.1546561820     3.9989053170
Ni     -8.5597082650    -2.1592869340     3.9982394010
Ni      2.5024778430    -0.0256743600     4.0031952220
Ni     -4.8641413240    -0.0227350050     3.9956475690
Ni      3.7346756480     2.0985190290     4.0083618800
Ni     -3.6458198020     2.0991473590     4.0056686860
Ni      1.2703768650    -2.1597674920     4.0015811390
Ni     -6.0933336510    -2.1603781540     3.9902680500
Ni      4.9590538200    -0.0289845540     4.0074783820
Ni     -2.4167678920    -0.0248088220     4.0022401470
Ni      6.1885777810     2.1026461420     4.0098077600
Ni     -1.1844811720     2.0985803670     3.9964394390
Ni      3.7245308300    -2.1560713310     3.9888953010
Ni     -3.6351397940    -2.1574140910     3.9933365850
Ni      1.2278611130     0.7073057200     6.0134419810
Ni     -6.1428898530     0.6957346210     6.0102358510
Ni      2.4563605190     2.8356121920     5.9987058000
Ni     -4.8924583120     2.8187736320     6.0264580820
Ni      0.0002252210    -1.4241376010     6.0155868270
Ni     -7.3667991100    -1.4101212980     5.9895528060
Ni      3.6921281460     0.7008202940     6.0360645010
Ni     -3.6779272240     0.7256007260     6.0512861550
Ni      4.9267336850     2.8309168990     6.0432780270
Ni     -2.4664659500     2.8157315660     6.0151173370
Ni      2.4509011280    -1.4197685090     6.0062316800
Ni     -4.8985683740    -1.4191884620     5.9881596610
Ni      6.1372839650     0.7115480370     6.0073921100
Ni     -1.2256557510     0.7019370040     6.0032560690
Ni      7.3730564330     2.8242126570     6.0269074010
Ni     -0.0034566730     2.8405670140     6.0010880700
Ni      4.9162369820    -1.4189308570     6.0083232610
Ni     -2.4596272260    -1.4182314770     6.0084483810
Ni      0.0277268390    -0.0168450280     8.0180888710
Ni     -7.3091221710    -0.0327920680     8.0371701400
Ni      1.2611452740     2.1078740620     8.0062525300
Ni      8.6667549770     2.1138793650     7.9801313330
Ni     -1.1942402360    -2.1496555940     8.0109921590
Ni     -8.5668484660    -2.1735761150     7.9430911750
Ni      2.4712577410    -0.0190631580     8.0243063390
Ni     -4.8670711400    -0.0431110720     7.9967287920
Ni      3.6750137580     2.1321536040     7.9940007810
Ni     -3.6274773380     2.0999917070     8.2089215290
Ni      1.2517815200    -2.1329879940     8.0267060850
Ni     -6.0785108950    -2.1534189890     7.9361595560
Ni      4.9123316280    -0.0512787390     8.0829089500
Ni     -2.4007725170    -0.0429334740     8.0081832520
Ni      6.1908597070     2.1505617180     8.1094472440
Ni     -1.1654360560     2.0989982700     7.9806126390
Ni      3.7077660390    -2.1419918620     7.9975968800
Ni     -3.6463297530    -2.1524111230     8.0158878220
O       6.1707187590     0.6663307040     9.3727337630
H      11.2555922500     3.1706166680    10.5266232770
H       7.1149227860     1.0824741990    11.1550798120
H       1.6297081310    -5.3793991980    11.2177269450
C       6.2238707100     0.5353136510    10.8108846880
O       7.5718415080    -1.5277099790    10.9241884940
H      -6.8828388710    -1.2337967880    10.0124245870
C       6.2850334910    -0.9302036460    11.2182633770
H       9.1791669060     4.9099545600    10.6626973770
C       9.7467965870     5.2786349730    12.7161077750
H       5.0959169980    -0.6608682970    12.9933131080
H      10.5457770910     5.8077082870    13.2666670860
O       9.6783811350     3.9068622240    13.1006105230
H      10.5447055700     3.5019751520    12.9206205020
O      -3.5153567700     2.2005093110    10.2599052050
H      -2.6227032800     1.8412518110    10.4321503050
