88
Step 1 | NEB Image 1 | Cartesian Angstrom
Ni      1.2285271350     0.7092904720     2.0000000000
Ni     -6.1433728650     0.7092904720     2.0000000000
Ni      2.4570542700     2.8371618880     2.0000000000
Ni     -4.9148457300     2.8371618880     2.0000000000
Ni      0.0000000000    -1.4185809440     2.0000000000
Ni     -7.3719000000    -1.4185809440     2.0000000000
Ni      3.6855814050     0.7092904720     2.0000000000
Ni     -3.6863185950     0.7092904720     2.0000000000
Ni      4.9141085400     2.8371618880     2.0000000000
Ni     -2.4577914600     2.8371618880     2.0000000000
Ni      2.4570542700    -1.4185809440     2.0000000000
Ni     -4.9148457300    -1.4185809440     2.0000000000
Ni      6.1433728650     0.7092904720     2.0000000000
Ni     -1.2285271350     0.7092904720     2.0000000000
Ni      7.3719000000     2.8371618880     2.0000000000
Ni      0.0000000000     2.8371618880     2.0000000000
Ni      4.9148457300    -1.4185809440     2.0000000000
Ni     -2.4570542700    -1.4185809440     2.0000000000
Ni      0.0345187234    -0.0219895959     3.9906686506
Ni     -7.3332872529    -0.0205271350     3.9970929970
Ni      1.2574298371     2.1090479016     3.9981086770
Ni     -6.1061214153     2.1042281316     4.0017605185
Ni     -1.1958375155    -2.1495425789     3.9888614873
Ni     -8.5615731291    -2.1597422030     3.9935633301
Ni      2.4909200515    -0.0209290578     3.9889124626
Ni     -4.8775455868    -0.0288695998     4.0155932973
Ni      3.7235299523     2.1102350339     3.9932622384
Ni     -3.6483031855     2.1055811522     4.0174271749
Ni      1.2597529797    -2.1544756242     3.9969618463
Ni     -6.1074652262    -2.1506208434     4.0019689283
Ni      4.9550771908    -0.0234645643     3.9935565644
Ni     -2.4269867653    -0.0199772708     3.9982338911
Ni      6.1741097051     2.1083418571     4.0046158614
Ni     -1.1996729370     2.1123145435     4.0000024585
Ni      3.7197951829    -2.1539414756     3.9921760547
Ni     -3.6589301935    -2.1514998115     3.9994955107
Ni      1.2136841869     0.7163863979     5.9963073096
Ni     -6.1473437226     0.7096773911     6.0218176054
Ni      2.4453295017     2.8415084524     5.9971730433
Ni     -4.9231971923     2.8360653972     6.0327934449
Ni     -0.0226348385    -1.4110330430     6.0020236029
Ni     -7.3908667378    -1.4145678834     5.9981301391
Ni      3.6669417345     0.7157583701     5.9869138182
Ni     -3.7108784987     0.7190435175     6.0328517480
Ni      4.9057976617     2.8388244163     6.0411982092
Ni     -2.4814248435     2.8298458387     6.0521186228
Ni      2.4355069788    -1.4085502466     5.9888639843
Ni     -4.9252928465    -1.4026264080     6.0548563839
Ni      6.1341025786     0.7315238745     6.0218817427
Ni     -1.2402669783     0.7221835538     5.9926808095
Ni      7.3408175190     2.8291688103     6.0248565089
Ni     -0.0225097209     2.8466795557     6.0142376281
Ni      4.9088271165    -1.4251457534     5.9900387779
Ni     -2.4790699264    -1.4211153466     5.9913638200
Ni      0.0337137405    -0.0099863123     8.0038502320
Ni     -7.3606520147    -0.0334139511     7.9835827732
Ni      1.2525382386     2.1076756093     8.0014158677
Ni      8.5596645315     2.1514300915     7.9633346422
Ni     -1.1983605499    -2.1613845897     8.0018652759
Ni     -8.5927669864    -2.1264268734     8.0165035337
Ni      2.4708324722    -0.0109047600     8.0065027389
Ni     -4.8995212632    -0.0584838282     8.1493062015
Ni      3.6789469906     2.1047412898     7.9888648741
Ni     -3.6333178494     2.1270714900     8.1546283531
Ni      1.2394335961    -2.1164979174     7.9892760222
Ni     -6.1305722611    -2.1461024656     7.9989212299
Ni      4.9150163145    -0.0283439881     7.9490640309
Ni     -2.3653823178    -0.0601929248     7.9425724452
Ni      6.1349712758     2.1197335004     8.1598232492
Ni     -1.1861990586     2.1067384809     8.0263285947
Ni      3.6953023012    -2.1157302873     7.9694462946
Ni     -3.6468332403    -2.1628724713     8.0264725749
O       5.9486020032     1.9536774433    10.1568983318
H       6.2023593986     1.0444615420    10.4395396161
H       7.6485803319     2.9982816350    10.7947394844
H       2.3841835216    -2.5662265370    10.9995346326
C       6.5922936452     2.8570131008    11.0871865803
O       6.8828593053     0.8516013498    12.3925733789
H      -6.8879959571     0.8254517200    12.3248078773
C       6.4620997723     2.2299052156    12.4710261049
H       5.3979785171     2.1706601767    12.7461907790
C       7.1981974178     3.0342299686    13.5247288963
H       3.2389656514    -2.2859498111    13.4051121917
H       8.2901195875     2.9478942375    13.3576433856
O       6.8260697992     2.5426661176    14.8120038538
H       7.2522042786     3.0948827032    15.4870039972
O      -4.3927237137     1.0982075682     9.5865509607
H      -3.6717371060     0.6667680985    10.0888232085
88
Step 2 | NEB Image 2 | Cartesian Angstrom
Ni      1.2285271350     0.7092904720     2.0000000000
Ni     -6.1433728650     0.7092904720     2.0000000000
Ni      2.4570542700     2.8371618880     2.0000000000
Ni     -4.9148457300     2.8371618880     2.0000000000
Ni      0.0000000000    -1.4185809440     2.0000000000
Ni     -7.3719000000    -1.4185809440     2.0000000000
Ni      3.6855814050     0.7092904720     2.0000000000
Ni     -3.6863185950     0.7092904720     2.0000000000
Ni      4.9141085400     2.8371618880     2.0000000000
Ni     -2.4577914600     2.8371618880     2.0000000000
Ni      2.4570542700    -1.4185809440     2.0000000000
Ni     -4.9148457300    -1.4185809440     2.0000000000
Ni      6.1433728650     0.7092904720     2.0000000000
Ni     -1.2285271350     0.7092904720     2.0000000000
Ni      7.3719000000     2.8371618880     2.0000000000
Ni      0.0000000000     2.8371618880     2.0000000000
Ni      4.9148457300    -1.4185809440     2.0000000000
Ni     -2.4570542700    -1.4185809440     2.0000000000
Ni      0.0388756210    -0.0161407237     3.9921645430
Ni     -7.3181019504    -0.0076797220     4.0049836824
Ni      1.2613584975     2.1170924562     3.9964307093
Ni     -6.1036358600     2.1153861035     4.0269409244
Ni     -1.1910838298    -2.1408674644     3.9889498971
Ni     -8.5539390352    -2.1509571040     4.0009490805
Ni      2.4966834808    -0.0175318034     3.9914554046
Ni     -4.8770714496    -0.0103683179     4.0269761343
Ni      3.7287151500     2.1146571919     3.9951502642
Ni     -3.6421320926     2.1187219637     4.0184909688
Ni      1.2652891821    -2.1478502489     3.9994038221
Ni     -6.0992996344    -2.1373728921     4.0058754115
Ni      4.9653468913    -0.0188962567     3.9966124299
Ni     -2.4243461258    -0.0081755824     3.9997123111
Ni      6.1826262932     2.1162162207     4.0045780781
Ni     -1.1952201212     2.1219103208     3.9988745416
Ni      3.7263448860    -2.1536896959     3.9994485146
Ni     -3.6554295244    -2.1350679753     4.0013531017
Ni      1.2216705481     0.7292881610     5.9946932180
Ni     -6.1163347605     0.7516973959     6.0890141368
Ni      2.4505398431     2.8557270468     5.9904740503
Ni     -4.9183495777     2.8411399548     6.0533735785
Ni     -0.0107959319    -1.4009700866     6.0055536949
Ni     -7.3730352421    -1.3943867175     6.0048128259
Ni      3.6755384355     0.7240293001     5.9869414344
Ni     -3.6936456225     0.7384615187     6.0424059488
Ni      4.9178272128     2.8468005920     6.0419112189
Ni     -2.4683033363     2.8584152818     6.0503854440
Ni      2.4440362263    -1.4040842235     5.9989546750
Ni     -4.9103084660    -1.3668721805     6.0636736097
Ni      6.1495193596     0.7330088022     6.0131943787
Ni     -1.2293980922     0.7381699399     5.9924165679
Ni      7.3550337511     2.8312285129     6.0677838229
Ni     -0.0126052746     2.8695913221     6.0057761696
Ni      4.9122839537    -1.4162943200     5.9929089986
Ni     -2.4642222978    -1.4029265632     5.9930167211
Ni      0.0451395095     0.0014957432     8.0029294947
Ni     -7.3140650766    -0.0178246588     7.9831848405
Ni      1.2574556713     2.1281950417     7.9970209323
Ni      8.5745404498     2.2262931947     8.1502057514
Ni     -1.1879260592    -2.1428801107     8.0040105952
Ni     -8.5565369737    -2.0855861681     7.9944893637
Ni      2.4652750665     0.0087508690     8.0047910691
Ni     -4.8138729111    -0.0077134394     8.2397190708
Ni      3.6693861088     2.1274481089     7.9816306000
Ni     -3.5790712452     2.1650319746     8.1304767657
Ni      1.2441295480    -2.1167857351     8.0127617969
Ni     -6.0814730964    -2.1036917995     8.0094647663
Ni      4.9079245104    -0.0129408289     7.9556521722
Ni     -2.3448929908    -0.0393067259     7.9529092975
Ni      6.1119944052     2.1043160710     8.1376825784
Ni     -1.1589752907     2.1320044311     8.0126389602
Ni      3.6746024061    -2.0769569353     7.9865980598
Ni     -3.6283877816    -2.1370330170     8.0286031532
O       6.1210820746     1.5039627096    10.0577352532
H       9.0559153365     2.5396211489     9.6978129615
H       8.2318913358     2.3433345063     9.7310129009
H       1.6666462566    -3.2773420420    11.0288079768
C       6.0072846531     2.2254546532    11.0665485172
O       7.3854465510     0.6216515601    12.2020847946
H      -7.5000315239     0.2947868385    11.2835861457
C       6.7100892605     1.8567337613    12.3326011545
H       5.9026054532     1.8122536218    13.0972968272
C       7.5816096483     3.0092204366    12.9318186266
H       3.4389111313    -2.3859220096    12.7299235231
H       8.5804720193     2.9890274702    12.4703637375
O       7.6462557205     2.7834885265    14.3450397405
H       8.2709461345     3.4153914352    14.7417994673
O      -4.0917388859     1.1492632386     9.6644371454
H      -3.3013823199     0.8883649015    10.1783900087
88
Step 3 | NEB Image 3 | Cartesian Angstrom
Ni      1.2285271350     0.7092904720     2.0000000000
Ni     -6.1433728650     0.7092904720     2.0000000000
Ni      2.4570542700     2.8371618880     2.0000000000
Ni     -4.9148457300     2.8371618880     2.0000000000
Ni      0.0000000000    -1.4185809440     2.0000000000
Ni     -7.3719000000    -1.4185809440     2.0000000000
Ni      3.6855814050     0.7092904720     2.0000000000
Ni     -3.6863185950     0.7092904720     2.0000000000
Ni      4.9141085400     2.8371618880     2.0000000000
Ni     -2.4577914600     2.8371618880     2.0000000000
Ni      2.4570542700    -1.4185809440     2.0000000000
Ni     -4.9148457300    -1.4185809440     2.0000000000
Ni      6.1433728650     0.7092904720     2.0000000000
Ni     -1.2285271350     0.7092904720     2.0000000000
Ni      7.3719000000     2.8371618880     2.0000000000
Ni      0.0000000000     2.8371618880     2.0000000000
Ni      4.9148457300    -1.4185809440     2.0000000000
Ni     -2.4570542700    -1.4185809440     2.0000000000
Ni      0.0318897981    -0.0112023910     3.9966208859
Ni     -7.3381228076    -0.0170914525     3.9994323825
Ni      1.2537500391     2.1126031206     3.9967844664
Ni     -6.1020217887     2.1155600598     3.9971046318
Ni     -1.1958663320    -2.1402755562     3.9950374883
Ni     -8.5687081665    -2.1375368466     4.0091779605
Ni      2.4918872450    -0.0070847390     4.0016782435
Ni     -4.8786693147    -0.0169071540     3.9981013138
Ni      3.7170429009     2.1090877253     3.9980226715
Ni     -3.6527585970     2.1182459551     4.0109607132
Ni      1.2632871369    -2.1404299372     3.9929226832
Ni     -6.1139510599    -2.1474472620     4.0055180169
Ni      4.9479825222    -0.0131290077     4.0104936770
Ni     -2.4272099713    -0.0130072914     3.9966233537
Ni      6.1805377817     2.1128917865     3.9985652964
Ni     -1.2045571423     2.1186457179     4.0030134116
Ni      3.7221617528    -2.1333923331     3.9857268545
Ni     -3.6538049244    -2.1464655095     3.9948090518
Ni      1.2095368359     0.7293939973     6.0134948785
Ni     -6.1738795074     0.7212445633     6.0080009274
Ni      2.4281928361     2.8570069530     5.9898546560
Ni     -4.9100322794     2.8571714190     6.0267449622
Ni     -0.0277809078    -1.3935895236     6.0033516474
Ni     -7.3791594305    -1.3804766524     6.0356112242
Ni      3.6799144594     0.7220626093     6.0435782305
Ni     -3.7075804004     0.7447467342     6.0241320514
Ni      4.8887838132     2.8651420339     5.9962454271
Ni     -2.4943198415     2.8455449714     6.0637979085
Ni      2.4331474522    -1.3918683005     6.0003863226
Ni     -4.9298775178    -1.4105969521     6.0049838968
Ni      6.1227151574     0.7255173440     6.0104894560
Ni     -1.2506380789     0.7325724539     6.0025439982
Ni      7.3609716218     2.8691700562     5.9823075844
Ni     -0.0297276629     2.8557075876     6.0124774091
Ni      4.9069848151    -1.3818911853     6.0340288525
Ni     -2.4899865442    -1.3994316122     6.0011449806
Ni     -0.0041597939     0.0145281271     8.0105747945
Ni     -7.3499835915     0.0043296938     8.1224404984
Ni      1.2316081259     2.1347112523     8.0101137343
Ni      8.6153028321     2.1579223685     7.9325601484
Ni     -1.2289921477    -2.1182320093     7.9973250757
Ni     -8.5860623555    -2.1318182377     7.9989247785
Ni      2.4441682543     0.0125476435     8.0253637887
Ni     -4.9027385173    -0.0198099909     7.9716372753
Ni      3.6421301752     2.1760176298     7.9714816737
Ni     -3.6755147776     2.1117310269     8.1713927221
Ni      1.2151931612    -2.0929762646     8.0042349597
Ni     -6.1290307681    -2.1146007050     8.0252072923
Ni      4.8832522829    -0.0120613839     8.1493955496
Ni     -2.4331080473    -0.0142200231     7.9805584610
Ni      6.1555748952     2.2085500015     7.9731787318
Ni     -1.2046358761     2.1274605406     8.0205437602
Ni      3.6843378884    -2.0928479214     7.9912951056
Ni     -3.6804997515    -2.1299818007     8.0201491536
O       6.0824225262     0.9372062249     9.3845898832
H      10.4732579848     2.7737058349    10.5654573479
H       6.7795427615     2.3693402882    10.7162395889
H       1.4194831123    -4.5324680143    10.9845194463
C       6.1094046385     1.4852580830    10.7189196759
O       7.1357129486    -0.5327677643    11.3822634328
H      -7.6053154801    -0.6693334655    10.3644475799
C       6.6244265237     0.5828660845    11.7859770935
H       6.5140969126     3.3255248540    13.1244033923
C       7.4952875365     3.6597770016    13.4840245188
H       3.8597098089    -1.6242072101    13.4193508120
H       8.2664776250     3.2303758690    12.8166892556
O       7.6143557843     3.1866227573    14.8245912824
H       8.3858567604     3.6086517720    15.2349968373
O      -3.9756641568     1.8966470342    10.2509273778
H      -3.1064808100     1.7250732411    10.6613024354
88
Step 4 | NEB Image 4 | Cartesian Angstrom
Ni      1.2285271350     0.7092904720     2.0000000000
Ni     -6.1433728650     0.7092904720     2.0000000000
Ni      2.4570542700     2.8371618880     2.0000000000
Ni     -4.9148457300     2.8371618880     2.0000000000
Ni      0.0000000000    -1.4185809440     2.0000000000
Ni     -7.3719000000    -1.4185809440     2.0000000000
Ni      3.6855814050     0.7092904720     2.0000000000
Ni     -3.6863185950     0.7092904720     2.0000000000
Ni      4.9141085400     2.8371618880     2.0000000000
Ni     -2.4577914600     2.8371618880     2.0000000000
Ni      2.4570542700    -1.4185809440     2.0000000000
Ni     -4.9148457300    -1.4185809440     2.0000000000
Ni      6.1433728650     0.7092904720     2.0000000000
Ni     -1.2285271350     0.7092904720     2.0000000000
Ni      7.3719000000     2.8371618880     2.0000000000
Ni      0.0000000000     2.8371618880     2.0000000000
Ni      4.9148457300    -1.4185809440     2.0000000000
Ni     -2.4570542700    -1.4185809440     2.0000000000
Ni      0.0402288731    -0.0177162412     3.9982835957
Ni     -7.3384978049    -0.0123457675     4.0018322536
Ni      1.2670036306     2.1092706586     3.9985093918
Ni     -6.1070443829     2.1174941161     4.0029540305
Ni     -1.1878043429    -2.1425142675     3.9976325769
Ni     -8.5652158689    -2.1413418104     4.0048874573
Ni      2.5003953212    -0.0106862825     4.0055430323
Ni     -4.8779600123    -0.0122933895     3.9951694577
Ni      3.7270299452     2.1098376223     4.0093325924
Ni     -3.6520170740     2.1152667893     4.0063390289
Ni      1.2689297475    -2.1477877597     4.0028482081
Ni     -6.1054201507    -2.1475000625     3.9959926337
Ni      4.9543320911    -0.0138561758     4.0133376032
Ni     -2.4264178687    -0.0130402142     4.0000213332
Ni      6.1806424907     2.1135194014     4.0090253459
Ni     -1.1941570843     2.1124987597     3.9953987259
Ni      3.7218455851    -2.1370519882     3.9935203104
Ni     -3.6446365641    -2.1454772921     3.9897178877
Ni      1.2164214311     0.7281980627     6.0141910684
Ni     -6.1611692849     0.7152636931     6.0129066070
Ni      2.4432125431     2.8532149125     6.0001951609
Ni     -4.9020806383     2.8477581095     6.0248615553
Ni     -0.0119588240    -1.4027747631     6.0109745760
Ni     -7.3755755282    -1.3850834523     6.0117485127
Ni      3.6868604268     0.7200160032     6.0496816527
Ni     -3.6996929622     0.7411358642     6.0376831485
Ni      4.9102303044     2.8529296578     6.0342307834
Ni     -2.4784818730     2.8367534375     6.0193552983
Ni      2.4387956019    -1.3932657433     6.0083068301
Ni     -4.9128173045    -1.4050244578     5.9878748609
Ni      6.1307123032     0.7290250661     6.0306293255
Ni     -1.2425845633     0.7251893428     5.9977310889
Ni      7.3610263760     2.8568380728     6.0097319395
Ni     -0.0172716241     2.8576177007     5.9991820373
Ni      4.9110805847    -1.3915331926     6.0288292660
Ni     -2.4738202987    -1.4020103252     6.0015349766
Ni      0.0121421642     0.0058462602     8.0120067418
Ni     -7.3415810173     0.0162689545     8.1032319778
Ni      1.2443321153     2.1305346791     8.0095006999
Ni      8.6395701661     2.1521136637     7.9571356138
Ni     -1.2080373238    -2.1251531158     8.0047034417
Ni     -8.5863669588    -2.1466472188     7.9744801910
Ni      2.4530170322     0.0080895358     8.0297661939
Ni     -4.8738578029    -0.0208745538     7.9895606246
Ni      3.6628696717     2.1591994117     7.9998346811
Ni     -3.6601536199     2.1083907396     8.1574387443
Ni      1.2355994318    -2.1074382727     8.0242909891
Ni     -6.0790374491    -2.1678752442     7.9632437498
Ni      4.8899800270    -0.0197913596     8.1263807225
Ni     -2.4118139873    -0.0249514194     7.9936204732
Ni      6.1660980994     2.1898903209     8.0720896178
Ni     -1.1821456314     2.1168006230     7.9888649976
Ni      3.6890942551    -2.1070077159     7.9997793481
Ni     -3.6579141166    -2.1343187650     8.0100118130
O       6.1383548768     0.7825996139     9.4380752631
H      11.1335295618     3.1178994429    10.5008532120
H       6.8722187054     1.8627692919    11.0715811878
H       1.6286208394    -5.3737982788    11.3323453383
C       6.3025281409     0.9413955498    10.8505507045
O       7.6599102007    -1.1219710011    11.2243563969
H      -6.6860019085    -1.1428115955     8.9955229829
C       7.0640978421    -0.1515139630    11.5551146062
H       8.0743936052     4.3165269786    11.7636940067
C       8.3147205471     4.3076558233    12.8349685299
H       3.8123620611    -1.5834323721    13.3856749471
H       9.2418837045     4.8855741968    12.9890541670
O       8.4700043252     2.9356722148    13.2094364185
H       8.6807453727     2.8991636862    14.1567957439
O      -3.6632144304     2.1671549787    10.2677713862
H      -2.7814236526     1.7986168991    10.4760009355
88
Step 5 | NEB Image 5 | Cartesian Angstrom
Ni      1.2285271350     0.7092904720     2.0000000000
Ni     -6.1433728650     0.7092904720     2.0000000000
Ni      2.4570542700     2.8371618880     2.0000000000
Ni     -4.9148457300     2.8371618880     2.0000000000
Ni      0.0000000000    -1.4185809440     2.0000000000
Ni     -7.3719000000    -1.4185809440     2.0000000000
Ni      3.6855814050     0.7092904720     2.0000000000
Ni     -3.6863185950     0.7092904720     2.0000000000
Ni      4.9141085400     2.8371618880     2.0000000000
Ni     -2.4577914600     2.8371618880     2.0000000000
Ni      2.4570542700    -1.4185809440     2.0000000000
Ni     -4.9148457300    -1.4185809440     2.0000000000
Ni      6.1433728650     0.7092904720     2.0000000000
Ni     -1.2285271350     0.7092904720     2.0000000000
Ni      7.3719000000     2.8371618880     2.0000000000
Ni      0.0000000000     2.8371618880     2.0000000000
Ni      4.9148457300    -1.4185809440     2.0000000000
Ni     -2.4570542700    -1.4185809440     2.0000000000
Ni      0.0464326620    -0.0306468460     3.9976675890
Ni     -7.3257303870    -0.0255862300     3.9933782980
Ni      1.2739848450     2.0960038070     3.9979157030
Ni     -6.1026021170     2.1049500680     4.0019149180
Ni     -1.1827110610    -2.1546561820     3.9989053170
Ni     -8.5597082650    -2.1592869340     3.9982394010
Ni      2.5024778430    -0.0256743600     4.0031952220
Ni     -4.8641413240    -0.0227350050     3.9956475690
Ni      3.7346756480     2.0985190290     4.0083618800
Ni     -3.6458198020     2.0991473590     4.0056686860
Ni      1.2703768650    -2.1597674920     4.0015811390
Ni     -6.0933336510    -2.1603781540     3.9902680500
Ni      4.9590538200    -0.0289845540     4.0074783820
Ni     -2.4167678920    -0.0248088220     4.0022401470
Ni      6.1885777810     2.1026461420     4.0098077600
Ni     -1.1844811720     2.0985803670     3.9964394390
Ni      3.7245308300    -2.1560713310     3.9888953010
Ni     -3.6351397940    -2.1574140910     3.9933365850
Ni      1.2278611130     0.7073057200     6.0134419810
Ni     -6.1428898530     0.6957346210     6.0102358510
Ni      2.4563605190     2.8356121920     5.9987058000
Ni     -4.8924583120     2.8187736320     6.0264580820
Ni      0.0002252210    -1.4241376010     6.0155868270
Ni     -7.3667991100    -1.4101212980     5.9895528060
Ni      3.6921281460     0.7008202940     6.0360645010
Ni     -3.6779272240     0.7256007260     6.0512861550
Ni      4.9267336850     2.8309168990     6.0432780270
Ni     -2.4664659500     2.8157315660     6.0151173370
Ni      2.4509011280    -1.4197685090     6.0062316800
Ni     -4.8985683740    -1.4191884620     5.9881596610
Ni      6.1372839650     0.7115480370     6.0073921100
Ni     -1.2256557510     0.7019370040     6.0032560690
Ni      7.3730564330     2.8242126570     6.0269074010
Ni     -0.0034566730     2.8405670140     6.0010880700
Ni      4.9162369820    -1.4189308570     6.0083232610
Ni     -2.4596272260    -1.4182314770     6.0084483810
Ni      0.0277268390    -0.0168450280     8.0180888710
Ni     -7.3091221710    -0.0327920680     8.0371701400
Ni      1.2611452740     2.1078740620     8.0062525300
Ni      8.6667549770     2.1138793650     7.9801313330
Ni     -1.1942402360    -2.1496555940     8.0109921590
Ni     -8.5668484660    -2.1735761150     7.9430911750
Ni      2.4712577410    -0.0190631580     8.0243063390
Ni     -4.8670711400    -0.0431110720     7.9967287920
Ni      3.6750137580     2.1321536040     7.9940007810
Ni     -3.6274773380     2.0999917070     8.2089215290
Ni      1.2517815200    -2.1329879940     8.0267060850
Ni     -6.0785108950    -2.1534189890     7.9361595560
Ni      4.9123316280    -0.0512787390     8.0829089500
Ni     -2.4007725170    -0.0429334740     8.0081832520
Ni      6.1908597070     2.1505617180     8.1094472440
Ni     -1.1654360560     2.0989982700     7.9806126390
Ni      3.7077660390    -2.1419918620     7.9975968800
Ni     -3.6463297530    -2.1524111230     8.0158878220
O       6.1707187590     0.6663307040     9.3727337630
H      11.2555922500     3.1706166680    10.5266232770
H       7.1149227860     1.0824741990    11.1550798120
H       1.6297081310    -5.3793991980    11.2177269450
C       6.2238707100     0.5353136510    10.8108846880
O       7.5718415080    -1.5277099790    10.9241884940
H      -6.8828388710    -1.2337967880    10.0124245870
C       6.2850334910    -0.9302036460    11.2182633770
H       9.1791669060     4.9099545600    10.6626973770
C       9.7467965870     5.2786349730    12.7161077750
H       5.0959169980    -0.6608682970    12.9933131080
H      10.5457770910     5.8077082870    13.2666670860
O       9.6783811350     3.9068622240    13.1006105230
H      10.5447055700     3.5019751520    12.9206205020
O      -3.5153567700     2.2005093110    10.2599052050
H      -2.6227032800     1.8412518110    10.4321503050
