88
Step 1 | NEB Image 1 | Cartesian Angstrom
Ni      1.2285271350     0.7092904720     2.0000000000
Ni     -6.1433728650     0.7092904720     2.0000000000
Ni      2.4570542700     2.8371618880     2.0000000000
Ni     -4.9148457300     2.8371618880     2.0000000000
Ni      0.0000000000    -1.4185809440     2.0000000000
Ni     -7.3719000000    -1.4185809440     2.0000000000
Ni      3.6855814050     0.7092904720     2.0000000000
Ni     -3.6863185950     0.7092904720     2.0000000000
Ni      4.9141085400     2.8371618880     2.0000000000
Ni     -2.4577914600     2.8371618880     2.0000000000
Ni      2.4570542700    -1.4185809440     2.0000000000
Ni     -4.9148457300    -1.4185809440     2.0000000000
Ni      6.1433728650     0.7092904720     2.0000000000
Ni     -1.2285271350     0.7092904720     2.0000000000
Ni      7.3719000000     2.8371618880     2.0000000000
Ni      0.0000000000     2.8371618880     2.0000000000
Ni      4.9148457300    -1.4185809440     2.0000000000
Ni     -2.4570542700    -1.4185809440     2.0000000000
Ni      0.0345187234    -0.0219895959     3.9906686506
Ni     -7.3332872529    -0.0205271350     3.9970929970
Ni      1.2574298371     2.1090479016     3.9981086770
Ni     -6.1061214153     2.1042281316     4.0017605185
Ni     -1.1958375155    -2.1495425789     3.9888614873
Ni     -8.5615731291    -2.1597422030     3.9935633301
Ni      2.4909200515    -0.0209290578     3.9889124626
Ni     -4.8775455868    -0.0288695998     4.0155932973
Ni      3.7235299523     2.1102350339     3.9932622384
Ni     -3.6483031855     2.1055811522     4.0174271749
Ni      1.2597529797    -2.1544756242     3.9969618463
Ni     -6.1074652262    -2.1506208434     4.0019689283
Ni      4.9550771908    -0.0234645643     3.9935565644
Ni     -2.4269867653    -0.0199772708     3.9982338911
Ni      6.1741097051     2.1083418571     4.0046158614
Ni     -1.1996729370     2.1123145435     4.0000024585
Ni      3.7197951829    -2.1539414756     3.9921760547
Ni     -3.6589301935    -2.1514998115     3.9994955107
Ni      1.2136841869     0.7163863979     5.9963073096
Ni     -6.1473437226     0.7096773911     6.0218176054
Ni      2.4453295017     2.8415084524     5.9971730433
Ni     -4.9231971923     2.8360653972     6.0327934449
Ni     -0.0226348385    -1.4110330430     6.0020236029
Ni     -7.3908667378    -1.4145678834     5.9981301391
Ni      3.6669417345     0.7157583701     5.9869138182
Ni     -3.7108784987     0.7190435175     6.0328517480
Ni      4.9057976617     2.8388244163     6.0411982092
Ni     -2.4814248435     2.8298458387     6.0521186228
Ni      2.4355069788    -1.4085502466     5.9888639843
Ni     -4.9252928465    -1.4026264080     6.0548563839
Ni      6.1341025786     0.7315238745     6.0218817427
Ni     -1.2402669783     0.7221835538     5.9926808095
Ni      7.3408175190     2.8291688103     6.0248565089
Ni     -0.0225097209     2.8466795557     6.0142376281
Ni      4.9088271165    -1.4251457534     5.9900387779
Ni     -2.4790699264    -1.4211153466     5.9913638200
Ni      0.0337137405    -0.0099863123     8.0038502320
Ni     -7.3606520147    -0.0334139511     7.9835827732
Ni      1.2525382386     2.1076756093     8.0014158677
Ni      8.5596645315     2.1514300915     7.9633346422
Ni     -1.1983605499    -2.1613845897     8.0018652759
Ni     -8.5927669864    -2.1264268734     8.0165035337
Ni      2.4708324722    -0.0109047600     8.0065027389
Ni     -4.8995212632    -0.0584838282     8.1493062015
Ni      3.6789469906     2.1047412898     7.9888648741
Ni     -3.6333178494     2.1270714900     8.1546283531
Ni      1.2394335961    -2.1164979174     7.9892760222
Ni     -6.1305722611    -2.1461024656     7.9989212299
Ni      4.9150163145    -0.0283439881     7.9490640309
Ni     -2.3653823178    -0.0601929248     7.9425724452
Ni      6.1349712758     2.1197335004     8.1598232492
Ni     -1.1861990586     2.1067384809     8.0263285947
Ni      3.6953023012    -2.1157302873     7.9694462946
Ni     -3.6468332403    -2.1628724713     8.0264725749
O       5.9486020032     1.9536774433    10.1568983318
H       6.2023593986     1.0444615420    10.4395396161
H       7.6485803319     2.9982816350    10.7947394844
H       2.3841835216    -2.5662265370    10.9995346326
C       6.5922936452     2.8570131008    11.0871865803
O       6.8828593053     0.8516013498    12.3925733789
H      -6.8879959571     0.8254517200    12.3248078773
C       6.4620997723     2.2299052156    12.4710261049
H       5.3979785171     2.1706601767    12.7461907790
C       7.1981974178     3.0342299686    13.5247288963
H       3.2389656514    -2.2859498111    13.4051121917
H       8.2901195875     2.9478942375    13.3576433856
O       6.8260697992     2.5426661176    14.8120038538
H       7.2522042786     3.0948827032    15.4870039972
O      -4.3927237137     1.0982075682     9.5865509607
H      -3.6717371060     0.6667680985    10.0888232085
88
Step 2 | NEB Image 2 | Cartesian Angstrom
Ni      1.2285271350     0.7092904720     2.0000000000
Ni     -6.1433728650     0.7092904720     2.0000000000
Ni      2.4570542700     2.8371618880     2.0000000000
Ni     -4.9148457300     2.8371618880     2.0000000000
Ni      0.0000000000    -1.4185809440     2.0000000000
Ni     -7.3719000000    -1.4185809440     2.0000000000
Ni      3.6855814050     0.7092904720     2.0000000000
Ni     -3.6863185950     0.7092904720     2.0000000000
Ni      4.9141085400     2.8371618880     2.0000000000
Ni     -2.4577914600     2.8371618880     2.0000000000
Ni      2.4570542700    -1.4185809440     2.0000000000
Ni     -4.9148457300    -1.4185809440     2.0000000000
Ni      6.1433728650     0.7092904720     2.0000000000
Ni     -1.2285271350     0.7092904720     2.0000000000
Ni      7.3719000000     2.8371618880     2.0000000000
Ni      0.0000000000     2.8371618880     2.0000000000
Ni      4.9148457300    -1.4185809440     2.0000000000
Ni     -2.4570542700    -1.4185809440     2.0000000000
Ni      0.0371025895    -0.0142844352     3.9944785462
Ni     -7.3182441602    -0.0075147814     4.0047844016
Ni      1.2596918851     2.1192399219     3.9979447050
Ni     -6.1033616909     2.1161759904     4.0243022023
Ni     -1.1929176441    -2.1386723795     3.9908408533
Ni     -8.5535289122    -2.1495890980     4.0006616173
Ni      2.4936272447    -0.0154502354     3.9920751208
Ni     -4.8758783662    -0.0090788085     4.0288503612
Ni      3.7260615395     2.1160409583     3.9959994617
Ni     -3.6406635728     2.1199154930     4.0203105364
Ni      1.2631538774    -2.1465821160     3.9995885060
Ni     -6.0975468577    -2.1361034444     4.0088794813
Ni      4.9627046554    -0.0178354899     3.9960634153
Ni     -2.4243981169    -0.0062824905     4.0031871990
Ni      6.1812460867     2.1166136558     4.0025378211
Ni     -1.1946329951     2.1232511859     4.0014809454
Ni      3.7245474182    -2.1522754697     3.9982521979
Ni     -3.6549993709    -2.1327647130     4.0045777997
Ni      1.2192656165     0.7322878618     5.9977158450
Ni     -6.1171817479     0.7535232973     6.0881849063
Ni      2.4485197455     2.8587356450     5.9927148738
Ni     -4.9202547364     2.8413168535     6.0523058634
Ni     -0.0122400406    -1.3987938752     6.0077734891
Ni     -7.3725612990    -1.3947795127     6.0068598270
Ni      3.6731220559     0.7245159581     5.9882294464
Ni     -3.6941982475     0.7409236890     6.0498020050
Ni      4.9167199247     2.8469777110     6.0398197918
Ni     -2.4683711477     2.8610402373     6.0551046710
Ni      2.4423520986    -1.4039189338     5.9986878107
Ni     -4.9102925646    -1.3613514846     6.0705711295
Ni      6.1467649089     0.7309924239     6.0102062252
Ni     -1.2313990457     0.7411614711     5.9988856223
Ni      7.3551909927     2.8298065921     6.0623162778
Ni     -0.0138776640     2.8744103081     6.0101938243
Ni      4.9105951630    -1.4158880153     5.9913974644
Ni     -2.4648391306    -1.3980592379     5.9998099024
Ni      0.0461500711     0.0008995238     8.0068038471
Ni     -7.3099486247    -0.0195879134     7.9808116033
Ni      1.2588591178     2.1283100158     7.9999203004
Ni      8.5745262800     2.2224862162     8.1357711594
Ni     -1.1872604877    -2.1421710032     8.0080483434
Ni     -8.5562585770    -2.0872037508     7.9921356878
Ni      2.4659086864     0.0032084751     8.0046180911
Ni     -4.8046265447     0.0027523883     8.2582456980
Ni      3.6706589276     2.1251176503     7.9813020996
Ni     -3.5781105682     2.1706332799     8.1321391436
Ni      1.2437521058    -2.1213012356     8.0126093619
Ni     -6.0763698069    -2.0995460019     8.0159187226
Ni      4.9068562405    -0.0177025906     7.9558375265
Ni     -2.3444721286    -0.0348473612     7.9659662522
Ni      6.1168106511     2.0965794881     8.1251478256
Ni     -1.1558732870     2.1345741353     8.0174194076
Ni      3.6742050675    -2.0848953625     7.9834679685
Ni     -3.6261821818    -2.1330122713     8.0363029277
O       6.1203090673     1.4626296106    10.0567932589
H       9.0322704729     2.4823950227     9.6899954031
H       8.2071194887     2.3516747574     9.7047703577
H       1.6900923889    -3.2786637826    10.9739139852
C       6.0321063980     2.2278143627    11.0374522391
O       7.4047747084     0.6541249791    12.2092468640
H      -7.5228655836     0.2811210759    11.3155895539
C       6.7358142633     1.8950067764    12.3123950565
H       5.9158742731     1.8735021458    13.0672970031
C       7.6095226353     3.0362661024    12.9294580116
H       3.4681047945    -2.3522098045    12.7604901253
H       8.6075492032     3.0299565735    12.4656071832
O       7.6754651425     2.7690247830    14.3367640979
H       8.2517773458     3.4259069208    14.7653398846
O      -4.0897739322     1.1913113939     9.6861917424
H      -3.3024298231     0.9734152406    10.2242655681
88
Step 3 | NEB Image 3 | Cartesian Angstrom
Ni      1.2285271350     0.7092904720     2.0000000000
Ni     -6.1433728650     0.7092904720     2.0000000000
Ni      2.4570542700     2.8371618880     2.0000000000
Ni     -4.9148457300     2.8371618880     2.0000000000
Ni      0.0000000000    -1.4185809440     2.0000000000
Ni     -7.3719000000    -1.4185809440     2.0000000000
Ni      3.6855814050     0.7092904720     2.0000000000
Ni     -3.6863185950     0.7092904720     2.0000000000
Ni      4.9141085400     2.8371618880     2.0000000000
Ni     -2.4577914600     2.8371618880     2.0000000000
Ni      2.4570542700    -1.4185809440     2.0000000000
Ni     -4.9148457300    -1.4185809440     2.0000000000
Ni      6.1433728650     0.7092904720     2.0000000000
Ni     -1.2285271350     0.7092904720     2.0000000000
Ni      7.3719000000     2.8371618880     2.0000000000
Ni      0.0000000000     2.8371618880     2.0000000000
Ni      4.9148457300    -1.4185809440     2.0000000000
Ni     -2.4570542700    -1.4185809440     2.0000000000
Ni      0.0341156885    -0.0110378347     3.9964676879
Ni     -7.3355467051    -0.0182922689     3.9970732171
Ni      1.2558683546     2.1123409353     3.9968689247
Ni     -6.0990597345     2.1156497891     3.9962642947
Ni     -1.1930286816    -2.1407507740     3.9944296512
Ni     -8.5665760941    -2.1386433337     4.0089480876
Ni      2.4934186147    -0.0069152578     4.0014021397
Ni     -4.8756118369    -0.0175564985     3.9975332427
Ni      3.7194353873     2.1080563551     3.9973823475
Ni     -3.6500441760     2.1177863962     4.0115076024
Ni      1.2657828870    -2.1404401627     3.9919752607
Ni     -6.1109972677    -2.1488070726     4.0051295570
Ni      4.9491417876    -0.0147096220     4.0094903378
Ni     -2.4244640604    -0.0132233691     3.9966774223
Ni      6.1832274285     2.1128317329     3.9966843096
Ni     -1.2020270982     2.1181744186     4.0035785724
Ni      3.7245345381    -2.1332798121     3.9853029109
Ni     -3.6509216632    -2.1472371645     3.9947131489
Ni      1.2128896584     0.7284963570     6.0143646784
Ni     -6.1710000093     0.7207993811     6.0040610996
Ni      2.4315462596     2.8560087594     5.9888383209
Ni     -4.9057306490     2.8550098488     6.0278420611
Ni     -0.0235842665    -1.3940747406     6.0021854911
Ni     -7.3758167840    -1.3836520849     6.0324899455
Ni      3.6822627890     0.7198925026     6.0434438648
Ni     -3.7036453272     0.7436154388     6.0244055701
Ni      4.8914467924     2.8640211855     5.9932057246
Ni     -2.4903392210     2.8429870998     6.0651994269
Ni      2.4373073588    -1.3930916101     5.9991908368
Ni     -4.9266004049    -1.4114212796     6.0038582864
Ni      6.1236798787     0.7236565166     6.0039991912
Ni     -1.2466222645     0.7316366734     6.0036021595
Ni      7.3649389992     2.8678339760     5.9805650735
Ni     -0.0263737241     2.8547246565     6.0133166200
Ni      4.9113228030    -1.3842565459     6.0352602737
Ni     -2.4859416322    -1.4000981690     6.0003090622
Ni     -0.0016370167     0.0121923572     8.0117152372
Ni     -7.3537444015     0.0028147338     8.1051101314
Ni      1.2353332254     2.1331653345     8.0106905403
Ni      8.6186403833     2.1545056145     7.9325243522
Ni     -1.2254949173    -2.1196629772     7.9957134513
Ni     -8.5820771232    -2.1355250688     8.0016157560
Ni      2.4449773965     0.0085644551     8.0265255110
Ni     -4.9024873287    -0.0197893573     7.9694152604
Ni      3.6442815715     2.1733931422     7.9692173869
Ni     -3.6720955232     2.1098152408     8.1781970631
Ni      1.2185448142    -2.0966228955     8.0015027100
Ni     -6.1258617297    -2.1163742772     8.0230912157
Ni      4.8827205297    -0.0178305983     8.1514417742
Ni     -2.4306784420    -0.0151061878     7.9813367021
Ni      6.1581129372     2.2027049421     7.9657299680
Ni     -1.2007626662     2.1262556603     8.0232134939
Ni      3.6861922349    -2.0974560131     7.9901553900
Ni     -3.6770916952    -2.1300512596     8.0184681070
O       6.0690256492     0.9397789645     9.3830673916
H      10.4710011294     2.7673881858    10.5733261236
H       6.7603923639     2.4048787570    10.6766909958
H       1.4213849429    -4.5337239546    10.9970086391
C       6.1129519719     1.5055802092    10.7090954330
O       7.1395404757    -0.5084558601    11.3777849338
H      -7.6494354583    -0.6679567435    10.3655884683
C       6.6640122303     0.6257039683    11.7748826034
H       6.5384088415     3.3723262392    13.0953100194
C       7.5171786489     3.6914659494    13.4725224522
H       3.8821804240    -1.5915747596    13.4499019681
H       8.2923852770     3.2872743171    12.7957122550
O       7.6280244488     3.1670530620    14.7939364866
H       8.3830947428     3.5904175347    15.2339766714
O      -3.9824741672     1.8899975021    10.2555593033
H      -3.1222065032     1.7024902999    10.6777301618
88
Step 4 | NEB Image 4 | Cartesian Angstrom
Ni      1.2285271350     0.7092904720     2.0000000000
Ni     -6.1433728650     0.7092904720     2.0000000000
Ni      2.4570542700     2.8371618880     2.0000000000
Ni     -4.9148457300     2.8371618880     2.0000000000
Ni      0.0000000000    -1.4185809440     2.0000000000
Ni     -7.3719000000    -1.4185809440     2.0000000000
Ni      3.6855814050     0.7092904720     2.0000000000
Ni     -3.6863185950     0.7092904720     2.0000000000
Ni      4.9141085400     2.8371618880     2.0000000000
Ni     -2.4577914600     2.8371618880     2.0000000000
Ni      2.4570542700    -1.4185809440     2.0000000000
Ni     -4.9148457300    -1.4185809440     2.0000000000
Ni      6.1433728650     0.7092904720     2.0000000000
Ni     -1.2285271350     0.7092904720     2.0000000000
Ni      7.3719000000     2.8371618880     2.0000000000
Ni      0.0000000000     2.8371618880     2.0000000000
Ni      4.9148457300    -1.4185809440     2.0000000000
Ni     -2.4570542700    -1.4185809440     2.0000000000
Ni      0.0380576655    -0.0147002537     3.9984887797
Ni     -7.3384566081    -0.0125883038     4.0070197619
Ni      1.2652484632     2.1105478979     3.9974924014
Ni     -6.1037363046     2.1139892480     4.0021649108
Ni     -1.1903083082    -2.1412405197     3.9981201159
Ni     -8.5638893299    -2.1400825588     4.0071936901
Ni      2.4999291262    -0.0110000145     4.0053280694
Ni     -4.8758595978    -0.0135076117     3.9986307085
Ni      3.7255483204     2.1100677147     4.0080561773
Ni     -3.6484063198     2.1170716411     4.0094021369
Ni      1.2666786096    -2.1467692632     4.0018259093
Ni     -6.1072170919    -2.1459793740     4.0034983277
Ni      4.9554890571    -0.0124352673     4.0138149953
Ni     -2.4249636216    -0.0115701431     4.0017099175
Ni      6.1809812848     2.1106864694     4.0091247250
Ni     -1.1970630826     2.1171305135     4.0002453995
Ni      3.7223945986    -2.1390509574     3.9921532414
Ni     -3.6469387725    -2.1437636980     3.9925020525
Ni      1.2150169482     0.7298429630     6.0127525001
Ni     -6.1611876212     0.7146728928     6.0176006077
Ni      2.4416033214     2.8556167967     5.9992160920
Ni     -4.9025820559     2.8512590707     6.0259171582
Ni     -0.0182637157    -1.3976995130     6.0096233025
Ni     -7.3758341786    -1.3817313843     6.0276239200
Ni      3.6866678782     0.7215079067     6.0489956465
Ni     -3.7018712173     0.7466464324     6.0391763687
Ni      4.9082992656     2.8545640987     6.0315853590
Ni     -2.4811572896     2.8507746299     6.0437725065
Ni      2.4361019175    -1.3940361040     6.0065205739
Ni     -4.9194711395    -1.4066444987     6.0029524166
Ni      6.1307989890     0.7297299977     6.0360165521
Ni     -1.2467514780     0.7338097136     6.0027148889
Ni      7.3604310246     2.8577440801     6.0038757026
Ni     -0.0180901680     2.8599724762     6.0037322589
Ni      4.9073749544    -1.3896597659     6.0255029260
Ni     -2.4795300499    -1.3975626974     6.0050785600
Ni      0.0070899254     0.0143292390     8.0130095248
Ni     -7.3665532596     0.0962679667     8.0504799962
Ni      1.2414758524     2.1352153135     8.0099402858
Ni      8.6361688858     2.1593397748     7.9539182472
Ni     -1.2146230506    -2.1212908108     8.0048065527
Ni     -8.5948029869    -2.1415727841     7.9806439232
Ni      2.4493850262     0.0125630190     8.0282664560
Ni     -4.8670323520    -0.0098147732     7.9903664026
Ni      3.6598205960     2.1640705972     7.9983002744
Ni     -3.6593095782     2.1203993989     8.1638103649
Ni      1.2247084565    -2.0988246221     8.0211866702
Ni     -6.0885905510    -2.1471231605     8.0008930902
Ni      4.8844599992    -0.0158648048     8.1200758686
Ni     -2.4132169143    -0.0178847496     7.9956197564
Ni      6.1591728358     2.2047784618     8.0610793780
Ni     -1.1858211427     2.1331588539     8.0016582388
Ni      3.6826815890    -2.1013773290     7.9971361615
Ni     -3.6665184941    -2.1286636716     8.0190684318
O       6.1350545930     0.7927563502     9.4334405038
H      11.0937977731     3.0982155932    10.5410640929
H       6.8775340033     1.8419615740    11.0755416561
H       1.6370730136    -5.4083909217    11.3287435301
C       6.3134164745     0.9184442035    10.8485417223
O       7.7510245677    -1.1322437264    11.1805995471
H      -6.7048278369    -1.2091290588     8.9701052853
C       7.0817802561    -0.1461111402    11.5346241056
H       8.0696967905     4.2979985883    11.7732087688
C       8.3462829769     4.3081731797    12.8366622985
H       3.8570530188    -1.5828835886    13.4073313311
H       9.2746319321     4.8978009837    12.9549796655
O       8.5256484691     2.9430231967    13.2297217438
H       8.6585717603     2.9184917163    14.1919649419
O      -3.6751025477     2.1533347645    10.2865609877
H      -2.7844086719     1.8061521456    10.4957407358
88
Step 5 | NEB Image 5 | Cartesian Angstrom
Ni      1.2285271350     0.7092904720     2.0000000000
Ni     -6.1433728650     0.7092904720     2.0000000000
Ni      2.4570542700     2.8371618880     2.0000000000
Ni     -4.9148457300     2.8371618880     2.0000000000
Ni      0.0000000000    -1.4185809440     2.0000000000
Ni     -7.3719000000    -1.4185809440     2.0000000000
Ni      3.6855814050     0.7092904720     2.0000000000
Ni     -3.6863185950     0.7092904720     2.0000000000
Ni      4.9141085400     2.8371618880     2.0000000000
Ni     -2.4577914600     2.8371618880     2.0000000000
Ni      2.4570542700    -1.4185809440     2.0000000000
Ni     -4.9148457300    -1.4185809440     2.0000000000
Ni      6.1433728650     0.7092904720     2.0000000000
Ni     -1.2285271350     0.7092904720     2.0000000000
Ni      7.3719000000     2.8371618880     2.0000000000
Ni      0.0000000000     2.8371618880     2.0000000000
Ni      4.9148457300    -1.4185809440     2.0000000000
Ni     -2.4570542700    -1.4185809440     2.0000000000
Ni      0.0464326620    -0.0306468460     3.9976675890
Ni     -7.3257303870    -0.0255862300     3.9933782980
Ni      1.2739848450     2.0960038070     3.9979157030
Ni     -6.1026021170     2.1049500680     4.0019149180
Ni     -1.1827110610    -2.1546561820     3.9989053170
Ni     -8.5597082650    -2.1592869340     3.9982394010
Ni      2.5024778430    -0.0256743600     4.0031952220
Ni     -4.8641413240    -0.0227350050     3.9956475690
Ni      3.7346756480     2.0985190290     4.0083618800
Ni     -3.6458198020     2.0991473590     4.0056686860
Ni      1.2703768650    -2.1597674920     4.0015811390
Ni     -6.0933336510    -2.1603781540     3.9902680500
Ni      4.9590538200    -0.0289845540     4.0074783820
Ni     -2.4167678920    -0.0248088220     4.0022401470
Ni      6.1885777810     2.1026461420     4.0098077600
Ni     -1.1844811720     2.0985803670     3.9964394390
Ni      3.7245308300    -2.1560713310     3.9888953010
Ni     -3.6351397940    -2.1574140910     3.9933365850
Ni      1.2278611130     0.7073057200     6.0134419810
Ni     -6.1428898530     0.6957346210     6.0102358510
Ni      2.4563605190     2.8356121920     5.9987058000
Ni     -4.8924583120     2.8187736320     6.0264580820
Ni      0.0002252210    -1.4241376010     6.0155868270
Ni     -7.3667991100    -1.4101212980     5.9895528060
Ni      3.6921281460     0.7008202940     6.0360645010
Ni     -3.6779272240     0.7256007260     6.0512861550
Ni      4.9267336850     2.8309168990     6.0432780270
Ni     -2.4664659500     2.8157315660     6.0151173370
Ni      2.4509011280    -1.4197685090     6.0062316800
Ni     -4.8985683740    -1.4191884620     5.9881596610
Ni      6.1372839650     0.7115480370     6.0073921100
Ni     -1.2256557510     0.7019370040     6.0032560690
Ni      7.3730564330     2.8242126570     6.0269074010
Ni     -0.0034566730     2.8405670140     6.0010880700
Ni      4.9162369820    -1.4189308570     6.0083232610
Ni     -2.4596272260    -1.4182314770     6.0084483810
Ni      0.0277268390    -0.0168450280     8.0180888710
Ni     -7.3091221710    -0.0327920680     8.0371701400
Ni      1.2611452740     2.1078740620     8.0062525300
Ni      8.6667549770     2.1138793650     7.9801313330
Ni     -1.1942402360    -2.1496555940     8.0109921590
Ni     -8.5668484660    -2.1735761150     7.9430911750
Ni      2.4712577410    -0.0190631580     8.0243063390
Ni     -4.8670711400    -0.0431110720     7.9967287920
Ni      3.6750137580     2.1321536040     7.9940007810
Ni     -3.6274773380     2.0999917070     8.2089215290
Ni      1.2517815200    -2.1329879940     8.0267060850
Ni     -6.0785108950    -2.1534189890     7.9361595560
Ni      4.9123316280    -0.0512787390     8.0829089500
Ni     -2.4007725170    -0.0429334740     8.0081832520
Ni      6.1908597070     2.1505617180     8.1094472440
Ni     -1.1654360560     2.0989982700     7.9806126390
Ni      3.7077660390    -2.1419918620     7.9975968800
Ni     -3.6463297530    -2.1524111230     8.0158878220
O       6.1707187590     0.6663307040     9.3727337630
H      11.2555922500     3.1706166680    10.5266232770
H       7.1149227860     1.0824741990    11.1550798120
H       1.6297081310    -5.3793991980    11.2177269450
C       6.2238707100     0.5353136510    10.8108846880
O       7.5718415080    -1.5277099790    10.9241884940
H      -6.8828388710    -1.2337967880    10.0124245870
C       6.2850334910    -0.9302036460    11.2182633770
H       9.1791669060     4.9099545600    10.6626973770
C       9.7467965870     5.2786349730    12.7161077750
H       5.0959169980    -0.6608682970    12.9933131080
H      10.5457770910     5.8077082870    13.2666670860
O       9.6783811350     3.9068622240    13.1006105230
H      10.5447055700     3.5019751520    12.9206205020
O      -3.5153567700     2.2005093110    10.2599052050
H      -2.6227032800     1.8412518110    10.4321503050
