88
Step 1 | NEB Image 1 | Cartesian Angstrom
Ni      1.2285271350     0.7092904720     2.0000000000
Ni     -6.1433728650     0.7092904720     2.0000000000
Ni      2.4570542700     2.8371618880     2.0000000000
Ni     -4.9148457300     2.8371618880     2.0000000000
Ni      0.0000000000    -1.4185809440     2.0000000000
Ni     -7.3719000000    -1.4185809440     2.0000000000
Ni      3.6855814050     0.7092904720     2.0000000000
Ni     -3.6863185950     0.7092904720     2.0000000000
Ni      4.9141085400     2.8371618880     2.0000000000
Ni     -2.4577914600     2.8371618880     2.0000000000
Ni      2.4570542700    -1.4185809440     2.0000000000
Ni     -4.9148457300    -1.4185809440     2.0000000000
Ni      6.1433728650     0.7092904720     2.0000000000
Ni     -1.2285271350     0.7092904720     2.0000000000
Ni      7.3719000000     2.8371618880     2.0000000000
Ni      0.0000000000     2.8371618880     2.0000000000
Ni      4.9148457300    -1.4185809440     2.0000000000
Ni     -2.4570542700    -1.4185809440     2.0000000000
Ni      0.0345187234    -0.0219895959     3.9906686506
Ni     -7.3332872529    -0.0205271350     3.9970929970
Ni      1.2574298371     2.1090479016     3.9981086770
Ni     -6.1061214153     2.1042281316     4.0017605185
Ni     -1.1958375155    -2.1495425789     3.9888614873
Ni     -8.5615731291    -2.1597422030     3.9935633301
Ni      2.4909200515    -0.0209290578     3.9889124626
Ni     -4.8775455868    -0.0288695998     4.0155932973
Ni      3.7235299523     2.1102350339     3.9932622384
Ni     -3.6483031855     2.1055811522     4.0174271749
Ni      1.2597529797    -2.1544756242     3.9969618463
Ni     -6.1074652262    -2.1506208434     4.0019689283
Ni      4.9550771908    -0.0234645643     3.9935565644
Ni     -2.4269867653    -0.0199772708     3.9982338911
Ni      6.1741097051     2.1083418571     4.0046158614
Ni     -1.1996729370     2.1123145435     4.0000024585
Ni      3.7197951829    -2.1539414756     3.9921760547
Ni     -3.6589301935    -2.1514998115     3.9994955107
Ni      1.2136841869     0.7163863979     5.9963073096
Ni     -6.1473437226     0.7096773911     6.0218176054
Ni      2.4453295017     2.8415084524     5.9971730433
Ni     -4.9231971923     2.8360653972     6.0327934449
Ni     -0.0226348385    -1.4110330430     6.0020236029
Ni     -7.3908667378    -1.4145678834     5.9981301391
Ni      3.6669417345     0.7157583701     5.9869138182
Ni     -3.7108784987     0.7190435175     6.0328517480
Ni      4.9057976617     2.8388244163     6.0411982092
Ni     -2.4814248435     2.8298458387     6.0521186228
Ni      2.4355069788    -1.4085502466     5.9888639843
Ni     -4.9252928465    -1.4026264080     6.0548563839
Ni      6.1341025786     0.7315238745     6.0218817427
Ni     -1.2402669783     0.7221835538     5.9926808095
Ni      7.3408175190     2.8291688103     6.0248565089
Ni     -0.0225097209     2.8466795557     6.0142376281
Ni      4.9088271165    -1.4251457534     5.9900387779
Ni     -2.4790699264    -1.4211153466     5.9913638200
Ni      0.0337137405    -0.0099863123     8.0038502320
Ni     -7.3606520147    -0.0334139511     7.9835827732
Ni      1.2525382386     2.1076756093     8.0014158677
Ni      8.5596645315     2.1514300915     7.9633346422
Ni     -1.1983605499    -2.1613845897     8.0018652759
Ni     -8.5927669864    -2.1264268734     8.0165035337
Ni      2.4708324722    -0.0109047600     8.0065027389
Ni     -4.8995212632    -0.0584838282     8.1493062015
Ni      3.6789469906     2.1047412898     7.9888648741
Ni     -3.6333178494     2.1270714900     8.1546283531
Ni      1.2394335961    -2.1164979174     7.9892760222
Ni     -6.1305722611    -2.1461024656     7.9989212299
Ni      4.9150163145    -0.0283439881     7.9490640309
Ni     -2.3653823178    -0.0601929248     7.9425724452
Ni      6.1349712758     2.1197335004     8.1598232492
Ni     -1.1861990586     2.1067384809     8.0263285947
Ni      3.6953023012    -2.1157302873     7.9694462946
Ni     -3.6468332403    -2.1628724713     8.0264725749
O       5.9486020032     1.9536774433    10.1568983318
H       6.2023593986     1.0444615420    10.4395396161
H       7.6485803319     2.9982816350    10.7947394844
H       2.3841835216    -2.5662265370    10.9995346326
C       6.5922936452     2.8570131008    11.0871865803
O       6.8828593053     0.8516013498    12.3925733789
H      -6.8879959571     0.8254517200    12.3248078773
C       6.4620997723     2.2299052156    12.4710261049
H       5.3979785171     2.1706601767    12.7461907790
C       7.1981974178     3.0342299686    13.5247288963
H       3.2389656514    -2.2859498111    13.4051121917
H       8.2901195875     2.9478942375    13.3576433856
O       6.8260697992     2.5426661176    14.8120038538
H       7.2522042786     3.0948827032    15.4870039972
O      -4.3927237137     1.0982075682     9.5865509607
H      -3.6717371060     0.6667680985    10.0888232085
88
Step 2 | NEB Image 2 | Cartesian Angstrom
Ni      1.2285271350     0.7092904720     2.0000000000
Ni     -6.1433728650     0.7092904720     2.0000000000
Ni      2.4570542700     2.8371618880     2.0000000000
Ni     -4.9148457300     2.8371618880     2.0000000000
Ni      0.0000000000    -1.4185809440     2.0000000000
Ni     -7.3719000000    -1.4185809440     2.0000000000
Ni      3.6855814050     0.7092904720     2.0000000000
Ni     -3.6863185950     0.7092904720     2.0000000000
Ni      4.9141085400     2.8371618880     2.0000000000
Ni     -2.4577914600     2.8371618880     2.0000000000
Ni      2.4570542700    -1.4185809440     2.0000000000
Ni     -4.9148457300    -1.4185809440     2.0000000000
Ni      6.1433728650     0.7092904720     2.0000000000
Ni     -1.2285271350     0.7092904720     2.0000000000
Ni      7.3719000000     2.8371618880     2.0000000000
Ni      0.0000000000     2.8371618880     2.0000000000
Ni      4.9148457300    -1.4185809440     2.0000000000
Ni     -2.4570542700    -1.4185809440     2.0000000000
Ni      0.0382620950    -0.0153684310     3.9919172502
Ni     -7.3195047200    -0.0067649607     4.0053603258
Ni      1.2608742872     2.1177506617     3.9964578069
Ni     -6.1045133311     2.1162180028     4.0292670335
Ni     -1.1919449793    -2.1402425800     3.9886883372
Ni     -8.5553305783    -2.1504885224     4.0014340457
Ni      2.4964495107    -0.0172836520     3.9918421241
Ni     -4.8787073739    -0.0094851932     4.0261662688
Ni      3.7287239951     2.1153842965     3.9957113681
Ni     -3.6441115590     2.1196630203     4.0186524449
Ni      1.2643586946    -2.1470961369     3.9995072992
Ni     -6.1011958922    -2.1366077891     4.0049295532
Ni      4.9645689640    -0.0183789354     3.9965035174
Ni     -2.4256235236    -0.0074083916     3.9986946116
Ni      6.1822987595     2.1170674898     4.0055902822
Ni     -1.1967872238     2.1227545005     3.9980925691
Ni      3.7257896597    -2.1536917062     3.9999059051
Ni     -3.6570731828    -2.1343006390     4.0005617324
Ni      1.2205302558     0.7296319020     5.9941586292
Ni     -6.1183735140     0.7515039418     6.0897513734
Ni      2.4494488545     2.8565437407     5.9902107763
Ni     -4.9198574529     2.8426255272     6.0564770527
Ni     -0.0121309839    -1.4000932208     6.0055699634
Ni     -7.3761111771    -1.3933851802     6.0050747901
Ni      3.6738998550     0.7251366896     5.9871358730
Ni     -3.6956504542     0.7393823021     6.0411588512
Ni      4.9171024727     2.8478632599     6.0432677072
Ni     -2.4704680997     2.8592391321     6.0497956529
Ni      2.4432561224    -1.4041388984     5.9993697220
Ni     -4.9129004549    -1.3671593706     6.0617679206
Ni      6.1473314851     0.7344548604     6.0140533006
Ni     -1.2307322476     0.7391609464     5.9908144371
Ni      7.3536206861     2.8316575361     6.0704413548
Ni     -0.0143293988     2.8699359029     6.0046603804
Ni      4.9104625239    -1.4150674971     5.9941267252
Ni     -2.4661385614    -1.4027068836     5.9911461914
Ni      0.0430328235     0.0031157811     8.0022185737
Ni     -7.3197956551    -0.0165589223     7.9848737044
Ni      1.2564286619     2.1284269880     7.9961515320
Ni      8.5695258909     2.2251659658     8.1523165503
Ni     -1.1902569546    -2.1425639274     8.0030999854
Ni     -8.5598455068    -2.0841641823     8.0008449703
Ni      2.4636208035     0.0100003741     8.0042574435
Ni     -4.8186425270    -0.0098469808     8.2381048379
Ni      3.6677916847     2.1284236102     7.9815589266
Ni     -3.5816632256     2.1648893744     8.1338928646
Ni      1.2417789167    -2.1145909249     8.0136403628
Ni     -6.0852695744    -2.1034862667     8.0082863115
Ni      4.9058593355    -0.0111217149     7.9571407449
Ni     -2.3464289567    -0.0397012872     7.9491289466
Ni      6.1073048321     2.1093527809     8.1429141612
Ni     -1.1611716037     2.1328548782     8.0118220529
Ni      3.6728495164    -2.0745307021     7.9879334234
Ni     -3.6309140475    -2.1371449214     8.0264998431
O       6.1200558111     1.5076306891    10.0540788288
H       9.0423507255     2.6343840741     9.6611002180
H       8.2659456743     2.2565079895     9.7352789924
H       1.5967443039    -3.3429589685    11.0828995134
C       5.9673053251     2.1816458501    11.0892659684
O       7.3723246823     0.5723233296    12.1862280054
H      -7.4885797250     0.2717680888    11.2549846455
C       6.6800859131     1.7961069305    12.3449044280
H       5.8903812519     1.7338917598    13.1255487307
C       7.5460824931     2.9641892867    12.9347846451
H       3.4111128159    -2.4321484387    12.7084109811
H       8.5452325295     2.9245015856    12.4769890340
O       7.6051666871     2.7744805648    14.3540748874
H       8.2503082283     3.3982522411    14.7317537461
O      -4.0814492705     1.1333561237     9.6580275493
H      -3.2848468217     0.8559381729    10.1537969654
88
Step 3 | NEB Image 3 | Cartesian Angstrom
Ni      1.2285271350     0.7092904720     2.0000000000
Ni     -6.1433728650     0.7092904720     2.0000000000
Ni      2.4570542700     2.8371618880     2.0000000000
Ni     -4.9148457300     2.8371618880     2.0000000000
Ni      0.0000000000    -1.4185809440     2.0000000000
Ni     -7.3719000000    -1.4185809440     2.0000000000
Ni      3.6855814050     0.7092904720     2.0000000000
Ni     -3.6863185950     0.7092904720     2.0000000000
Ni      4.9141085400     2.8371618880     2.0000000000
Ni     -2.4577914600     2.8371618880     2.0000000000
Ni      2.4570542700    -1.4185809440     2.0000000000
Ni     -4.9148457300    -1.4185809440     2.0000000000
Ni      6.1433728650     0.7092904720     2.0000000000
Ni     -1.2285271350     0.7092904720     2.0000000000
Ni      7.3719000000     2.8371618880     2.0000000000
Ni      0.0000000000     2.8371618880     2.0000000000
Ni      4.9148457300    -1.4185809440     2.0000000000
Ni     -2.4570542700    -1.4185809440     2.0000000000
Ni      0.0302685196    -0.0095304298     3.9965640476
Ni     -7.3406078220    -0.0145722636     4.0000123048
Ni      1.2523797110     2.1144683407     3.9966806181
Ni     -6.1046924090     2.1176582043     3.9975453135
Ni     -1.1975255751    -2.1383684798     3.9950253290
Ni     -8.5707741990    -2.1356080370     4.0087052888
Ni      2.4902721973    -0.0054098200     4.0016069277
Ni     -4.8811166180    -0.0146171326     3.9978823790
Ni      3.7155545094     2.1113007919     3.9984397968
Ni     -3.6549813860     2.1201226192     4.0104508297
Ni      1.2613542569    -2.1389419515     3.9934557872
Ni     -6.1159203552    -2.1450490869     4.0048573778
Ni      4.9464010344    -0.0107366272     4.0108908940
Ni     -2.4292138838    -0.0110797873     3.9964866309
Ni      6.1782495154     2.1148675486     3.9996312394
Ni     -1.2060802923     2.1204582621     4.0023986839
Ni      3.7198511858    -2.1318397301     3.9858683876
Ni     -3.6555275970    -2.1442912735     3.9944862844
Ni      1.2061997293     0.7327238014     6.0134069850
Ni     -6.1774080821     0.7241979177     6.0093740451
Ni      2.4255854764     2.8600786097     5.9903520175
Ni     -4.9138917007     2.8599836898     6.0266991570
Ni     -0.0306404973    -1.3907189430     6.0038370352
Ni     -7.3828213325    -1.3768593778     6.0352362215
Ni      3.6765027021     0.7256484371     6.0434162772
Ni     -3.7111053175     0.7478511647     6.0244273681
Ni      4.8864457936     2.8679182729     5.9992477146
Ni     -2.4973644379     2.8495381567     6.0614069971
Ni      2.4296136323    -1.3885356638     6.0008450643
Ni     -4.9327857523    -1.4071202825     6.0047630697
Ni      6.1197313446     0.7297005310     6.0136095583
Ni     -1.2541133002     0.7355851625     6.0021613071
Ni      7.3568514633     2.8717032071     5.9845480869
Ni     -0.0324432958     2.8592331516     6.0118480072
Ni      4.9029747678    -1.3792375049     6.0326774213
Ni     -2.4928309937    -1.3963517346     6.0012809652
Ni     -0.0082749996     0.0188256228     8.0105943813
Ni     -7.3523882567     0.0062680304     8.1282789231
Ni      1.2275164433     2.1390064483     8.0103299786
Ni      8.6115108622     2.1614580851     7.9347092179
Ni     -1.2326076346    -2.1144205997     7.9978914247
Ni     -8.5905255009    -2.1283195531     7.9968599228
Ni      2.4399922078     0.0172847302     8.0254818663
Ni     -4.9063794924    -0.0160312988     7.9732865378
Ni      3.6384379488     2.1796753064     7.9732416592
Ni     -3.6791845900     2.1152239920     8.1685831084
Ni      1.2111814282    -2.0885191928     8.0060886566
Ni     -6.1325156202    -2.1108165797     8.0243161815
Ni      4.8794330733    -0.0085709709     8.1457379489
Ni     -2.4369954452    -0.0107252024     7.9809599239
Ni      6.1522852373     2.2150336174     7.9824368429
Ni     -1.2083641829     2.1316126228     8.0182566191
Ni      3.6800589681    -2.0889384231     7.9921040653
Ni     -3.6844834443    -2.1259627582     8.0207057036
O       6.0797502360     0.9317803408     9.3820421508
H      10.4959635037     2.8039137858    10.5514327609
H       6.7757737127     2.3073852900    10.7706366503
H       1.4042304082    -4.5858213630    10.9970638387
C       6.0946191847     1.4325764898    10.7325170790
O       7.1277118928    -0.6018688831    11.3450692706
H      -7.5822288816    -0.7067179336    10.3199495898
C       6.5925994900     0.4912448119    11.7754678644
H       6.4664617844     3.2453510403    13.1951511614
C       7.4536292067     3.6028981583    13.5123719556
H       3.8192728530    -1.6895744854    13.3649007757
H       8.2129769768     3.1222057184    12.8684934035
O       7.5926816409     3.2321676136    14.8823768218
H       8.3920046157     3.6518886527    15.2382998959
O      -3.9509340312     1.9220378817    10.2519768075
H      -3.0667719959     1.7751119621    10.6398963259
88
Step 4 | NEB Image 4 | Cartesian Angstrom
Ni      1.2285271350     0.7092904720     2.0000000000
Ni     -6.1433728650     0.7092904720     2.0000000000
Ni      2.4570542700     2.8371618880     2.0000000000
Ni     -4.9148457300     2.8371618880     2.0000000000
Ni      0.0000000000    -1.4185809440     2.0000000000
Ni     -7.3719000000    -1.4185809440     2.0000000000
Ni      3.6855814050     0.7092904720     2.0000000000
Ni     -3.6863185950     0.7092904720     2.0000000000
Ni      4.9141085400     2.8371618880     2.0000000000
Ni     -2.4577914600     2.8371618880     2.0000000000
Ni      2.4570542700    -1.4185809440     2.0000000000
Ni     -4.9148457300    -1.4185809440     2.0000000000
Ni      6.1433728650     0.7092904720     2.0000000000
Ni     -1.2285271350     0.7092904720     2.0000000000
Ni      7.3719000000     2.8371618880     2.0000000000
Ni      0.0000000000     2.8371618880     2.0000000000
Ni      4.9148457300    -1.4185809440     2.0000000000
Ni     -2.4570542700    -1.4185809440     2.0000000000
Ni      0.0403279039    -0.0204793256     3.9982035949
Ni     -7.3371146074    -0.0158222395     4.0028271777
Ni      1.2681910739     2.1065075837     3.9973619183
Ni     -6.1063920946     2.1108222075     4.0013511516
Ni     -1.1872553281    -2.1458308271     3.9975034150
Ni     -8.5633664868    -2.1461058589     4.0042441014
Ni      2.5010586282    -0.0152965066     4.0048859859
Ni     -4.8756843351    -0.0173653074     3.9961226751
Ni      3.7288137168     2.1060755615     4.0084094729
Ni     -3.6532551274     2.1062848495     4.0002022696
Ni      1.2685034637    -2.1510250124     4.0017431551
Ni     -6.1054704739    -2.1513483693     3.9964648272
Ni      4.9544567756    -0.0171886793     4.0120439209
Ni     -2.4251009133    -0.0168034399     4.0005400014
Ni      6.1826894893     2.1095205135     4.0076556826
Ni     -1.1910495963     2.1086588893     3.9918246905
Ni      3.7234925023    -2.1439749667     3.9928174515
Ni     -3.6446591467    -2.1491761192     3.9906352522
Ni      1.2181133753     0.7221177249     6.0119675962
Ni     -6.1621224048     0.7075863262     6.0174105178
Ni      2.4458932811     2.8466485531     5.9981157542
Ni     -4.9018212261     2.8395453149     6.0221035698
Ni     -0.0120790461    -1.4080237706     6.0105906656
Ni     -7.3758975524    -1.3937221229     6.0110159790
Ni      3.6874869758     0.7140221349     6.0502170566
Ni     -3.7056005235     0.7287571025     6.0485311201
Ni      4.9118475045     2.8481174121     6.0336242505
Ni     -2.4760784598     2.8253320061     6.0105145036
Ni      2.4392156433    -1.4012636579     6.0066372009
Ni     -4.9133244581    -1.4131181400     5.9924768235
Ni      6.1296654720     0.7238358153     6.0303028172
Ni     -1.2432320176     0.7158929079     5.9974944545
Ni      7.3644683801     2.8476699200     6.0126778024
Ni     -0.0166854444     2.8506841974     6.0023271713
Ni      4.9072699969    -1.3954610197     6.0239134621
Ni     -2.4728680376    -1.4105723214     6.0010974208
Ni      0.0120552998    -0.0040640196     8.0124573817
Ni     -7.3609049914    -0.0104767329     8.1040148491
Ni      1.2476569744     2.1210603950     8.0096905336
Ni      8.6389729352     2.1384219986     7.9626922844
Ni     -1.2084451071    -2.1326837230     8.0074958101
Ni     -8.5978569298    -2.1596511410     7.9639493089
Ni      2.4514217066     0.0021484479     8.0288273823
Ni     -4.8945789939    -0.0421155679     8.0224596626
Ni      3.6632271154     2.1524818005     7.9986365461
Ni     -3.6644620687     2.0971191682     8.1502672151
Ni      1.2316536529    -2.1133909727     8.0231330908
Ni     -6.0990684463    -2.1797754470     7.9712396800
Ni      4.8901146587    -0.0308292087     8.1277662855
Ni     -2.4189550015    -0.0358419764     7.9976536498
Ni      6.1665867586     2.1795310740     8.0727461159
Ni     -1.1803294782     2.1028055597     7.9852835169
Ni      3.6843233861    -2.1152748611     7.9975584851
Ni     -3.6530684165    -2.1482165153     8.0137215289
O       6.1283819099     0.7747740521     9.4426175237
H      11.1876497054     3.1432036706    10.4634612342
H       6.8710880915     1.8630583055    11.0646202137
H       1.6011501585    -5.3220021941    11.3220113277
C       6.2765997903     0.9558486722    10.8502840117
O       7.5778918410    -1.1377151452    11.2475887753
H      -6.3623701203    -0.9478141542     8.9862020035
C       7.0003619454    -0.1511510017    11.5759559118
H       8.0345538934     4.3348693370    11.7577115467
C       8.2492664096     4.2995844312    12.8332923389
H       3.7320704731    -1.6051119256    13.3728262145
H       9.1712903671     4.8716459411    13.0258793762
O       8.3984861631     2.9195216078    13.1772034569
H       8.6391888571     2.8613248747    14.1161203755
O      -3.6446662419     2.1884800989    10.2559705216
H      -2.7711579735     1.7947758563    10.4541940803
88
Step 5 | NEB Image 5 | Cartesian Angstrom
Ni      1.2285271350     0.7092904720     2.0000000000
Ni     -6.1433728650     0.7092904720     2.0000000000
Ni      2.4570542700     2.8371618880     2.0000000000
Ni     -4.9148457300     2.8371618880     2.0000000000
Ni      0.0000000000    -1.4185809440     2.0000000000
Ni     -7.3719000000    -1.4185809440     2.0000000000
Ni      3.6855814050     0.7092904720     2.0000000000
Ni     -3.6863185950     0.7092904720     2.0000000000
Ni      4.9141085400     2.8371618880     2.0000000000
Ni     -2.4577914600     2.8371618880     2.0000000000
Ni      2.4570542700    -1.4185809440     2.0000000000
Ni     -4.9148457300    -1.4185809440     2.0000000000
Ni      6.1433728650     0.7092904720     2.0000000000
Ni     -1.2285271350     0.7092904720     2.0000000000
Ni      7.3719000000     2.8371618880     2.0000000000
Ni      0.0000000000     2.8371618880     2.0000000000
Ni      4.9148457300    -1.4185809440     2.0000000000
Ni     -2.4570542700    -1.4185809440     2.0000000000
Ni      0.0464326620    -0.0306468460     3.9976675890
Ni     -7.3257303870    -0.0255862300     3.9933782980
Ni      1.2739848450     2.0960038070     3.9979157030
Ni     -6.1026021170     2.1049500680     4.0019149180
Ni     -1.1827110610    -2.1546561820     3.9989053170
Ni     -8.5597082650    -2.1592869340     3.9982394010
Ni      2.5024778430    -0.0256743600     4.0031952220
Ni     -4.8641413240    -0.0227350050     3.9956475690
Ni      3.7346756480     2.0985190290     4.0083618800
Ni     -3.6458198020     2.0991473590     4.0056686860
Ni      1.2703768650    -2.1597674920     4.0015811390
Ni     -6.0933336510    -2.1603781540     3.9902680500
Ni      4.9590538200    -0.0289845540     4.0074783820
Ni     -2.4167678920    -0.0248088220     4.0022401470
Ni      6.1885777810     2.1026461420     4.0098077600
Ni     -1.1844811720     2.0985803670     3.9964394390
Ni      3.7245308300    -2.1560713310     3.9888953010
Ni     -3.6351397940    -2.1574140910     3.9933365850
Ni      1.2278611130     0.7073057200     6.0134419810
Ni     -6.1428898530     0.6957346210     6.0102358510
Ni      2.4563605190     2.8356121920     5.9987058000
Ni     -4.8924583120     2.8187736320     6.0264580820
Ni      0.0002252210    -1.4241376010     6.0155868270
Ni     -7.3667991100    -1.4101212980     5.9895528060
Ni      3.6921281460     0.7008202940     6.0360645010
Ni     -3.6779272240     0.7256007260     6.0512861550
Ni      4.9267336850     2.8309168990     6.0432780270
Ni     -2.4664659500     2.8157315660     6.0151173370
Ni      2.4509011280    -1.4197685090     6.0062316800
Ni     -4.8985683740    -1.4191884620     5.9881596610
Ni      6.1372839650     0.7115480370     6.0073921100
Ni     -1.2256557510     0.7019370040     6.0032560690
Ni      7.3730564330     2.8242126570     6.0269074010
Ni     -0.0034566730     2.8405670140     6.0010880700
Ni      4.9162369820    -1.4189308570     6.0083232610
Ni     -2.4596272260    -1.4182314770     6.0084483810
Ni      0.0277268390    -0.0168450280     8.0180888710
Ni     -7.3091221710    -0.0327920680     8.0371701400
Ni      1.2611452740     2.1078740620     8.0062525300
Ni      8.6667549770     2.1138793650     7.9801313330
Ni     -1.1942402360    -2.1496555940     8.0109921590
Ni     -8.5668484660    -2.1735761150     7.9430911750
Ni      2.4712577410    -0.0190631580     8.0243063390
Ni     -4.8670711400    -0.0431110720     7.9967287920
Ni      3.6750137580     2.1321536040     7.9940007810
Ni     -3.6274773380     2.0999917070     8.2089215290
Ni      1.2517815200    -2.1329879940     8.0267060850
Ni     -6.0785108950    -2.1534189890     7.9361595560
Ni      4.9123316280    -0.0512787390     8.0829089500
Ni     -2.4007725170    -0.0429334740     8.0081832520
Ni      6.1908597070     2.1505617180     8.1094472440
Ni     -1.1654360560     2.0989982700     7.9806126390
Ni      3.7077660390    -2.1419918620     7.9975968800
Ni     -3.6463297530    -2.1524111230     8.0158878220
O       6.1707187590     0.6663307040     9.3727337630
H      11.2555922500     3.1706166680    10.5266232770
H       7.1149227860     1.0824741990    11.1550798120
H       1.6297081310    -5.3793991980    11.2177269450
C       6.2238707100     0.5353136510    10.8108846880
O       7.5718415080    -1.5277099790    10.9241884940
H      -6.8828388710    -1.2337967880    10.0124245870
C       6.2850334910    -0.9302036460    11.2182633770
H       9.1791669060     4.9099545600    10.6626973770
C       9.7467965870     5.2786349730    12.7161077750
H       5.0959169980    -0.6608682970    12.9933131080
H      10.5457770910     5.8077082870    13.2666670860
O       9.6783811350     3.9068622240    13.1006105230
H      10.5447055700     3.5019751520    12.9206205020
O      -3.5153567700     2.2005093110    10.2599052050
H      -2.6227032800     1.8412518110    10.4321503050
