88
Step 1 | NEB Image 1 | Cartesian Angstrom
Ni      1.2285271350     0.7092904720     2.0000000000
Ni     -6.1433728650     0.7092904720     2.0000000000
Ni      2.4570542700     2.8371618880     2.0000000000
Ni     -4.9148457300     2.8371618880     2.0000000000
Ni      0.0000000000    -1.4185809440     2.0000000000
Ni     -7.3719000000    -1.4185809440     2.0000000000
Ni      3.6855814050     0.7092904720     2.0000000000
Ni     -3.6863185950     0.7092904720     2.0000000000
Ni      4.9141085400     2.8371618880     2.0000000000
Ni     -2.4577914600     2.8371618880     2.0000000000
Ni      2.4570542700    -1.4185809440     2.0000000000
Ni     -4.9148457300    -1.4185809440     2.0000000000
Ni      6.1433728650     0.7092904720     2.0000000000
Ni     -1.2285271350     0.7092904720     2.0000000000
Ni      7.3719000000     2.8371618880     2.0000000000
Ni      0.0000000000     2.8371618880     2.0000000000
Ni      4.9148457300    -1.4185809440     2.0000000000
Ni     -2.4570542700    -1.4185809440     2.0000000000
Ni      0.0345187234    -0.0219895959     3.9906686506
Ni     -7.3332872529    -0.0205271350     3.9970929970
Ni      1.2574298371     2.1090479016     3.9981086770
Ni     -6.1061214153     2.1042281316     4.0017605185
Ni     -1.1958375155    -2.1495425789     3.9888614873
Ni     -8.5615731291    -2.1597422030     3.9935633301
Ni      2.4909200515    -0.0209290578     3.9889124626
Ni     -4.8775455868    -0.0288695998     4.0155932973
Ni      3.7235299523     2.1102350339     3.9932622384
Ni     -3.6483031855     2.1055811522     4.0174271749
Ni      1.2597529797    -2.1544756242     3.9969618463
Ni     -6.1074652262    -2.1506208434     4.0019689283
Ni      4.9550771908    -0.0234645643     3.9935565644
Ni     -2.4269867653    -0.0199772708     3.9982338911
Ni      6.1741097051     2.1083418571     4.0046158614
Ni     -1.1996729370     2.1123145435     4.0000024585
Ni      3.7197951829    -2.1539414756     3.9921760547
Ni     -3.6589301935    -2.1514998115     3.9994955107
Ni      1.2136841869     0.7163863979     5.9963073096
Ni     -6.1473437226     0.7096773911     6.0218176054
Ni      2.4453295017     2.8415084524     5.9971730433
Ni     -4.9231971923     2.8360653972     6.0327934449
Ni     -0.0226348385    -1.4110330430     6.0020236029
Ni     -7.3908667378    -1.4145678834     5.9981301391
Ni      3.6669417345     0.7157583701     5.9869138182
Ni     -3.7108784987     0.7190435175     6.0328517480
Ni      4.9057976617     2.8388244163     6.0411982092
Ni     -2.4814248435     2.8298458387     6.0521186228
Ni      2.4355069788    -1.4085502466     5.9888639843
Ni     -4.9252928465    -1.4026264080     6.0548563839
Ni      6.1341025786     0.7315238745     6.0218817427
Ni     -1.2402669783     0.7221835538     5.9926808095
Ni      7.3408175190     2.8291688103     6.0248565089
Ni     -0.0225097209     2.8466795557     6.0142376281
Ni      4.9088271165    -1.4251457534     5.9900387779
Ni     -2.4790699264    -1.4211153466     5.9913638200
Ni      0.0337137405    -0.0099863123     8.0038502320
Ni     -7.3606520147    -0.0334139511     7.9835827732
Ni      1.2525382386     2.1076756093     8.0014158677
Ni      8.5596645315     2.1514300915     7.9633346422
Ni     -1.1983605499    -2.1613845897     8.0018652759
Ni     -8.5927669864    -2.1264268734     8.0165035337
Ni      2.4708324722    -0.0109047600     8.0065027389
Ni     -4.8995212632    -0.0584838282     8.1493062015
Ni      3.6789469906     2.1047412898     7.9888648741
Ni     -3.6333178494     2.1270714900     8.1546283531
Ni      1.2394335961    -2.1164979174     7.9892760222
Ni     -6.1305722611    -2.1461024656     7.9989212299
Ni      4.9150163145    -0.0283439881     7.9490640309
Ni     -2.3653823178    -0.0601929248     7.9425724452
Ni      6.1349712758     2.1197335004     8.1598232492
Ni     -1.1861990586     2.1067384809     8.0263285947
Ni      3.6953023012    -2.1157302873     7.9694462946
Ni     -3.6468332403    -2.1628724713     8.0264725749
O       5.9486020032     1.9536774433    10.1568983318
H       6.2023593986     1.0444615420    10.4395396161
H       7.6485803319     2.9982816350    10.7947394844
H       2.3841835216    -2.5662265370    10.9995346326
C       6.5922936452     2.8570131008    11.0871865803
O       6.8828593053     0.8516013498    12.3925733789
H      -6.8879959571     0.8254517200    12.3248078773
C       6.4620997723     2.2299052156    12.4710261049
H       5.3979785171     2.1706601767    12.7461907790
C       7.1981974178     3.0342299686    13.5247288963
H       3.2389656514    -2.2859498111    13.4051121917
H       8.2901195875     2.9478942375    13.3576433856
O       6.8260697992     2.5426661176    14.8120038538
H       7.2522042786     3.0948827032    15.4870039972
O      -4.3927237137     1.0982075682     9.5865509607
H      -3.6717371060     0.6667680985    10.0888232085
88
Step 2 | NEB Image 2 | Cartesian Angstrom
Ni      1.2285271350     0.7092904720     2.0000000000
Ni     -6.1433728650     0.7092904720     2.0000000000
Ni      2.4570542700     2.8371618880     2.0000000000
Ni     -4.9148457300     2.8371618880     2.0000000000
Ni      0.0000000000    -1.4185809440     2.0000000000
Ni     -7.3719000000    -1.4185809440     2.0000000000
Ni      3.6855814050     0.7092904720     2.0000000000
Ni     -3.6863185950     0.7092904720     2.0000000000
Ni      4.9141085400     2.8371618880     2.0000000000
Ni     -2.4577914600     2.8371618880     2.0000000000
Ni      2.4570542700    -1.4185809440     2.0000000000
Ni     -4.9148457300    -1.4185809440     2.0000000000
Ni      6.1433728650     0.7092904720     2.0000000000
Ni     -1.2285271350     0.7092904720     2.0000000000
Ni      7.3719000000     2.8371618880     2.0000000000
Ni      0.0000000000     2.8371618880     2.0000000000
Ni      4.9148457300    -1.4185809440     2.0000000000
Ni     -2.4570542700    -1.4185809440     2.0000000000
Ni      0.0353281987    -0.0137716336     3.9931451231
Ni     -7.3219323498    -0.0055253416     4.0070389496
Ni      1.2583566156     2.1186182958     3.9970265656
Ni     -6.1069334112     2.1168449669     4.0312611286
Ni     -1.1943250815    -2.1386945041     3.9897284765
Ni     -8.5583612966    -2.1491236333     4.0044250507
Ni      2.4939818919    -0.0158151445     3.9934977779
Ni     -4.8815087882    -0.0078136222     4.0273802091
Ni      3.7261494083     2.1161879004     3.9964367529
Ni     -3.6477611791     2.1214838788     4.0202737757
Ni      1.2623169643    -2.1450544999     3.9994300982
Ni     -6.1038533029    -2.1354813368     4.0064630673
Ni      4.9616301792    -0.0166760236     3.9983604430
Ni     -2.4288439179    -0.0057543687     3.9994049082
Ni      6.1813395650     2.1186025834     4.0067110345
Ni     -1.1994449688     2.1237282815     3.9991908585
Ni      3.7236067238    -2.1524734855     4.0022168796
Ni     -3.6590810993    -2.1332432172     4.0015247870
Ni      1.2159530753     0.7318213767     5.9966753257
Ni     -6.1218202791     0.7553419198     6.0982502867
Ni      2.4440355931     2.8595063165     5.9904625997
Ni     -4.9273109650     2.8441578606     6.0628216314
Ni     -0.0155142081    -1.3979093093     6.0067388683
Ni     -7.3799787531    -1.3898061738     6.0094411134
Ni      3.6701995753     0.7273085025     5.9915217143
Ni     -3.7004724561     0.7423093057     6.0451434466
Ni      4.9132479913     2.8514010713     6.0395945575
Ni     -2.4754983633     2.8626390050     6.0509173445
Ni      2.4398461550    -1.4020067700     6.0018625525
Ni     -4.9173759484    -1.3623837944     6.0631366922
Ni      6.1426110554     0.7350563588     6.0145010208
Ni     -1.2369187899     0.7407264121     5.9942581297
Ni      7.3551678016     2.8329261802     6.0779366735
Ni     -0.0189676921     2.8729851932     6.0059027339
Ni      4.9058041650    -1.4099678170     5.9981536965
Ni     -2.4706355161    -1.3985233122     5.9938715225
Ni      0.0348750955     0.0070939818     8.0038444831
Ni     -7.3167279621    -0.0111343410     7.9896871987
Ni      1.2495058139     2.1333363515     7.9975871873
Ni      8.5685386015     2.2360932223     8.1932834835
Ni     -1.1981441715    -2.1365358308     8.0030514806
Ni     -8.5659404246    -2.0789517104     8.0001599647
Ni      2.4572447358     0.0137238158     8.0068578859
Ni     -4.8124965546     0.0145621604     8.2538120328
Ni      3.6626035849     2.1362101193     7.9794715566
Ni     -3.5889605752     2.1782830452     8.1306543514
Ni      1.2355386643    -2.1113303985     8.0160782588
Ni     -6.0872370967    -2.0929915138     8.0107409136
Ni      4.8987117339    -0.0055227881     7.9658828744
Ni     -2.3581761191    -0.0316019804     7.9579371104
Ni      6.1098739965     2.1156319293     8.1266917347
Ni     -1.1668078447     2.1388920208     8.0100216636
Ni      3.6697497651    -2.0713428873     7.9948235966
Ni     -3.6396558258    -2.1283916829     8.0284139094
O       6.1242697158     1.4025515707    10.0178857487
H       9.0557935157     2.6110715850     9.7474458054
H       8.2542665813     2.2993226365     9.8124572245
H       1.4764261396    -3.5685802518    11.0977354218
C       5.9383470592     2.0420831026    11.0726002216
O       7.3699423105     0.4603682808    12.1332943069
H      -7.4883677350     0.1752560623    11.1923820978
C       6.6937532163     1.6949836770    12.3145709409
H       5.9280615744     1.6651542800    13.1196103402
C       7.5411732693     2.9070092890    12.9321563433
H       3.4095216286    -2.4908310752    12.6876018590
H       8.5598369273     2.8833047578    12.5251567838
O       7.5493065905     2.7545751027    14.3619970885
H       8.1907615965     3.3807353147    14.7472662198
O      -4.0552812932     1.2118434212     9.6974720650
H      -3.2394450645     1.0057637609    10.1984094737
88
Step 3 | NEB Image 3 | Cartesian Angstrom
Ni      1.2285271350     0.7092904720     2.0000000000
Ni     -6.1433728650     0.7092904720     2.0000000000
Ni      2.4570542700     2.8371618880     2.0000000000
Ni     -4.9148457300     2.8371618880     2.0000000000
Ni      0.0000000000    -1.4185809440     2.0000000000
Ni     -7.3719000000    -1.4185809440     2.0000000000
Ni      3.6855814050     0.7092904720     2.0000000000
Ni     -3.6863185950     0.7092904720     2.0000000000
Ni      4.9141085400     2.8371618880     2.0000000000
Ni     -2.4577914600     2.8371618880     2.0000000000
Ni      2.4570542700    -1.4185809440     2.0000000000
Ni     -4.9148457300    -1.4185809440     2.0000000000
Ni      6.1433728650     0.7092904720     2.0000000000
Ni     -1.2285271350     0.7092904720     2.0000000000
Ni      7.3719000000     2.8371618880     2.0000000000
Ni      0.0000000000     2.8371618880     2.0000000000
Ni      4.9148457300    -1.4185809440     2.0000000000
Ni     -2.4570542700    -1.4185809440     2.0000000000
Ni      0.0288514349    -0.0086446936     3.9968627901
Ni     -7.3416555115    -0.0131023547     4.0001608419
Ni      1.2517259625     2.1153815541     3.9969022842
Ni     -6.1063127656     2.1187365921     3.9980936062
Ni     -1.1990215178    -2.1369210902     3.9956825217
Ni     -8.5718406208    -2.1357727206     4.0078233327
Ni      2.4889220487    -0.0048718045     4.0017321524
Ni     -4.8818984957    -0.0129332909     3.9984745526
Ni      3.7145652388     2.1129853717     3.9989902054
Ni     -3.6562852599     2.1204413251     4.0108898801
Ni      1.2595755477    -2.1382412619     3.9942784768
Ni     -6.1162000144    -2.1439645285     4.0039670578
Ni      4.9455799179    -0.0094653715     4.0104337756
Ni     -2.4310149413    -0.0097061903     3.9975005042
Ni      6.1767298529     2.1160680014     4.0007523439
Ni     -1.2066114228     2.1210065200     4.0018985306
Ni      3.7177071666    -2.1317636393     3.9857109462
Ni     -3.6561793365    -2.1429184670     3.9944881203
Ni      1.2034853889     0.7345878583     6.0134404290
Ni     -6.1789926358     0.7253093796     6.0106555927
Ni      2.4238809849     2.8620010230     5.9910978307
Ni     -4.9155671771     2.8596174585     6.0283365396
Ni     -0.0324577278    -1.3893264678     6.0046948063
Ni     -7.3857022369    -1.3756023527     6.0308952371
Ni      3.6733361543     0.7279049539     6.0415635690
Ni     -3.7126885496     0.7509173817     6.0301505279
Ni      4.8855131562     2.8690809866     6.0026975551
Ni     -2.4989004711     2.8514259301     6.0575893505
Ni      2.4270779098    -1.3872117812     6.0013095418
Ni     -4.9340357831    -1.4041734801     6.0044523131
Ni      6.1177538032     0.7331386438     6.0145111448
Ni     -1.2565969937     0.7367259238     6.0025355522
Ni      7.3551795034     2.8713756616     5.9875806011
Ni     -0.0339926407     2.8618292775     6.0109068399
Ni      4.8996166977    -1.3793959330     6.0276680559
Ni     -2.4945932140    -1.3935983192     6.0026628954
Ni     -0.0118245386     0.0216035749     8.0111588020
Ni     -7.3537127241     0.0047325517     8.1269738303
Ni      1.2244420937     2.1416421775     8.0100562709
Ni      8.6119838328     2.1613683627     7.9403184516
Ni     -1.2353230852    -2.1121309753     7.9989028237
Ni     -8.5947573173    -2.1272844473     7.9901443121
Ni      2.4364932351     0.0204101618     8.0251374965
Ni     -4.9082539095    -0.0122222115     7.9781521685
Ni      3.6357827294     2.1811709149     7.9747629895
Ni     -3.6807054308     2.1200651085     8.1787739390
Ni      1.2077616791    -2.0850420314     8.0081245556
Ni     -6.1336129410    -2.1092245583     8.0171938480
Ni      4.8764861793    -0.0093349829     8.1323754940
Ni     -2.4402722803    -0.0077634388     7.9862079353
Ni      6.1505069752     2.2220633576     7.9945668429
Ni     -1.2102701745     2.1338455057     8.0141641476
Ni      3.6769267596    -2.0877795280     7.9917154211
Ni     -3.6872019697    -2.1230215497     8.0205640706
O       6.0758156911     0.9131359424     9.3675345773
H      10.5978571803     2.8932330208    10.5654567633
H       6.7371209346     2.1865785069    10.8628969000
H       1.3780756740    -4.7731153808    11.0433013685
C       6.0798985799     1.3010315405    10.7512029339
O       7.1523018848    -0.7598976580    11.2179200661
H      -7.5379663831    -0.8040768744    10.1764149727
C       6.5974368260     0.2891335100    11.7182902477
H       6.4746880627     3.2348527129    13.2044767902
C       7.4618435656     3.6032570722    13.5120415403
H       3.8235101981    -1.6934826794    13.3291360998
H       8.2261403477     3.1064451311    12.8856258139
O       7.5961501388     3.2762729213    14.8946427671
H       8.4151695966     3.6752943508    15.2296513394
O      -3.8849591788     1.9971895995    10.2735710505
H      -2.9845314850     1.8443411446    10.6205063582
88
Step 4 | NEB Image 4 | Cartesian Angstrom
Ni      1.2285271350     0.7092904720     2.0000000000
Ni     -6.1433728650     0.7092904720     2.0000000000
Ni      2.4570542700     2.8371618880     2.0000000000
Ni     -4.9148457300     2.8371618880     2.0000000000
Ni      0.0000000000    -1.4185809440     2.0000000000
Ni     -7.3719000000    -1.4185809440     2.0000000000
Ni      3.6855814050     0.7092904720     2.0000000000
Ni     -3.6863185950     0.7092904720     2.0000000000
Ni      4.9141085400     2.8371618880     2.0000000000
Ni     -2.4577914600     2.8371618880     2.0000000000
Ni      2.4570542700    -1.4185809440     2.0000000000
Ni     -4.9148457300    -1.4185809440     2.0000000000
Ni      6.1433728650     0.7092904720     2.0000000000
Ni     -1.2285271350     0.7092904720     2.0000000000
Ni      7.3719000000     2.8371618880     2.0000000000
Ni      0.0000000000     2.8371618880     2.0000000000
Ni      4.9148457300    -1.4185809440     2.0000000000
Ni     -2.4570542700    -1.4185809440     2.0000000000
Ni      0.0413015504    -0.0256264793     3.9968220852
Ni     -7.3392476248    -0.0175570822     4.0022074323
Ni      1.2655502402     2.1022341539     3.9978886830
Ni     -6.1073071264     2.1079003711     4.0016779980
Ni     -1.1898982432    -2.1513203101     3.9975642177
Ni     -8.5675068489    -2.1471585264     4.0044897020
Ni      2.4995665609    -0.0200182063     4.0043810179
Ni     -4.8746439208    -0.0177850753     3.9969872417
Ni      3.7251988263     2.1010154258     4.0091342795
Ni     -3.6514752126     2.1077435381     4.0032907125
Ni      1.2641944478    -2.1571868359     4.0016780920
Ni     -6.1068038731    -2.1505699920     3.9962887514
Ni      4.9520424268    -0.0211036390     4.0144317892
Ni     -2.4220844093    -0.0208778260     3.9958003770
Ni      6.1791218524     2.1041090127     4.0100337582
Ni     -1.1943323159     2.1082225986     3.9946994307
Ni      3.7188975524    -2.1489796788     3.9938555025
Ni     -3.6462292397    -2.1507434844     3.9915804347
Ni      1.2193784570     0.7162420570     6.0125451483
Ni     -6.1582291464     0.7052972653     6.0165172059
Ni      2.4443735530     2.8421717043     5.9999525684
Ni     -4.9007224516     2.8361456275     6.0203781069
Ni     -0.0159209923    -1.4137658818     6.0107297019
Ni     -7.3746288296    -1.3952419881     6.0139855208
Ni      3.6861929164     0.7054183525     6.0513420350
Ni     -3.6921941675     0.7309730772     6.0293230000
Ni      4.9084295207     2.8380871633     6.0347044649
Ni     -2.4747530489     2.8378265840     6.0191933016
Ni      2.4330432452    -1.4088561720     6.0059316513
Ni     -4.9139841549    -1.4128228909     5.9964298933
Ni      6.1315722036     0.7145022469     6.0342276013
Ni     -1.2393565454     0.7179816122     5.9933477031
Ni      7.3607636820     2.8400306708     6.0133382274
Ni     -0.0123119062     2.8507457690     6.0001915346
Ni      4.9027316127    -1.4033057641     6.0232438321
Ni     -2.4738631461    -1.4101563215     6.0006156622
Ni      0.0160496125    -0.0090510980     8.0096886497
Ni     -7.3332569615    -0.0081523199     8.1043130646
Ni      1.2470984045     2.1144370892     8.0107930453
Ni      8.6438956807     2.1443935744     7.9637257187
Ni     -1.2091406898    -2.1363640298     8.0078207049
Ni     -8.5936497006    -2.1526625884     7.9594240399
Ni      2.4553259642    -0.0093087716     8.0296133221
Ni     -4.8414096220    -0.0033689689     8.0026676914
Ni      3.6620347193     2.1414702411     7.9992560082
Ni     -3.6524253339     2.1066540799     8.1333513902
Ni      1.2285212828    -2.1250175209     8.0238939356
Ni     -6.0921527710    -2.1579104527     7.9914492751
Ni      4.8967358953    -0.0425581869     8.1298139480
Ni     -2.4125672980    -0.0296869909     7.9852494427
Ni      6.1656210974     2.1731473633     8.0794544360
Ni     -1.1741199208     2.1072298087     7.9837339600
Ni      3.6805855318    -2.1241042493     7.9966095213
Ni     -3.6445840778    -2.1488870097     8.0153327774
O       6.1316779991     0.7569619098     9.4409675260
H      11.2321181717     3.1624778610    10.4505595980
H       6.8904879247     1.8149654660    11.0741134974
H       1.6002928446    -5.3339931640    11.3149439907
C       6.2744406896     0.9259480702    10.8456210768
O       7.5169978499    -1.2032547922    11.1698402925
H      -6.0432033758    -0.7594545180     8.9108617208
C       6.9738968469    -0.2170032808    11.5471031253
H       8.0443594555     4.4215901560    11.7149018908
C       8.2115696007     4.3177718130    12.7955592976
H       3.6609714216    -1.6472201695    13.3343982236
H       9.1111053883     4.8979458931    13.0658916918
O       8.3762884336     2.9187835250    13.0503325854
H       8.5757167419     2.7991229495    13.9934083376
O      -3.6135821808     2.2092821339    10.2386359448
H      -2.7460466161     1.8007471953    10.4322373167
88
Step 5 | NEB Image 5 | Cartesian Angstrom
Ni      1.2285271350     0.7092904720     2.0000000000
Ni     -6.1433728650     0.7092904720     2.0000000000
Ni      2.4570542700     2.8371618880     2.0000000000
Ni     -4.9148457300     2.8371618880     2.0000000000
Ni      0.0000000000    -1.4185809440     2.0000000000
Ni     -7.3719000000    -1.4185809440     2.0000000000
Ni      3.6855814050     0.7092904720     2.0000000000
Ni     -3.6863185950     0.7092904720     2.0000000000
Ni      4.9141085400     2.8371618880     2.0000000000
Ni     -2.4577914600     2.8371618880     2.0000000000
Ni      2.4570542700    -1.4185809440     2.0000000000
Ni     -4.9148457300    -1.4185809440     2.0000000000
Ni      6.1433728650     0.7092904720     2.0000000000
Ni     -1.2285271350     0.7092904720     2.0000000000
Ni      7.3719000000     2.8371618880     2.0000000000
Ni      0.0000000000     2.8371618880     2.0000000000
Ni      4.9148457300    -1.4185809440     2.0000000000
Ni     -2.4570542700    -1.4185809440     2.0000000000
Ni      0.0464326620    -0.0306468460     3.9976675890
Ni     -7.3257303870    -0.0255862300     3.9933782980
Ni      1.2739848450     2.0960038070     3.9979157030
Ni     -6.1026021170     2.1049500680     4.0019149180
Ni     -1.1827110610    -2.1546561820     3.9989053170
Ni     -8.5597082650    -2.1592869340     3.9982394010
Ni      2.5024778430    -0.0256743600     4.0031952220
Ni     -4.8641413240    -0.0227350050     3.9956475690
Ni      3.7346756480     2.0985190290     4.0083618800
Ni     -3.6458198020     2.0991473590     4.0056686860
Ni      1.2703768650    -2.1597674920     4.0015811390
Ni     -6.0933336510    -2.1603781540     3.9902680500
Ni      4.9590538200    -0.0289845540     4.0074783820
Ni     -2.4167678920    -0.0248088220     4.0022401470
Ni      6.1885777810     2.1026461420     4.0098077600
Ni     -1.1844811720     2.0985803670     3.9964394390
Ni      3.7245308300    -2.1560713310     3.9888953010
Ni     -3.6351397940    -2.1574140910     3.9933365850
Ni      1.2278611130     0.7073057200     6.0134419810
Ni     -6.1428898530     0.6957346210     6.0102358510
Ni      2.4563605190     2.8356121920     5.9987058000
Ni     -4.8924583120     2.8187736320     6.0264580820
Ni      0.0002252210    -1.4241376010     6.0155868270
Ni     -7.3667991100    -1.4101212980     5.9895528060
Ni      3.6921281460     0.7008202940     6.0360645010
Ni     -3.6779272240     0.7256007260     6.0512861550
Ni      4.9267336850     2.8309168990     6.0432780270
Ni     -2.4664659500     2.8157315660     6.0151173370
Ni      2.4509011280    -1.4197685090     6.0062316800
Ni     -4.8985683740    -1.4191884620     5.9881596610
Ni      6.1372839650     0.7115480370     6.0073921100
Ni     -1.2256557510     0.7019370040     6.0032560690
Ni      7.3730564330     2.8242126570     6.0269074010
Ni     -0.0034566730     2.8405670140     6.0010880700
Ni      4.9162369820    -1.4189308570     6.0083232610
Ni     -2.4596272260    -1.4182314770     6.0084483810
Ni      0.0277268390    -0.0168450280     8.0180888710
Ni     -7.3091221710    -0.0327920680     8.0371701400
Ni      1.2611452740     2.1078740620     8.0062525300
Ni      8.6667549770     2.1138793650     7.9801313330
Ni     -1.1942402360    -2.1496555940     8.0109921590
Ni     -8.5668484660    -2.1735761150     7.9430911750
Ni      2.4712577410    -0.0190631580     8.0243063390
Ni     -4.8670711400    -0.0431110720     7.9967287920
Ni      3.6750137580     2.1321536040     7.9940007810
Ni     -3.6274773380     2.0999917070     8.2089215290
Ni      1.2517815200    -2.1329879940     8.0267060850
Ni     -6.0785108950    -2.1534189890     7.9361595560
Ni      4.9123316280    -0.0512787390     8.0829089500
Ni     -2.4007725170    -0.0429334740     8.0081832520
Ni      6.1908597070     2.1505617180     8.1094472440
Ni     -1.1654360560     2.0989982700     7.9806126390
Ni      3.7077660390    -2.1419918620     7.9975968800
Ni     -3.6463297530    -2.1524111230     8.0158878220
O       6.1707187590     0.6663307040     9.3727337630
H      11.2555922500     3.1706166680    10.5266232770
H       7.1149227860     1.0824741990    11.1550798120
H       1.6297081310    -5.3793991980    11.2177269450
C       6.2238707100     0.5353136510    10.8108846880
O       7.5718415080    -1.5277099790    10.9241884940
H      -6.8828388710    -1.2337967880    10.0124245870
C       6.2850334910    -0.9302036460    11.2182633770
H       9.1791669060     4.9099545600    10.6626973770
C       9.7467965870     5.2786349730    12.7161077750
H       5.0959169980    -0.6608682970    12.9933131080
H      10.5457770910     5.8077082870    13.2666670860
O       9.6783811350     3.9068622240    13.1006105230
H      10.5447055700     3.5019751520    12.9206205020
O      -3.5153567700     2.2005093110    10.2599052050
H      -2.6227032800     1.8412518110    10.4321503050
