88
Step 1 | NEB Image 1 | Cartesian Angstrom
Ni      1.2285271350     0.7092904720     2.0000000000
Ni     -6.1433728650     0.7092904720     2.0000000000
Ni      2.4570542700     2.8371618880     2.0000000000
Ni     -4.9148457300     2.8371618880     2.0000000000
Ni      0.0000000000    -1.4185809440     2.0000000000
Ni     -7.3719000000    -1.4185809440     2.0000000000
Ni      3.6855814050     0.7092904720     2.0000000000
Ni     -3.6863185950     0.7092904720     2.0000000000
Ni      4.9141085400     2.8371618880     2.0000000000
Ni     -2.4577914600     2.8371618880     2.0000000000
Ni      2.4570542700    -1.4185809440     2.0000000000
Ni     -4.9148457300    -1.4185809440     2.0000000000
Ni      6.1433728650     0.7092904720     2.0000000000
Ni     -1.2285271350     0.7092904720     2.0000000000
Ni      7.3719000000     2.8371618880     2.0000000000
Ni      0.0000000000     2.8371618880     2.0000000000
Ni      4.9148457300    -1.4185809440     2.0000000000
Ni     -2.4570542700    -1.4185809440     2.0000000000
Ni      0.0345187234    -0.0219895959     3.9906686506
Ni     -7.3332872529    -0.0205271350     3.9970929970
Ni      1.2574298371     2.1090479016     3.9981086770
Ni     -6.1061214153     2.1042281316     4.0017605185
Ni     -1.1958375155    -2.1495425789     3.9888614873
Ni     -8.5615731291    -2.1597422030     3.9935633301
Ni      2.4909200515    -0.0209290578     3.9889124626
Ni     -4.8775455868    -0.0288695998     4.0155932973
Ni      3.7235299523     2.1102350339     3.9932622384
Ni     -3.6483031855     2.1055811522     4.0174271749
Ni      1.2597529797    -2.1544756242     3.9969618463
Ni     -6.1074652262    -2.1506208434     4.0019689283
Ni      4.9550771908    -0.0234645643     3.9935565644
Ni     -2.4269867653    -0.0199772708     3.9982338911
Ni      6.1741097051     2.1083418571     4.0046158614
Ni     -1.1996729370     2.1123145435     4.0000024585
Ni      3.7197951829    -2.1539414756     3.9921760547
Ni     -3.6589301935    -2.1514998115     3.9994955107
Ni      1.2136841869     0.7163863979     5.9963073096
Ni     -6.1473437226     0.7096773911     6.0218176054
Ni      2.4453295017     2.8415084524     5.9971730433
Ni     -4.9231971923     2.8360653972     6.0327934449
Ni     -0.0226348385    -1.4110330430     6.0020236029
Ni     -7.3908667378    -1.4145678834     5.9981301391
Ni      3.6669417345     0.7157583701     5.9869138182
Ni     -3.7108784987     0.7190435175     6.0328517480
Ni      4.9057976617     2.8388244163     6.0411982092
Ni     -2.4814248435     2.8298458387     6.0521186228
Ni      2.4355069788    -1.4085502466     5.9888639843
Ni     -4.9252928465    -1.4026264080     6.0548563839
Ni      6.1341025786     0.7315238745     6.0218817427
Ni     -1.2402669783     0.7221835538     5.9926808095
Ni      7.3408175190     2.8291688103     6.0248565089
Ni     -0.0225097209     2.8466795557     6.0142376281
Ni      4.9088271165    -1.4251457534     5.9900387779
Ni     -2.4790699264    -1.4211153466     5.9913638200
Ni      0.0337137405    -0.0099863123     8.0038502320
Ni     -7.3606520147    -0.0334139511     7.9835827732
Ni      1.2525382386     2.1076756093     8.0014158677
Ni      8.5596645315     2.1514300915     7.9633346422
Ni     -1.1983605499    -2.1613845897     8.0018652759
Ni     -8.5927669864    -2.1264268734     8.0165035337
Ni      2.4708324722    -0.0109047600     8.0065027389
Ni     -4.8995212632    -0.0584838282     8.1493062015
Ni      3.6789469906     2.1047412898     7.9888648741
Ni     -3.6333178494     2.1270714900     8.1546283531
Ni      1.2394335961    -2.1164979174     7.9892760222
Ni     -6.1305722611    -2.1461024656     7.9989212299
Ni      4.9150163145    -0.0283439881     7.9490640309
Ni     -2.3653823178    -0.0601929248     7.9425724452
Ni      6.1349712758     2.1197335004     8.1598232492
Ni     -1.1861990586     2.1067384809     8.0263285947
Ni      3.6953023012    -2.1157302873     7.9694462946
Ni     -3.6468332403    -2.1628724713     8.0264725749
O       5.9486020032     1.9536774433    10.1568983318
H       6.2023593986     1.0444615420    10.4395396161
H       7.6485803319     2.9982816350    10.7947394844
H       2.3841835216    -2.5662265370    10.9995346326
C       6.5922936452     2.8570131008    11.0871865803
O       6.8828593053     0.8516013498    12.3925733789
H      -6.8879959571     0.8254517200    12.3248078773
C       6.4620997723     2.2299052156    12.4710261049
H       5.3979785171     2.1706601767    12.7461907790
C       7.1981974178     3.0342299686    13.5247288963
H       3.2389656514    -2.2859498111    13.4051121917
H       8.2901195875     2.9478942375    13.3576433856
O       6.8260697992     2.5426661176    14.8120038538
H       7.2522042786     3.0948827032    15.4870039972
O      -4.3927237137     1.0982075682     9.5865509607
H      -3.6717371060     0.6667680985    10.0888232085
88
Step 2 | NEB Image 2 | Cartesian Angstrom
Ni      1.2285271350     0.7092904720     2.0000000000
Ni     -6.1433728650     0.7092904720     2.0000000000
Ni      2.4570542700     2.8371618880     2.0000000000
Ni     -4.9148457300     2.8371618880     2.0000000000
Ni      0.0000000000    -1.4185809440     2.0000000000
Ni     -7.3719000000    -1.4185809440     2.0000000000
Ni      3.6855814050     0.7092904720     2.0000000000
Ni     -3.6863185950     0.7092904720     2.0000000000
Ni      4.9141085400     2.8371618880     2.0000000000
Ni     -2.4577914600     2.8371618880     2.0000000000
Ni      2.4570542700    -1.4185809440     2.0000000000
Ni     -4.9148457300    -1.4185809440     2.0000000000
Ni      6.1433728650     0.7092904720     2.0000000000
Ni     -1.2285271350     0.7092904720     2.0000000000
Ni      7.3719000000     2.8371618880     2.0000000000
Ni      0.0000000000     2.8371618880     2.0000000000
Ni      4.9148457300    -1.4185809440     2.0000000000
Ni     -2.4570542700    -1.4185809440     2.0000000000
Ni      0.0382632360    -0.0147063683     3.9921935324
Ni     -7.3203246370    -0.0063464211     4.0047073432
Ni      1.2611872688     2.1181389147     3.9972963498
Ni     -6.1045190539     2.1161842623     4.0305442852
Ni     -1.1924213832    -2.1397858383     3.9890456792
Ni     -8.5558635210    -2.1501284115     4.0008856404
Ni      2.4964995930    -0.0173515512     3.9924320981
Ni     -4.8792451106    -0.0092716375     4.0253049871
Ni      3.7290167929     2.1158251731     3.9963424953
Ni     -3.6447042932     2.1201826709     4.0188828716
Ni      1.2637484367    -2.1466297913     3.9989631829
Ni     -6.1018316032    -2.1365489787     4.0038811711
Ni      4.9638017124    -0.0178267191     3.9959658411
Ni     -2.4255880530    -0.0071604316     3.9979766802
Ni      6.1825955384     2.1172691988     4.0060761069
Ni     -1.1971894053     2.1231618976     3.9982082773
Ni      3.7257419368    -2.1540785959     3.9995646777
Ni     -3.6576279913    -2.1340055876     4.0006450371
Ni      1.2200519738     0.7294946826     5.9945435988
Ni     -6.1193129656     0.7509401917     6.0905761348
Ni      2.4493398022     2.8571830410     5.9908870839
Ni     -4.9209358535     2.8426843963     6.0577760377
Ni     -0.0124489444    -1.3997811795     6.0058439718
Ni     -7.3770291770    -1.3929353426     6.0047937271
Ni      3.6731380093     0.7253600654     5.9878718035
Ni     -3.6958757022     0.7393895661     6.0399447706
Ni      4.9171167076     2.8479452032     6.0430337785
Ni     -2.4714665887     2.8597814677     6.0501594715
Ni      2.4431559350    -1.4051756759     5.9991821198
Ni     -4.9138195378    -1.3675949602     6.0610566582
Ni      6.1463253751     0.7337653444     6.0145913583
Ni     -1.2311712860     0.7395780491     5.9908445422
Ni      7.3540800526     2.8313224664     6.0720071095
Ni     -0.0147966591     2.8701108692     6.0051552232
Ni      4.9097283530    -1.4141499220     5.9939837340
Ni     -2.4667675392    -1.4021805045     5.9911112839
Ni      0.0426076136     0.0031284873     8.0026823367
Ni     -7.3209563050    -0.0166604001     7.9865112506
Ni      1.2576644869     2.1272830757     7.9961961497
Ni      8.5653230142     2.2268530291     8.1537402843
Ni     -1.1908398958    -2.1426679981     8.0033210143
Ni     -8.5608628501    -2.0842006361     8.0015498858
Ni      2.4634548674     0.0093986451     8.0039581523
Ni     -4.8196355753    -0.0072672480     8.2368089270
Ni      3.6685148167     2.1284394956     7.9817783561
Ni     -3.5839021348     2.1646503792     8.1338794349
Ni      1.2412547241    -2.1142681340     8.0141289614
Ni     -6.0866399627    -2.1035275926     8.0083494216
Ni      4.9048618236    -0.0108615935     7.9597327969
Ni     -2.3474580562    -0.0395428380     7.9491401970
Ni      6.1062163262     2.1113968425     8.1409686918
Ni     -1.1618068168     2.1328082289     8.0118402477
Ni      3.6729053522    -2.0728128510     7.9891156386
Ni     -3.6316393846    -2.1372472998     8.0263739364
O       6.1205684167     1.5016806234    10.0472305683
H       9.0418274038     2.6477952892     9.6583198264
H       8.2673152000     2.2439489116     9.7409748373
H       1.5826132354    -3.3696186104    11.0926773925
C       5.9609003808     2.1633197112    11.0895963663
O       7.3641613058     0.5520628588    12.1761325752
H      -7.4871653923     0.2542972355    11.2415451828
C       6.6757020062     1.7780716218    12.3417298099
H       5.8943684774     1.7265993053    13.1305970500
C       7.5389276730     2.9568616133    12.9382877122
H       3.4091135426    -2.4363560193    12.7153255761
H       8.5364607755     2.9117180142    12.4811562471
O       7.5933680472     2.7770136087    14.3595082780
H       8.2437752132     3.3975638779    14.7348000537
O      -4.0782843578     1.1385043458     9.6616010148
H      -3.2798597683     0.8620646333    10.1552759278
88
Step 3 | NEB Image 3 | Cartesian Angstrom
Ni      1.2285271350     0.7092904720     2.0000000000
Ni     -6.1433728650     0.7092904720     2.0000000000
Ni      2.4570542700     2.8371618880     2.0000000000
Ni     -4.9148457300     2.8371618880     2.0000000000
Ni      0.0000000000    -1.4185809440     2.0000000000
Ni     -7.3719000000    -1.4185809440     2.0000000000
Ni      3.6855814050     0.7092904720     2.0000000000
Ni     -3.6863185950     0.7092904720     2.0000000000
Ni      4.9141085400     2.8371618880     2.0000000000
Ni     -2.4577914600     2.8371618880     2.0000000000
Ni      2.4570542700    -1.4185809440     2.0000000000
Ni     -4.9148457300    -1.4185809440     2.0000000000
Ni      6.1433728650     0.7092904720     2.0000000000
Ni     -1.2285271350     0.7092904720     2.0000000000
Ni      7.3719000000     2.8371618880     2.0000000000
Ni      0.0000000000     2.8371618880     2.0000000000
Ni      4.9148457300    -1.4185809440     2.0000000000
Ni     -2.4570542700    -1.4185809440     2.0000000000
Ni      0.0302596888    -0.0094108451     3.9965656332
Ni     -7.3413631138    -0.0141176451     3.9999870800
Ni      1.2525485141     2.1146478602     3.9967219510
Ni     -6.1053768860     2.1181525517     3.9974081705
Ni     -1.1974769314    -2.1381429458     3.9948767820
Ni     -8.5713529034    -2.1353223186     4.0084463176
Ni      2.4899947939    -0.0051357828     4.0014386933
Ni     -4.8814257547    -0.0142454670     3.9976853918
Ni      3.7153426704     2.1116783700     3.9983585703
Ni     -3.6552376094     2.1203495626     4.0104169992
Ni      1.2610621122    -2.1388001852     3.9934396257
Ni     -6.1160397680    -2.1447123797     4.0045939283
Ni      4.9458811144    -0.0102485619     4.0109148831
Ni     -2.4292894062    -0.0108551984     3.9966327115
Ni      6.1776493517     2.1152340155     3.9997755533
Ni     -1.2058751732     2.1205342771     4.0024283338
Ni      3.7191637795    -2.1314582116     3.9857698885
Ni     -3.6553762338    -2.1440417294     3.9945239167
Ni      1.2054833413     0.7332880569     6.0134485257
Ni     -6.1780905266     0.7244626609     6.0090484782
Ni      2.4252202915     2.8606492020     5.9904917603
Ni     -4.9144191864     2.8602468260     6.0266555685
Ni     -0.0309654794    -1.3903681519     6.0038482609
Ni     -7.3834969846    -1.3765974136     6.0348129793
Ni      3.6755964772     0.7263243527     6.0432686601
Ni     -3.7114990964     0.7485423828     6.0247478417
Ni      4.8857385497     2.8683377679     5.9996796174
Ni     -2.4977275333     2.8501162286     6.0606815507
Ni      2.4287704579    -1.3879611019     6.0008296068
Ni     -4.9330914421    -1.4065866184     6.0045641207
Ni      6.1190539341     0.7302996638     6.0141253691
Ni     -1.2545536632     0.7359288254     6.0022200863
Ni      7.3560646366     2.8721464553     5.9846944361
Ni     -0.0325975096     2.8598491408     6.0116620064
Ni      4.9020460294    -1.3788450278     6.0322167758
Ni     -2.4929935753    -1.3958195064     6.0013404430
Ni     -0.0088903636     0.0192115051     8.0106356177
Ni     -7.3527909934     0.0057759889     8.1290729850
Ni      1.2268249839     2.1394447139     8.0103871623
Ni      8.6111389731     2.1614016936     7.9345812572
Ni     -1.2330737471    -2.1139661432     7.9979915062
Ni     -8.5919248759    -2.1280754933     7.9961603561
Ni      2.4394926395     0.0179884510     8.0254737726
Ni     -4.9068192763    -0.0153623555     7.9731533527
Ni      3.6376004100     2.1799172519     7.9737106839
Ni     -3.6797041267     2.1159415170     8.1699196977
Ni      1.2103244158    -2.0876408475     8.0065451864
Ni     -6.1329463302    -2.1106790700     8.0236508023
Ni      4.8790811504    -0.0079907694     8.1450908848
Ni     -2.4377235925    -0.0101001267     7.9813360777
Ni      6.1517507561     2.2172877450     7.9837531745
Ni     -1.2088197127     2.1320943064     8.0173529277
Ni      3.6793956521    -2.0877753047     7.9921617009
Ni     -3.6849375085    -2.1254774218     8.0205685735
O       6.0793156585     0.9296932056     9.3780164392
H      10.5102320340     2.8171719690    10.5529513003
H       6.7701176403     2.2894016091    10.7858152792
H       1.3995230156    -4.6147426611    11.0045549214
C       6.0921276032     1.4128280809    10.7354280806
O       7.1279129274    -0.6276537877    11.3265287710
H      -7.5761509703    -0.7233370305    10.2987176569
C       6.5905763034     0.4596020410    11.7675119187
H       6.4629792387     3.2344689933    13.2031231582
C       7.4503319297     3.5969368649    13.5158385789
H       3.8158676189    -1.6962279827    13.3551623976
H       8.2093963947     3.1094166913    12.8751885210
O       7.5903149738     3.2414893905    14.8908888892
H       8.3951477658     3.6590916858    15.2370705108
O      -3.9410491304     1.9332393517    10.2555279044
H      -3.0535844586     1.7894052578    10.6370078939
88
Step 4 | NEB Image 4 | Cartesian Angstrom
Ni      1.2285271350     0.7092904720     2.0000000000
Ni     -6.1433728650     0.7092904720     2.0000000000
Ni      2.4570542700     2.8371618880     2.0000000000
Ni     -4.9148457300     2.8371618880     2.0000000000
Ni      0.0000000000    -1.4185809440     2.0000000000
Ni     -7.3719000000    -1.4185809440     2.0000000000
Ni      3.6855814050     0.7092904720     2.0000000000
Ni     -3.6863185950     0.7092904720     2.0000000000
Ni      4.9141085400     2.8371618880     2.0000000000
Ni     -2.4577914600     2.8371618880     2.0000000000
Ni      2.4570542700    -1.4185809440     2.0000000000
Ni     -4.9148457300    -1.4185809440     2.0000000000
Ni      6.1433728650     0.7092904720     2.0000000000
Ni     -1.2285271350     0.7092904720     2.0000000000
Ni      7.3719000000     2.8371618880     2.0000000000
Ni      0.0000000000     2.8371618880     2.0000000000
Ni      4.9148457300    -1.4185809440     2.0000000000
Ni     -2.4570542700    -1.4185809440     2.0000000000
Ni      0.0418639815    -0.0196033148     3.9954182974
Ni     -7.3375337199    -0.0154643138     4.0010133174
Ni      1.2676549483     2.1079038416     3.9987732741
Ni     -6.1073906244     2.1097999002     4.0010978454
Ni     -1.1864401009    -2.1457464649     3.9944028095
Ni     -8.5660976756    -2.1474012328     4.0020962466
Ni      2.5007212446    -0.0173927423     4.0042492414
Ni     -4.8740106496    -0.0203731205     3.9943725870
Ni      3.7294977623     2.1029176801     4.0076796721
Ni     -3.6565483336     2.1022187682     3.9951434311
Ni      1.2653044328    -2.1503624903     3.9997419473
Ni     -6.1071251501    -2.1543478596     3.9948720493
Ni      4.9517934764    -0.0198138900     4.0108045642
Ni     -2.4256570045    -0.0163661370     4.0025758884
Ni      6.1814040329     2.1114041843     4.0054559234
Ni     -1.1883937256     2.1073526276     3.9863590736
Ni      3.7227402425    -2.1471947880     3.9942524554
Ni     -3.6454408539    -2.1508817850     3.9913667625
Ni      1.2165630066     0.7213189893     6.0112827015
Ni     -6.1633988145     0.7069069688     6.0171605907
Ni      2.4438683088     2.8454956691     5.9952542762
Ni     -4.9000531654     2.8378311818     6.0226344558
Ni     -0.0159191574    -1.4074879747     6.0095432282
Ni     -7.3757128183    -1.3985970566     6.0038068827
Ni      3.6835316910     0.7129520868     6.0509813307
Ni     -3.7105395952     0.7247658805     6.0559382934
Ni      4.9090080289     2.8511947545     6.0324072588
Ni     -2.4735906672     2.8186053267     6.0051504408
Ni      2.4366451008    -1.4044140994     6.0041175819
Ni     -4.9145636994    -1.4133908475     5.9937377531
Ni      6.1234630662     0.7260466001     6.0227822528
Ni     -1.2426738008     0.7088561542     5.9949153801
Ni      7.3657208689     2.8435927712     6.0168872740
Ni     -0.0218997158     2.8497242479     6.0082962348
Ni      4.9057381811    -1.3951318615     6.0255574874
Ni     -2.4733162187    -1.4154480592     5.9993603104
Ni      0.0117662284    -0.0087737175     8.0150731372
Ni     -7.3727768429    -0.0257083139     8.0920996661
Ni      1.2480491802     2.1168356233     8.0108732135
Ni      8.6342757485     2.1357714035     7.9663165406
Ni     -1.2099676770    -2.1351136409     8.0110259369
Ni     -8.5988531254    -2.1652300954     7.9637655265
Ni      2.4497261029     0.0011690548     8.0277157156
Ni     -4.9063161599    -0.0489720048     8.0445920431
Ni      3.6633007109     2.1524182414     7.9964487288
Ni     -3.6674831736     2.0952794574     8.1489855454
Ni      1.2260584118    -2.1121340513     8.0227994112
Ni     -6.1089060054    -2.1761122258     7.9772797751
Ni      4.8870971186    -0.0310782784     8.1289503394
Ni     -2.4277872527    -0.0393714926     8.0002356255
Ni      6.1619259417     2.1761033511     8.0764709956
Ni     -1.1845455010     2.0935088685     7.9803746109
Ni      3.6787504529    -2.1153815790     7.9946709825
Ni     -3.6479207553    -2.1546963132     8.0172734927
O       6.1265499700     0.7674143405     9.4481026693
H      11.1946101603     3.1473009818    10.4578054952
H       6.8703070758     1.8601163494    11.0608091026
H       1.5971529869    -5.3139518564    11.3209149804
C       6.2714819168     0.9559579833    10.8507210592
O       7.5586368536    -1.1424428254    11.2365584354
H      -6.1878889625    -0.8295103978     8.9619700019
C       6.9897078194    -0.1574855137    11.5787460009
H       8.0216411332     4.3394439311    11.7556934306
C       8.2341614276     4.2971200333    12.8327127764
H       3.7118679091    -1.6101334486    13.3706673391
H       9.1567804268     4.8688849923    13.0342771317
O       8.3846143517     2.9129072757    13.1686492643
H       8.6253257003     2.8530066022    14.1078987509
O      -3.6418250230     2.1915922409    10.2557044036
H      -2.7684608701     1.7955985689    10.4502753694
88
Step 5 | NEB Image 5 | Cartesian Angstrom
Ni      1.2285271350     0.7092904720     2.0000000000
Ni     -6.1433728650     0.7092904720     2.0000000000
Ni      2.4570542700     2.8371618880     2.0000000000
Ni     -4.9148457300     2.8371618880     2.0000000000
Ni      0.0000000000    -1.4185809440     2.0000000000
Ni     -7.3719000000    -1.4185809440     2.0000000000
Ni      3.6855814050     0.7092904720     2.0000000000
Ni     -3.6863185950     0.7092904720     2.0000000000
Ni      4.9141085400     2.8371618880     2.0000000000
Ni     -2.4577914600     2.8371618880     2.0000000000
Ni      2.4570542700    -1.4185809440     2.0000000000
Ni     -4.9148457300    -1.4185809440     2.0000000000
Ni      6.1433728650     0.7092904720     2.0000000000
Ni     -1.2285271350     0.7092904720     2.0000000000
Ni      7.3719000000     2.8371618880     2.0000000000
Ni      0.0000000000     2.8371618880     2.0000000000
Ni      4.9148457300    -1.4185809440     2.0000000000
Ni     -2.4570542700    -1.4185809440     2.0000000000
Ni      0.0464326620    -0.0306468460     3.9976675890
Ni     -7.3257303870    -0.0255862300     3.9933782980
Ni      1.2739848450     2.0960038070     3.9979157030
Ni     -6.1026021170     2.1049500680     4.0019149180
Ni     -1.1827110610    -2.1546561820     3.9989053170
Ni     -8.5597082650    -2.1592869340     3.9982394010
Ni      2.5024778430    -0.0256743600     4.0031952220
Ni     -4.8641413240    -0.0227350050     3.9956475690
Ni      3.7346756480     2.0985190290     4.0083618800
Ni     -3.6458198020     2.0991473590     4.0056686860
Ni      1.2703768650    -2.1597674920     4.0015811390
Ni     -6.0933336510    -2.1603781540     3.9902680500
Ni      4.9590538200    -0.0289845540     4.0074783820
Ni     -2.4167678920    -0.0248088220     4.0022401470
Ni      6.1885777810     2.1026461420     4.0098077600
Ni     -1.1844811720     2.0985803670     3.9964394390
Ni      3.7245308300    -2.1560713310     3.9888953010
Ni     -3.6351397940    -2.1574140910     3.9933365850
Ni      1.2278611130     0.7073057200     6.0134419810
Ni     -6.1428898530     0.6957346210     6.0102358510
Ni      2.4563605190     2.8356121920     5.9987058000
Ni     -4.8924583120     2.8187736320     6.0264580820
Ni      0.0002252210    -1.4241376010     6.0155868270
Ni     -7.3667991100    -1.4101212980     5.9895528060
Ni      3.6921281460     0.7008202940     6.0360645010
Ni     -3.6779272240     0.7256007260     6.0512861550
Ni      4.9267336850     2.8309168990     6.0432780270
Ni     -2.4664659500     2.8157315660     6.0151173370
Ni      2.4509011280    -1.4197685090     6.0062316800
Ni     -4.8985683740    -1.4191884620     5.9881596610
Ni      6.1372839650     0.7115480370     6.0073921100
Ni     -1.2256557510     0.7019370040     6.0032560690
Ni      7.3730564330     2.8242126570     6.0269074010
Ni     -0.0034566730     2.8405670140     6.0010880700
Ni      4.9162369820    -1.4189308570     6.0083232610
Ni     -2.4596272260    -1.4182314770     6.0084483810
Ni      0.0277268390    -0.0168450280     8.0180888710
Ni     -7.3091221710    -0.0327920680     8.0371701400
Ni      1.2611452740     2.1078740620     8.0062525300
Ni      8.6667549770     2.1138793650     7.9801313330
Ni     -1.1942402360    -2.1496555940     8.0109921590
Ni     -8.5668484660    -2.1735761150     7.9430911750
Ni      2.4712577410    -0.0190631580     8.0243063390
Ni     -4.8670711400    -0.0431110720     7.9967287920
Ni      3.6750137580     2.1321536040     7.9940007810
Ni     -3.6274773380     2.0999917070     8.2089215290
Ni      1.2517815200    -2.1329879940     8.0267060850
Ni     -6.0785108950    -2.1534189890     7.9361595560
Ni      4.9123316280    -0.0512787390     8.0829089500
Ni     -2.4007725170    -0.0429334740     8.0081832520
Ni      6.1908597070     2.1505617180     8.1094472440
Ni     -1.1654360560     2.0989982700     7.9806126390
Ni      3.7077660390    -2.1419918620     7.9975968800
Ni     -3.6463297530    -2.1524111230     8.0158878220
O       6.1707187590     0.6663307040     9.3727337630
H      11.2555922500     3.1706166680    10.5266232770
H       7.1149227860     1.0824741990    11.1550798120
H       1.6297081310    -5.3793991980    11.2177269450
C       6.2238707100     0.5353136510    10.8108846880
O       7.5718415080    -1.5277099790    10.9241884940
H      -6.8828388710    -1.2337967880    10.0124245870
C       6.2850334910    -0.9302036460    11.2182633770
H       9.1791669060     4.9099545600    10.6626973770
C       9.7467965870     5.2786349730    12.7161077750
H       5.0959169980    -0.6608682970    12.9933131080
H      10.5457770910     5.8077082870    13.2666670860
O       9.6783811350     3.9068622240    13.1006105230
H      10.5447055700     3.5019751520    12.9206205020
O      -3.5153567700     2.2005093110    10.2599052050
H      -2.6227032800     1.8412518110    10.4321503050
