88
Step 1 | NEB Image 1 | Cartesian Angstrom
Ni      1.2285271350     0.7092904720     2.0000000000
Ni     -6.1433728650     0.7092904720     2.0000000000
Ni      2.4570542700     2.8371618880     2.0000000000
Ni     -4.9148457300     2.8371618880     2.0000000000
Ni      0.0000000000    -1.4185809440     2.0000000000
Ni     -7.3719000000    -1.4185809440     2.0000000000
Ni      3.6855814050     0.7092904720     2.0000000000
Ni     -3.6863185950     0.7092904720     2.0000000000
Ni      4.9141085400     2.8371618880     2.0000000000
Ni     -2.4577914600     2.8371618880     2.0000000000
Ni      2.4570542700    -1.4185809440     2.0000000000
Ni     -4.9148457300    -1.4185809440     2.0000000000
Ni      6.1433728650     0.7092904720     2.0000000000
Ni     -1.2285271350     0.7092904720     2.0000000000
Ni      7.3719000000     2.8371618880     2.0000000000
Ni      0.0000000000     2.8371618880     2.0000000000
Ni      4.9148457300    -1.4185809440     2.0000000000
Ni     -2.4570542700    -1.4185809440     2.0000000000
Ni      0.0345187234    -0.0219895959     3.9906686506
Ni     -7.3332872529    -0.0205271350     3.9970929970
Ni      1.2574298371     2.1090479016     3.9981086770
Ni     -6.1061214153     2.1042281316     4.0017605185
Ni     -1.1958375155    -2.1495425789     3.9888614873
Ni     -8.5615731291    -2.1597422030     3.9935633301
Ni      2.4909200515    -0.0209290578     3.9889124626
Ni     -4.8775455868    -0.0288695998     4.0155932973
Ni      3.7235299523     2.1102350339     3.9932622384
Ni     -3.6483031855     2.1055811522     4.0174271749
Ni      1.2597529797    -2.1544756242     3.9969618463
Ni     -6.1074652262    -2.1506208434     4.0019689283
Ni      4.9550771908    -0.0234645643     3.9935565644
Ni     -2.4269867653    -0.0199772708     3.9982338911
Ni      6.1741097051     2.1083418571     4.0046158614
Ni     -1.1996729370     2.1123145435     4.0000024585
Ni      3.7197951829    -2.1539414756     3.9921760547
Ni     -3.6589301935    -2.1514998115     3.9994955107
Ni      1.2136841869     0.7163863979     5.9963073096
Ni     -6.1473437226     0.7096773911     6.0218176054
Ni      2.4453295017     2.8415084524     5.9971730433
Ni     -4.9231971923     2.8360653972     6.0327934449
Ni     -0.0226348385    -1.4110330430     6.0020236029
Ni     -7.3908667378    -1.4145678834     5.9981301391
Ni      3.6669417345     0.7157583701     5.9869138182
Ni     -3.7108784987     0.7190435175     6.0328517480
Ni      4.9057976617     2.8388244163     6.0411982092
Ni     -2.4814248435     2.8298458387     6.0521186228
Ni      2.4355069788    -1.4085502466     5.9888639843
Ni     -4.9252928465    -1.4026264080     6.0548563839
Ni      6.1341025786     0.7315238745     6.0218817427
Ni     -1.2402669783     0.7221835538     5.9926808095
Ni      7.3408175190     2.8291688103     6.0248565089
Ni     -0.0225097209     2.8466795557     6.0142376281
Ni      4.9088271165    -1.4251457534     5.9900387779
Ni     -2.4790699264    -1.4211153466     5.9913638200
Ni      0.0337137405    -0.0099863123     8.0038502320
Ni     -7.3606520147    -0.0334139511     7.9835827732
Ni      1.2525382386     2.1076756093     8.0014158677
Ni      8.5596645315     2.1514300915     7.9633346422
Ni     -1.1983605499    -2.1613845897     8.0018652759
Ni     -8.5927669864    -2.1264268734     8.0165035337
Ni      2.4708324722    -0.0109047600     8.0065027389
Ni     -4.8995212632    -0.0584838282     8.1493062015
Ni      3.6789469906     2.1047412898     7.9888648741
Ni     -3.6333178494     2.1270714900     8.1546283531
Ni      1.2394335961    -2.1164979174     7.9892760222
Ni     -6.1305722611    -2.1461024656     7.9989212299
Ni      4.9150163145    -0.0283439881     7.9490640309
Ni     -2.3653823178    -0.0601929248     7.9425724452
Ni      6.1349712758     2.1197335004     8.1598232492
Ni     -1.1861990586     2.1067384809     8.0263285947
Ni      3.6953023012    -2.1157302873     7.9694462946
Ni     -3.6468332403    -2.1628724713     8.0264725749
O       5.9486020032     1.9536774433    10.1568983318
H       6.2023593986     1.0444615420    10.4395396161
H       7.6485803319     2.9982816350    10.7947394844
H       2.3841835216    -2.5662265370    10.9995346326
C       6.5922936452     2.8570131008    11.0871865803
O       6.8828593053     0.8516013498    12.3925733789
H      -6.8879959571     0.8254517200    12.3248078773
C       6.4620997723     2.2299052156    12.4710261049
H       5.3979785171     2.1706601767    12.7461907790
C       7.1981974178     3.0342299686    13.5247288963
H       3.2389656514    -2.2859498111    13.4051121917
H       8.2901195875     2.9478942375    13.3576433856
O       6.8260697992     2.5426661176    14.8120038538
H       7.2522042786     3.0948827032    15.4870039972
O      -4.3927237137     1.0982075682     9.5865509607
H      -3.6717371060     0.6667680985    10.0888232085
88
Step 2 | NEB Image 2 | Cartesian Angstrom
Ni      1.2285271350     0.7092904720     2.0000000000
Ni     -6.1433728650     0.7092904720     2.0000000000
Ni      2.4570542700     2.8371618880     2.0000000000
Ni     -4.9148457300     2.8371618880     2.0000000000
Ni      0.0000000000    -1.4185809440     2.0000000000
Ni     -7.3719000000    -1.4185809440     2.0000000000
Ni      3.6855814050     0.7092904720     2.0000000000
Ni     -3.6863185950     0.7092904720     2.0000000000
Ni      4.9141085400     2.8371618880     2.0000000000
Ni     -2.4577914600     2.8371618880     2.0000000000
Ni      2.4570542700    -1.4185809440     2.0000000000
Ni     -4.9148457300    -1.4185809440     2.0000000000
Ni      6.1433728650     0.7092904720     2.0000000000
Ni     -1.2285271350     0.7092904720     2.0000000000
Ni      7.3719000000     2.8371618880     2.0000000000
Ni      0.0000000000     2.8371618880     2.0000000000
Ni      4.9148457300    -1.4185809440     2.0000000000
Ni     -2.4570542700    -1.4185809440     2.0000000000
Ni      0.0390426376    -0.0153718048     3.9925769997
Ni     -7.3185476549    -0.0073805690     4.0046613678
Ni      1.2618918568     2.1173661334     3.9974825559
Ni     -6.1040164862     2.1147530391     4.0293129163
Ni     -1.1912874720    -2.1406212440     3.9895001184
Ni     -8.5542662702    -2.1513720944     4.0004093446
Ni      2.4971397955    -0.0181204977     3.9919368183
Ni     -4.8776441781    -0.0101849425     4.0269640762
Ni      3.7290559108     2.1147552703     3.9954951456
Ni     -3.6428308166     2.1190894499     4.0188954158
Ni      1.2648829024    -2.1474825886     3.9986115713
Ni     -6.0993917954    -2.1372851637     4.0049942161
Ni      4.9650118143    -0.0188389984     3.9958633216
Ni     -2.4241273984    -0.0078509159     3.9992723540
Ni      6.1830890184     2.1160575455     4.0051594021
Ni     -1.1951629717     2.1223430628     3.9994321725
Ni      3.7264597111    -2.1549946593     3.9992101766
Ni     -3.6555609789    -2.1347726003     4.0018721444
Ni      1.2225423174     0.7282986697     5.9952280472
Ni     -6.1156466597     0.7502682228     6.0912814596
Ni      2.4514942851     2.8553830021     5.9915242492
Ni     -4.9187849805     2.8405368252     6.0545474140
Ni     -0.0099046519    -1.4013414409     6.0056367811
Ni     -7.3729181880    -1.3944444196     6.0037197884
Ni      3.6758591275     0.7235931034     5.9869213838
Ni     -3.6923100019     0.7375282732     6.0414794716
Ni      4.9186727926     2.8459182144     6.0406340780
Ni     -2.4680838824     2.8586668959     6.0504280177
Ni      2.4453323571    -1.4059745096     5.9985747920
Ni     -4.9097026974    -1.3675116853     6.0635923869
Ni      6.1500357256     0.7316124258     6.0133134687
Ni     -1.2286598628     0.7379054474     5.9931531194
Ni      7.3553568716     2.8306925993     6.0703076915
Ni     -0.0116759110     2.8691886255     6.0069634617
Ni      4.9121281303    -1.4161794018     5.9916246098
Ni     -2.4632683927    -1.4031855114     5.9934054576
Ni      0.0462078959     0.0003013654     8.0036135822
Ni     -7.3136029148    -0.0185807418     7.9849331293
Ni      1.2598055868     2.1263848555     7.9978327715
Ni      8.5698488152     2.2288980753     8.1439242921
Ni     -1.1869673507    -2.1442372575     8.0043000643
Ni     -8.5562537401    -2.0847824473     7.9924515599
Ni      2.4667317084     0.0079781263     8.0041929128
Ni     -4.8136065327    -0.0055275579     8.2400935049
Ni      3.6719256812     2.1266455256     7.9815449339
Ni     -3.5797822710     2.1657146305     8.1279659854
Ni      1.2457824978    -2.1178831032     8.0116107816
Ni     -6.0811232017    -2.1030756784     8.0093424846
Ni      4.9088259025    -0.0125694394     7.9561586195
Ni     -2.3445580613    -0.0399532845     7.9538995288
Ni      6.1119287650     2.1035867181     8.1358835980
Ni     -1.1580514566     2.1312903094     8.0129957896
Ni      3.6761068072    -2.0736602818     7.9885975548
Ni     -3.6277839796    -2.1372167007     8.0292936371
O       6.1219840190     1.5017032378    10.0570656002
H       9.0631916504     2.5191196248     9.7021606181
H       8.2176408165     2.3584433593     9.7307742298
H       1.6822936102    -3.2653361102    11.0175670554
C       6.0165762546     2.2332736330    11.0600140988
O       7.3862717832     0.6298590040    12.2048080764
H      -7.5017723826     0.2955830914    11.2895004338
C       6.7159234155     1.8675567837    12.3278977714
H       5.9067245038     1.8321168860    13.0910221360
C       7.5893453619     3.0192414335    12.9323103720
H       3.4452180584    -2.3753800791    12.7381315855
H       8.5880675282     3.0037885012    12.4701203325
O       7.6540038368     2.7851407045    14.3438784644
H       8.2728324021     3.4194493536    14.7456988432
O      -4.0936943551     1.1555352286     9.6651901177
H      -3.3060393998     0.8989063742    10.1851929764
88
Step 3 | NEB Image 3 | Cartesian Angstrom
Ni      1.2285271350     0.7092904720     2.0000000000
Ni     -6.1433728650     0.7092904720     2.0000000000
Ni      2.4570542700     2.8371618880     2.0000000000
Ni     -4.9148457300     2.8371618880     2.0000000000
Ni      0.0000000000    -1.4185809440     2.0000000000
Ni     -7.3719000000    -1.4185809440     2.0000000000
Ni      3.6855814050     0.7092904720     2.0000000000
Ni     -3.6863185950     0.7092904720     2.0000000000
Ni      4.9141085400     2.8371618880     2.0000000000
Ni     -2.4577914600     2.8371618880     2.0000000000
Ni      2.4570542700    -1.4185809440     2.0000000000
Ni     -4.9148457300    -1.4185809440     2.0000000000
Ni      6.1433728650     0.7092904720     2.0000000000
Ni     -1.2285271350     0.7092904720     2.0000000000
Ni      7.3719000000     2.8371618880     2.0000000000
Ni      0.0000000000     2.8371618880     2.0000000000
Ni      4.9148457300    -1.4185809440     2.0000000000
Ni     -2.4570542700    -1.4185809440     2.0000000000
Ni      0.0327477203    -0.0117244594     3.9965095510
Ni     -7.3376652082    -0.0179031576     3.9992378932
Ni      1.2544468380     2.1121958007     3.9966256773
Ni     -6.1016369506     2.1150668333     3.9968473058
Ni     -1.1952188303    -2.1406186240     3.9948840890
Ni     -8.5684545918    -2.1380882483     4.0089972384
Ni      2.4925076405    -0.0079523790     4.0014360110
Ni     -4.8779234957    -0.0171944193     3.9978511306
Ni      3.7175161088     2.1084473338     3.9975154170
Ni     -3.6522518942     2.1181007800     4.0108000667
Ni      1.2638656684    -2.1412343150     3.9927060126
Ni     -6.1135149827    -2.1478097792     4.0053703680
Ni      4.9485812661    -0.0138873088     4.0100886937
Ni     -2.4263629273    -0.0130840884     3.9965833537
Ni      6.1809822485     2.1119608057     3.9984533715
Ni     -1.2038006300     2.1184383287     4.0029629178
Ni      3.7224491794    -2.1340285188     3.9855155218
Ni     -3.6530874785    -2.1466016735     3.9946819182
Ni      1.2105807796     0.7287030240     6.0135445910
Ni     -6.1732989891     0.7205709756     6.0074170353
Ni      2.4287807226     2.8564598567     5.9898722350
Ni     -4.9096443716     2.8566162002     6.0267980272
Ni     -0.0270964139    -1.3944017664     6.0035586831
Ni     -7.3788925725    -1.3815091675     6.0359359981
Ni      3.6806427139     0.7214182973     6.0427971652
Ni     -3.7067960171     0.7444258876     6.0241120601
Ni      4.8891431459     2.8643463541     5.9960200381
Ni     -2.4936191552     2.8449424131     6.0640260250
Ni      2.4335146145    -1.3928563176     6.0007268247
Ni     -4.9295706478    -1.4111752156     6.0049370785
Ni      6.1234758383     0.7243946097     6.0105173956
Ni     -1.2494305482     0.7319663064     6.0028010228
Ni      7.3613888508     2.8686471394     5.9819154642
Ni     -0.0289856162     2.8553017133     6.0126293196
Ni      4.9070935391    -1.3826415842     6.0339325372
Ni     -2.4893790996    -1.3997100152     6.0013256510
Ni     -0.0024321901     0.0130091647     8.0109098304
Ni     -7.3485184307     0.0035604330     8.1222061349
Ni      1.2322286068     2.1335027208     8.0103755925
Ni      8.6157111732     2.1570299808     7.9320499057
Ni     -1.2280828194    -2.1195343840     7.9976614567
Ni     -8.5860770269    -2.1323412701     7.9994922884
Ni      2.4461607638     0.0115104115     8.0251101046
Ni     -4.9014407664    -0.0208034926     7.9712563151
Ni      3.6428600570     2.1749271217     7.9712789147
Ni     -3.6749214735     2.1111765169     8.1725473954
Ni      1.2160341016    -2.0940518620     8.0046557990
Ni     -6.1286588446    -2.1156079060     8.0257030976
Ni      4.8850746067    -0.0123982092     8.1493370471
Ni     -2.4319663217    -0.0151630303     7.9809257850
Ni      6.1562275223     2.2078890597     7.9715425624
Ni     -1.2039154508     2.1261363819     8.0209970143
Ni      3.6852076343    -2.0934909907     7.9917903487
Ni     -3.6797821874    -2.1310645713     8.0203346508
O       6.0836218089     0.9383779719     9.3841833483
H      10.4685955803     2.7686562388    10.5691947994
H       6.7802449062     2.3817140957    10.7036148268
H       1.4210140275    -4.5269226229    10.9834615443
C       6.1127057522     1.4953577343    10.7161778009
O       7.1372454717    -0.5206248371    11.3871311922
H      -7.6139462444    -0.6628631937    10.3711236087
C       6.6334860416     0.6001683503    11.7866497095
H       6.5229085724     3.3403266303    13.1112367281
C       7.5038417541     3.6700715907    13.4779107619
H       3.8683980106    -1.6122681894    13.4301517951
H       8.2784163692     3.2515258194    12.8058120163
O       7.6190736042     3.1767614316    14.8125017650
H       8.3831563852     3.6012099088    15.2343732922
O      -3.9791311563     1.8932534894    10.2511187847
H      -3.1138738791     1.7149245362    10.6668862557
88
Step 4 | NEB Image 4 | Cartesian Angstrom
Ni      1.2285271350     0.7092904720     2.0000000000
Ni     -6.1433728650     0.7092904720     2.0000000000
Ni      2.4570542700     2.8371618880     2.0000000000
Ni     -4.9148457300     2.8371618880     2.0000000000
Ni      0.0000000000    -1.4185809440     2.0000000000
Ni     -7.3719000000    -1.4185809440     2.0000000000
Ni      3.6855814050     0.7092904720     2.0000000000
Ni     -3.6863185950     0.7092904720     2.0000000000
Ni      4.9141085400     2.8371618880     2.0000000000
Ni     -2.4577914600     2.8371618880     2.0000000000
Ni      2.4570542700    -1.4185809440     2.0000000000
Ni     -4.9148457300    -1.4185809440     2.0000000000
Ni      6.1433728650     0.7092904720     2.0000000000
Ni     -1.2285271350     0.7092904720     2.0000000000
Ni      7.3719000000     2.8371618880     2.0000000000
Ni      0.0000000000     2.8371618880     2.0000000000
Ni      4.9148457300    -1.4185809440     2.0000000000
Ni     -2.4570542700    -1.4185809440     2.0000000000
Ni      0.0398802811    -0.0164187770     3.9971429013
Ni     -7.3376732732    -0.0098611624     3.9981229932
Ni      1.2657586201     2.1104647902     3.9994981927
Ni     -6.1077114881     2.1195855455     4.0014650021
Ni     -1.1882897222    -2.1417894340     3.9964708229
Ni     -8.5672235730    -2.1417241109     4.0038653681
Ni      2.4976385405    -0.0102432429     4.0038897326
Ni     -4.8765668127    -0.0112701034     3.9896295181
Ni      3.7269278903     2.1090160824     4.0088529271
Ni     -3.6561944680     2.1133657550     4.0000240110
Ni      1.2662099488    -2.1456470229     4.0007623465
Ni     -6.1052877207    -2.1473662705     3.9940040495
Ni      4.9522171963    -0.0151908992     4.0119518910
Ni     -2.4254746165    -0.0123055567     4.0001705230
Ni      6.1802774232     2.1165458567     4.0051423000
Ni     -1.1912412683     2.1121914833     3.9911138862
Ni      3.7215563073    -2.1379655822     3.9952415852
Ni     -3.6436095907    -2.1467144324     3.9895722084
Ni      1.2151291471     0.7301580694     6.0137712176
Ni     -6.1622671042     0.7206455890     6.0100857845
Ni      2.4406620066     2.8549497381     5.9979024939
Ni     -4.9001348466     2.8523917024     6.0301066387
Ni     -0.0151602056    -1.3995001326     6.0101217106
Ni     -7.3750360332    -1.3838127969     6.0007944133
Ni      3.6842778508     0.7203653687     6.0494487520
Ni     -3.7019280628     0.7416532749     6.0398994134
Ni      4.9073358747     2.8579448813     6.0334599371
Ni     -2.4752361351     2.8304346383     6.0098495296
Ni      2.4377180566    -1.3936994140     6.0058874475
Ni     -4.9103486266    -1.4000866893     5.9829844347
Ni      6.1256742240     0.7354996187     6.0222556683
Ni     -1.2401051857     0.7225144205     5.9961267036
Ni      7.3592094197     2.8570217197     6.0137071680
Ni     -0.0215625459     2.8606745151     6.0067256017
Ni      4.9113795368    -1.3889935505     6.0328842991
Ni     -2.4728390080    -1.4024591822     5.9998547840
Ni      0.0117195788     0.0067947283     8.0145697617
Ni     -7.3427036583     0.0040806130     8.0925477619
Ni      1.2450967399     2.1324997999     8.0124888545
Ni      8.6359128378     2.1554968375     7.9578268299
Ni     -1.2078040233    -2.1229647211     8.0066188659
Ni     -8.5780143239    -2.1426235917     7.9816337757
Ni      2.4509808135     0.0115549277     8.0291947037
Ni     -4.8763849190    -0.0159014091     7.9907601010
Ni      3.6607908459     2.1631104926     7.9963302498
Ni     -3.6645452450     2.1124331722     8.1652079266
Ni      1.2319524383    -2.1025622632     8.0222256320
Ni     -6.0768607726    -2.1578385836     7.9562010813
Ni      4.8903512831    -0.0139984799     8.1251328631
Ni     -2.4140958181    -0.0221506964     7.9941989293
Ni      6.1652625894     2.1870624247     8.0746373179
Ni     -1.1840562613     2.1130186376     7.9894890540
Ni      3.6881248460    -2.1045715278     7.9974251345
Ni     -3.6513585980    -2.1311190688     8.0133770347
O       6.1475021363     0.7773664006     9.4445633739
H      11.1180829909     3.1108235034    10.5087406994
H       6.8699705513     1.8613699208    11.0693403149
H       1.6351972947    -5.3817971886    11.3344417275
C       6.3061601221     0.9386517735    10.8487663746
O       7.6742414345    -1.1144368190    11.2091519259
H      -6.7139309412    -1.1437209218     9.0124233999
C       7.0759672333    -0.1524290771    11.5561598741
H       8.0742247999     4.3088955848    11.7676125256
C       8.3245947677     4.3073021851    12.8373967612
H       3.8252642627    -1.5772144028    13.3891224157
H       9.2544672306     4.8857672931    12.9815707976
O       8.4836032181     2.9366904156    13.2197485616
H       8.6847130163     2.9058214526    14.1696306363
O      -3.6689991066     2.1602421276    10.2737519234
H      -2.7837870222     1.7995611935    10.4813065453
88
Step 5 | NEB Image 5 | Cartesian Angstrom
Ni      1.2285271350     0.7092904720     2.0000000000
Ni     -6.1433728650     0.7092904720     2.0000000000
Ni      2.4570542700     2.8371618880     2.0000000000
Ni     -4.9148457300     2.8371618880     2.0000000000
Ni      0.0000000000    -1.4185809440     2.0000000000
Ni     -7.3719000000    -1.4185809440     2.0000000000
Ni      3.6855814050     0.7092904720     2.0000000000
Ni     -3.6863185950     0.7092904720     2.0000000000
Ni      4.9141085400     2.8371618880     2.0000000000
Ni     -2.4577914600     2.8371618880     2.0000000000
Ni      2.4570542700    -1.4185809440     2.0000000000
Ni     -4.9148457300    -1.4185809440     2.0000000000
Ni      6.1433728650     0.7092904720     2.0000000000
Ni     -1.2285271350     0.7092904720     2.0000000000
Ni      7.3719000000     2.8371618880     2.0000000000
Ni      0.0000000000     2.8371618880     2.0000000000
Ni      4.9148457300    -1.4185809440     2.0000000000
Ni     -2.4570542700    -1.4185809440     2.0000000000
Ni      0.0464326620    -0.0306468460     3.9976675890
Ni     -7.3257303870    -0.0255862300     3.9933782980
Ni      1.2739848450     2.0960038070     3.9979157030
Ni     -6.1026021170     2.1049500680     4.0019149180
Ni     -1.1827110610    -2.1546561820     3.9989053170
Ni     -8.5597082650    -2.1592869340     3.9982394010
Ni      2.5024778430    -0.0256743600     4.0031952220
Ni     -4.8641413240    -0.0227350050     3.9956475690
Ni      3.7346756480     2.0985190290     4.0083618800
Ni     -3.6458198020     2.0991473590     4.0056686860
Ni      1.2703768650    -2.1597674920     4.0015811390
Ni     -6.0933336510    -2.1603781540     3.9902680500
Ni      4.9590538200    -0.0289845540     4.0074783820
Ni     -2.4167678920    -0.0248088220     4.0022401470
Ni      6.1885777810     2.1026461420     4.0098077600
Ni     -1.1844811720     2.0985803670     3.9964394390
Ni      3.7245308300    -2.1560713310     3.9888953010
Ni     -3.6351397940    -2.1574140910     3.9933365850
Ni      1.2278611130     0.7073057200     6.0134419810
Ni     -6.1428898530     0.6957346210     6.0102358510
Ni      2.4563605190     2.8356121920     5.9987058000
Ni     -4.8924583120     2.8187736320     6.0264580820
Ni      0.0002252210    -1.4241376010     6.0155868270
Ni     -7.3667991100    -1.4101212980     5.9895528060
Ni      3.6921281460     0.7008202940     6.0360645010
Ni     -3.6779272240     0.7256007260     6.0512861550
Ni      4.9267336850     2.8309168990     6.0432780270
Ni     -2.4664659500     2.8157315660     6.0151173370
Ni      2.4509011280    -1.4197685090     6.0062316800
Ni     -4.8985683740    -1.4191884620     5.9881596610
Ni      6.1372839650     0.7115480370     6.0073921100
Ni     -1.2256557510     0.7019370040     6.0032560690
Ni      7.3730564330     2.8242126570     6.0269074010
Ni     -0.0034566730     2.8405670140     6.0010880700
Ni      4.9162369820    -1.4189308570     6.0083232610
Ni     -2.4596272260    -1.4182314770     6.0084483810
Ni      0.0277268390    -0.0168450280     8.0180888710
Ni     -7.3091221710    -0.0327920680     8.0371701400
Ni      1.2611452740     2.1078740620     8.0062525300
Ni      8.6667549770     2.1138793650     7.9801313330
Ni     -1.1942402360    -2.1496555940     8.0109921590
Ni     -8.5668484660    -2.1735761150     7.9430911750
Ni      2.4712577410    -0.0190631580     8.0243063390
Ni     -4.8670711400    -0.0431110720     7.9967287920
Ni      3.6750137580     2.1321536040     7.9940007810
Ni     -3.6274773380     2.0999917070     8.2089215290
Ni      1.2517815200    -2.1329879940     8.0267060850
Ni     -6.0785108950    -2.1534189890     7.9361595560
Ni      4.9123316280    -0.0512787390     8.0829089500
Ni     -2.4007725170    -0.0429334740     8.0081832520
Ni      6.1908597070     2.1505617180     8.1094472440
Ni     -1.1654360560     2.0989982700     7.9806126390
Ni      3.7077660390    -2.1419918620     7.9975968800
Ni     -3.6463297530    -2.1524111230     8.0158878220
O       6.1707187590     0.6663307040     9.3727337630
H      11.2555922500     3.1706166680    10.5266232770
H       7.1149227860     1.0824741990    11.1550798120
H       1.6297081310    -5.3793991980    11.2177269450
C       6.2238707100     0.5353136510    10.8108846880
O       7.5718415080    -1.5277099790    10.9241884940
H      -6.8828388710    -1.2337967880    10.0124245870
C       6.2850334910    -0.9302036460    11.2182633770
H       9.1791669060     4.9099545600    10.6626973770
C       9.7467965870     5.2786349730    12.7161077750
H       5.0959169980    -0.6608682970    12.9933131080
H      10.5457770910     5.8077082870    13.2666670860
O       9.6783811350     3.9068622240    13.1006105230
H      10.5447055700     3.5019751520    12.9206205020
O      -3.5153567700     2.2005093110    10.2599052050
H      -2.6227032800     1.8412518110    10.4321503050
