88
Step 1 | NEB Image 1 | Cartesian Angstrom
Ni      1.2285271350     0.7092904720     2.0000000000
Ni     -6.1433728650     0.7092904720     2.0000000000
Ni      2.4570542700     2.8371618880     2.0000000000
Ni     -4.9148457300     2.8371618880     2.0000000000
Ni      0.0000000000    -1.4185809440     2.0000000000
Ni     -7.3719000000    -1.4185809440     2.0000000000
Ni      3.6855814050     0.7092904720     2.0000000000
Ni     -3.6863185950     0.7092904720     2.0000000000
Ni      4.9141085400     2.8371618880     2.0000000000
Ni     -2.4577914600     2.8371618880     2.0000000000
Ni      2.4570542700    -1.4185809440     2.0000000000
Ni     -4.9148457300    -1.4185809440     2.0000000000
Ni      6.1433728650     0.7092904720     2.0000000000
Ni     -1.2285271350     0.7092904720     2.0000000000
Ni      7.3719000000     2.8371618880     2.0000000000
Ni      0.0000000000     2.8371618880     2.0000000000
Ni      4.9148457300    -1.4185809440     2.0000000000
Ni     -2.4570542700    -1.4185809440     2.0000000000
Ni      0.0345187234    -0.0219895959     3.9906686506
Ni     -7.3332872529    -0.0205271350     3.9970929970
Ni      1.2574298371     2.1090479016     3.9981086770
Ni     -6.1061214153     2.1042281316     4.0017605185
Ni     -1.1958375155    -2.1495425789     3.9888614873
Ni     -8.5615731291    -2.1597422030     3.9935633301
Ni      2.4909200515    -0.0209290578     3.9889124626
Ni     -4.8775455868    -0.0288695998     4.0155932973
Ni      3.7235299523     2.1102350339     3.9932622384
Ni     -3.6483031855     2.1055811522     4.0174271749
Ni      1.2597529797    -2.1544756242     3.9969618463
Ni     -6.1074652262    -2.1506208434     4.0019689283
Ni      4.9550771908    -0.0234645643     3.9935565644
Ni     -2.4269867653    -0.0199772708     3.9982338911
Ni      6.1741097051     2.1083418571     4.0046158614
Ni     -1.1996729370     2.1123145435     4.0000024585
Ni      3.7197951829    -2.1539414756     3.9921760547
Ni     -3.6589301935    -2.1514998115     3.9994955107
Ni      1.2136841869     0.7163863979     5.9963073096
Ni     -6.1473437226     0.7096773911     6.0218176054
Ni      2.4453295017     2.8415084524     5.9971730433
Ni     -4.9231971923     2.8360653972     6.0327934449
Ni     -0.0226348385    -1.4110330430     6.0020236029
Ni     -7.3908667378    -1.4145678834     5.9981301391
Ni      3.6669417345     0.7157583701     5.9869138182
Ni     -3.7108784987     0.7190435175     6.0328517480
Ni      4.9057976617     2.8388244163     6.0411982092
Ni     -2.4814248435     2.8298458387     6.0521186228
Ni      2.4355069788    -1.4085502466     5.9888639843
Ni     -4.9252928465    -1.4026264080     6.0548563839
Ni      6.1341025786     0.7315238745     6.0218817427
Ni     -1.2402669783     0.7221835538     5.9926808095
Ni      7.3408175190     2.8291688103     6.0248565089
Ni     -0.0225097209     2.8466795557     6.0142376281
Ni      4.9088271165    -1.4251457534     5.9900387779
Ni     -2.4790699264    -1.4211153466     5.9913638200
Ni      0.0337137405    -0.0099863123     8.0038502320
Ni     -7.3606520147    -0.0334139511     7.9835827732
Ni      1.2525382386     2.1076756093     8.0014158677
Ni      8.5596645315     2.1514300915     7.9633346422
Ni     -1.1983605499    -2.1613845897     8.0018652759
Ni     -8.5927669864    -2.1264268734     8.0165035337
Ni      2.4708324722    -0.0109047600     8.0065027389
Ni     -4.8995212632    -0.0584838282     8.1493062015
Ni      3.6789469906     2.1047412898     7.9888648741
Ni     -3.6333178494     2.1270714900     8.1546283531
Ni      1.2394335961    -2.1164979174     7.9892760222
Ni     -6.1305722611    -2.1461024656     7.9989212299
Ni      4.9150163145    -0.0283439881     7.9490640309
Ni     -2.3653823178    -0.0601929248     7.9425724452
Ni      6.1349712758     2.1197335004     8.1598232492
Ni     -1.1861990586     2.1067384809     8.0263285947
Ni      3.6953023012    -2.1157302873     7.9694462946
Ni     -3.6468332403    -2.1628724713     8.0264725749
O       5.9486020032     1.9536774433    10.1568983318
H       6.2023593986     1.0444615420    10.4395396161
H       7.6485803319     2.9982816350    10.7947394844
H       2.3841835216    -2.5662265370    10.9995346326
C       6.5922936452     2.8570131008    11.0871865803
O       6.8828593053     0.8516013498    12.3925733789
H      -6.8879959571     0.8254517200    12.3248078773
C       6.4620997723     2.2299052156    12.4710261049
H       5.3979785171     2.1706601767    12.7461907790
C       7.1981974178     3.0342299686    13.5247288963
H       3.2389656514    -2.2859498111    13.4051121917
H       8.2901195875     2.9478942375    13.3576433856
O       6.8260697992     2.5426661176    14.8120038538
H       7.2522042786     3.0948827032    15.4870039972
O      -4.3927237137     1.0982075682     9.5865509607
H      -3.6717371060     0.6667680985    10.0888232085
88
Step 2 | NEB Image 2 | Cartesian Angstrom
Ni      1.2285271350     0.7092904720     2.0000000000
Ni     -6.1433728650     0.7092904720     2.0000000000
Ni      2.4570542700     2.8371618880     2.0000000000
Ni     -4.9148457300     2.8371618880     2.0000000000
Ni      0.0000000000    -1.4185809440     2.0000000000
Ni     -7.3719000000    -1.4185809440     2.0000000000
Ni      3.6855814050     0.7092904720     2.0000000000
Ni     -3.6863185950     0.7092904720     2.0000000000
Ni      4.9141085400     2.8371618880     2.0000000000
Ni     -2.4577914600     2.8371618880     2.0000000000
Ni      2.4570542700    -1.4185809440     2.0000000000
Ni     -4.9148457300    -1.4185809440     2.0000000000
Ni      6.1433728650     0.7092904720     2.0000000000
Ni     -1.2285271350     0.7092904720     2.0000000000
Ni      7.3719000000     2.8371618880     2.0000000000
Ni      0.0000000000     2.8371618880     2.0000000000
Ni      4.9148457300    -1.4185809440     2.0000000000
Ni     -2.4570542700    -1.4185809440     2.0000000000
Ni      0.0389350155    -0.0159879605     3.9922472434
Ni     -7.3182331707    -0.0074779231     4.0049565311
Ni      1.2614478617     2.1172018222     3.9966537353
Ni     -6.1037150742     2.1154599475     4.0274511024
Ni     -1.1911779950    -2.1408275625     3.9890431980
Ni     -8.5540194121    -2.1509479627     4.0008173541
Ni      2.4968063677    -0.0175973493     3.9916199897
Ni     -4.8772682187    -0.0102659165     4.0268622584
Ni      3.7289187092     2.1147506596     3.9953816386
Ni     -3.6423607885     2.1188525103     4.0185248083
Ni      1.2651726166    -2.1477636954     3.9993360980
Ni     -6.0993420909    -2.1373192119     4.0056264423
Ni      4.9652721852    -0.0188415225     3.9963691604
Ni     -2.4243739226    -0.0081374058     3.9994958458
Ni      6.1827555025     2.1162824895     4.0047831796
Ni     -1.1952702839     2.1219782279     3.9988012020
Ni      3.7263551794    -2.1538747761     3.9994585894
Ni     -3.6555701606    -2.1349399873     4.0013356773
Ni      1.2216870543     0.7292822709     5.9946997824
Ni     -6.1163681152     0.7519193760     6.0896776786
Ni      2.4505772815     2.8557960131     5.9906098666
Ni     -4.9188348150     2.8410656238     6.0542272175
Ni     -0.0108063061    -1.4009184435     6.0055669137
Ni     -7.3733130769    -1.3942173220     6.0046226328
Ni      3.6753433129     0.7241428264     5.9869461386
Ni     -3.6935386847     0.7384336047     6.0421096806
Ni      4.9180563432     2.8467302564     6.0420156803
Ni     -2.4684455343     2.8585466891     6.0502879223
Ni      2.4441993552    -1.4044178890     5.9989299592
Ni     -4.9104990230    -1.3668335390     6.0635308995
Ni      6.1493025076     0.7329602758     6.0132558274
Ni     -1.2293708390     0.7382251702     5.9922557626
Ni      7.3553664460     2.8308945308     6.0689461293
Ni     -0.0126995624     2.8696711588     6.0056915620
Ni      4.9120912601    -1.4160898674     5.9927930137
Ni     -2.4642393289    -1.4029420484     5.9928250948
Ni      0.0452141547     0.0015465620     8.0028936001
Ni     -7.3144437385    -0.0177238179     7.9830341146
Ni      1.2578250827     2.1279574412     7.9969384566
Ni      8.5732029039     2.2263383075     8.1456246593
Ni     -1.1879938991    -2.1431418803     8.0039420829
Ni     -8.5566085664    -2.0852369093     7.9942526896
Ni      2.4654808779     0.0085665707     8.0045101946
Ni     -4.8141390710    -0.0075580643     8.2400392329
Ni      3.6697225018     2.1272694344     7.9815353714
Ni     -3.5794244958     2.1650609240     8.1306954048
Ni      1.2441037275    -2.1168028748     8.0127061301
Ni     -6.0816991849    -2.1036324692     8.0094546087
Ni      4.9078527564    -0.0128253073     7.9554650876
Ni     -2.3448156991    -0.0394216336     7.9526837208
Ni      6.1117674922     2.1043585650     8.1380606914
Ni     -1.1588190598     2.1319867872     8.0126532917
Ni      3.6747318123    -2.0763282660     7.9867150825
Ni     -3.6283690220    -2.1371252970     8.0285113771
O       6.1214731106     1.5047961500    10.0583929493
H       9.0624261746     2.5459023493     9.6963365014
H       8.2263104860     2.3375940488     9.7329194431
H       1.6639751866    -3.2782345191    11.0320274570
C       6.0053350745     2.2250096418    11.0678744452
O       7.3850183978     0.6214159347    12.2018491732
H      -7.4989408810     0.2948613726    11.2834552602
C       6.7073655370     1.8540639443    12.3331001226
H       5.9017421889     1.8070592186    13.0988699945
C       7.5801422089     3.0072944542    12.9319890428
H       3.4373316854    -2.3889333681    12.7282799677
H       8.5789304734     2.9855510369    12.4699162542
O       7.6444874150     2.7831523493    14.3448274888
H       8.2703500733     3.4143764748    14.7404150393
O      -4.0911336311     1.1470971854     9.6631329990
H      -3.3008492582     0.8849078415    10.1763957219
88
Step 3 | NEB Image 3 | Cartesian Angstrom
Ni      1.2285271350     0.7092904720     2.0000000000
Ni     -6.1433728650     0.7092904720     2.0000000000
Ni      2.4570542700     2.8371618880     2.0000000000
Ni     -4.9148457300     2.8371618880     2.0000000000
Ni      0.0000000000    -1.4185809440     2.0000000000
Ni     -7.3719000000    -1.4185809440     2.0000000000
Ni      3.6855814050     0.7092904720     2.0000000000
Ni     -3.6863185950     0.7092904720     2.0000000000
Ni      4.9141085400     2.8371618880     2.0000000000
Ni     -2.4577914600     2.8371618880     2.0000000000
Ni      2.4570542700    -1.4185809440     2.0000000000
Ni     -4.9148457300    -1.4185809440     2.0000000000
Ni      6.1433728650     0.7092904720     2.0000000000
Ni     -1.2285271350     0.7092904720     2.0000000000
Ni      7.3719000000     2.8371618880     2.0000000000
Ni      0.0000000000     2.8371618880     2.0000000000
Ni      4.9148457300    -1.4185809440     2.0000000000
Ni     -2.4570542700    -1.4185809440     2.0000000000
Ni      0.0318543837    -0.0111490394     3.9964870768
Ni     -7.3383174723    -0.0169718837     3.9993108608
Ni      1.2537334898     2.1127022149     3.9966601935
Ni     -6.1021772821     2.1156945513     3.9970154574
Ni     -1.1958874432    -2.1402208531     3.9948888724
Ni     -8.5688599063    -2.1374183442     4.0090331945
Ni      2.4918217176    -0.0070150061     4.0015497324
Ni     -4.8787847157    -0.0167928083     3.9979268490
Ni      3.7169923377     2.1091607077     3.9979076106
Ni     -3.6528774714     2.1183565294     4.0107631375
Ni      1.2632018661    -2.1403858174     3.9928051373
Ni     -6.1140689496    -2.1473454231     4.0053467179
Ni      4.9478804113    -0.0129928886     4.0104083448
Ni     -2.4272792472    -0.0129312934     3.9964869087
Ni      6.1803846158     2.1129870547     3.9985111750
Ni     -1.2045882771     2.1187364444     4.0028528716
Ni      3.7220398690    -2.1332765446     3.9856574112
Ni     -3.6538334263    -2.1463610406     3.9946490533
Ni      1.2094201008     0.7295332305     6.0134916343
Ni     -6.1741297568     0.7214322777     6.0079295559
Ni      2.4281020658     2.8571300850     5.9898719086
Ni     -4.9103044278     2.8573523657     6.0266811080
Ni     -0.0278848829    -1.3934993058     6.0033574245
Ni     -7.3793685081    -1.3803287719     6.0355563007
Ni      3.6797347248     0.7222646803     6.0435490222
Ni     -3.7077940651     0.7448687779     6.0240439312
Ni      4.8886588468     2.8652860785     5.9964477681
Ni     -2.4944143695     2.8457616461     6.0635817431
Ni      2.4329490838    -1.3917402493     6.0004166831
Ni     -4.9300116485    -1.4104692299     6.0048704518
Ni      6.1225238223     0.7257876698     6.0107209842
Ni     -1.2507551932     0.7326735829     6.0024789219
Ni      7.3607006872     2.8693709622     5.9824066421
Ni     -0.0298320526     2.8558841177     6.0124390969
Ni      4.9067411259    -1.3817711636     6.0339160110
Ni     -2.4900736742    -1.3993026574     6.0011004522
Ni     -0.0042950319     0.0146401890     8.0106442025
Ni     -7.3501550618     0.0043929374     8.1228384939
Ni      1.2314319239     2.1348937980     8.0102059869
Ni      8.6150186053     2.1580980188     7.9326638801
Ni     -1.2290909564    -2.1181067680     7.9973949823
Ni     -8.5863450386    -2.1316290356     7.9989282290
Ni      2.4439827277     0.0127570627     8.0254034438
Ni     -4.9029180495    -0.0196567341     7.9717635218
Ni      3.6419636867     2.1762577909     7.9716078096
Ni     -3.6757248509     2.1118879171     8.1713327254
Ni      1.2149854432    -2.0927678509     8.0042973334
Ni     -6.1292226199    -2.1144119117     8.0253081682
Ni      4.8830973463    -0.0117686688     8.1493662211
Ni     -2.4333073589    -0.0141130318     7.9806745539
Ni      6.1554013664     2.2089160729     7.9736811753
Ni     -1.2047907071     2.1276149409     8.0205360729
Ni      3.6840404706    -2.0926471023     7.9913559126
Ni     -3.6806274814    -2.1298006032     8.0202583596
O       6.0825061710     0.9369205911     9.3839000907
H      10.4742676100     2.7754652575    10.5648148185
H       6.7800491386     2.3665110510    10.7188338227
H       1.4180184009    -4.5351433523    10.9852195179
C       6.1085428046     1.4830158394    10.7198686810
O       7.1356844227    -0.5362427654    11.3804538301
H      -7.6036085020    -0.6709849967    10.3625168654
C       6.6226487089     0.5780633053    11.7856272812
H       6.5114016055     3.3223684558    13.1270334486
C       7.4936531166     3.6577366497    13.4850136394
H       3.8582424442    -1.6254850692    13.4171524186
H       8.2654449774     3.2260185378    12.8182790531
O       7.6132190307     3.1882910470    14.8279053568
H       8.3866744245     3.6103172918    15.2350735934
O      -3.9743331050     1.8980269128    10.2513289293
H      -3.1042600490     1.7269926475    10.6602081313
88
Step 4 | NEB Image 4 | Cartesian Angstrom
Ni      1.2285271350     0.7092904720     2.0000000000
Ni     -6.1433728650     0.7092904720     2.0000000000
Ni      2.4570542700     2.8371618880     2.0000000000
Ni     -4.9148457300     2.8371618880     2.0000000000
Ni      0.0000000000    -1.4185809440     2.0000000000
Ni     -7.3719000000    -1.4185809440     2.0000000000
Ni      3.6855814050     0.7092904720     2.0000000000
Ni     -3.6863185950     0.7092904720     2.0000000000
Ni      4.9141085400     2.8371618880     2.0000000000
Ni     -2.4577914600     2.8371618880     2.0000000000
Ni      2.4570542700    -1.4185809440     2.0000000000
Ni     -4.9148457300    -1.4185809440     2.0000000000
Ni      6.1433728650     0.7092904720     2.0000000000
Ni     -1.2285271350     0.7092904720     2.0000000000
Ni      7.3719000000     2.8371618880     2.0000000000
Ni      0.0000000000     2.8371618880     2.0000000000
Ni      4.9148457300    -1.4185809440     2.0000000000
Ni     -2.4570542700    -1.4185809440     2.0000000000
Ni      0.0400739240    -0.0174852714     3.9984166155
Ni     -7.3379270572    -0.0123863593     4.0016045836
Ni      1.2668457715     2.1092484405     3.9981219298
Ni     -6.1068642333     2.1169500914     4.0013823393
Ni     -1.1879903149    -2.1423903892     3.9978447178
Ni     -8.5651955324    -2.1415985835     4.0045908391
Ni      2.4998846741    -0.0108979243     4.0051857606
Ni     -4.8773013868    -0.0121083459     3.9934156088
Ni      3.7270725635     2.1095395774     4.0088184176
Ni     -3.6532555771     2.1138981180     4.0031815665
Ni      1.2687160931    -2.1474851692     4.0024233556
Ni     -6.1057088729    -2.1470818051     3.9960354580
Ni      4.9540225555    -0.0142787040     4.0126475526
Ni     -2.4255349940    -0.0132314892     3.9995699698
Ni      6.1813165977     2.1133569917     4.0079731799
Ni     -1.1932179089     2.1124917775     3.9941274177
Ni      3.7222071067    -2.1380625134     3.9932589117
Ni     -3.6443335061    -2.1458559734     3.9894232331
Ni      1.2165504658     0.7279604567     6.0134332139
Ni     -6.1613753422     0.7158361872     6.0133292036
Ni      2.4434541591     2.8531568788     5.9995460134
Ni     -4.9019904682     2.8483501145     6.0250586214
Ni     -0.0127446424    -1.4022947771     6.0108556659
Ni     -7.3756059229    -1.3849931340     6.0102336683
Ni      3.6868853986     0.7194478837     6.0500217312
Ni     -3.7004169722     0.7394459594     6.0384106741
Ni      4.9101370875     2.8534891622     6.0341601702
Ni     -2.4774451046     2.8331131814     6.0147373472
Ni      2.4389374650    -1.3946346625     6.0079363914
Ni     -4.9117869403    -1.4047496067     5.9863454179
Ni      6.1301800987     0.7301504527     6.0299347504
Ni     -1.2415630066     0.7236801323     5.9973848306
Ni      7.3611899193     2.8556662917     6.0112301468
Ni     -0.0174619996     2.8575336038     6.0006552297
Ni      4.9103103414    -1.3914313306     6.0290103272
Ni     -2.4730686609    -1.4028030472     6.0010222364
Ni      0.0122216859     0.0051265229     8.0124129054
Ni     -7.3417131580     0.0112450138     8.1017957111
Ni      1.2455116901     2.1301213335     8.0096596633
Ni      8.6397165112     2.1511221503     7.9571094362
Ni     -1.2080289007    -2.1257044764     8.0053630109
Ni     -8.5849358254    -2.1457274709     7.9752289856
Ni      2.4522665790     0.0086145087     8.0298190840
Ni     -4.8747420872    -0.0212536019     7.9910233366
Ni      3.6620265272     2.1594454852     7.9995868583
Ni     -3.6614508008     2.1079335805     8.1583925580
Ni      1.2337949994    -2.1062442041     8.0240655322
Ni     -6.0773779644    -2.1667425995     7.9613397780
Ni      4.8909651355    -0.0200933359     8.1264336717
Ni     -2.4116122443    -0.0260535257     7.9936001599
Ni      6.1662480099     2.1890931366     8.0722594411
Ni     -1.1805217769     2.1131875499     7.9893436918
Ni      3.6889338616    -2.1074795874     7.9990870453
Ni     -3.6549534517    -2.1349570320     8.0109860931
O       6.1404853500     0.7829527922     9.4428374489
H      11.1362797610     3.1192048801    10.4984925165
H       6.8703303100     1.8606587272    11.0699476880
H       1.6293797085    -5.3713638016    11.3321127828
C       6.3011632492     0.9412253518    10.8496546621
O       7.6550687989    -1.1212797294    11.2256828930
H      -6.6822995328    -1.1341461476     9.0022702566
C       7.0608432091    -0.1504827198    11.5567736347
H       8.0721965168     4.3178081721    11.7628662187
C       8.3120254900     4.3072907593    12.8348990450
H       3.8079359149    -1.5829558409    13.3845568154
H       9.2400356235     4.8849788989    12.9914810860
O       8.4678451499     2.9336404947    13.2076504230
H       8.6795790104     2.8976797226    14.1549930036
O      -3.6623369258     2.1681139554    10.2672076738
H      -2.7809570529     1.7981465433    10.4747969126
88
Step 5 | NEB Image 5 | Cartesian Angstrom
Ni      1.2285271350     0.7092904720     2.0000000000
Ni     -6.1433728650     0.7092904720     2.0000000000
Ni      2.4570542700     2.8371618880     2.0000000000
Ni     -4.9148457300     2.8371618880     2.0000000000
Ni      0.0000000000    -1.4185809440     2.0000000000
Ni     -7.3719000000    -1.4185809440     2.0000000000
Ni      3.6855814050     0.7092904720     2.0000000000
Ni     -3.6863185950     0.7092904720     2.0000000000
Ni      4.9141085400     2.8371618880     2.0000000000
Ni     -2.4577914600     2.8371618880     2.0000000000
Ni      2.4570542700    -1.4185809440     2.0000000000
Ni     -4.9148457300    -1.4185809440     2.0000000000
Ni      6.1433728650     0.7092904720     2.0000000000
Ni     -1.2285271350     0.7092904720     2.0000000000
Ni      7.3719000000     2.8371618880     2.0000000000
Ni      0.0000000000     2.8371618880     2.0000000000
Ni      4.9148457300    -1.4185809440     2.0000000000
Ni     -2.4570542700    -1.4185809440     2.0000000000
Ni      0.0464326620    -0.0306468460     3.9976675890
Ni     -7.3257303870    -0.0255862300     3.9933782980
Ni      1.2739848450     2.0960038070     3.9979157030
Ni     -6.1026021170     2.1049500680     4.0019149180
Ni     -1.1827110610    -2.1546561820     3.9989053170
Ni     -8.5597082650    -2.1592869340     3.9982394010
Ni      2.5024778430    -0.0256743600     4.0031952220
Ni     -4.8641413240    -0.0227350050     3.9956475690
Ni      3.7346756480     2.0985190290     4.0083618800
Ni     -3.6458198020     2.0991473590     4.0056686860
Ni      1.2703768650    -2.1597674920     4.0015811390
Ni     -6.0933336510    -2.1603781540     3.9902680500
Ni      4.9590538200    -0.0289845540     4.0074783820
Ni     -2.4167678920    -0.0248088220     4.0022401470
Ni      6.1885777810     2.1026461420     4.0098077600
Ni     -1.1844811720     2.0985803670     3.9964394390
Ni      3.7245308300    -2.1560713310     3.9888953010
Ni     -3.6351397940    -2.1574140910     3.9933365850
Ni      1.2278611130     0.7073057200     6.0134419810
Ni     -6.1428898530     0.6957346210     6.0102358510
Ni      2.4563605190     2.8356121920     5.9987058000
Ni     -4.8924583120     2.8187736320     6.0264580820
Ni      0.0002252210    -1.4241376010     6.0155868270
Ni     -7.3667991100    -1.4101212980     5.9895528060
Ni      3.6921281460     0.7008202940     6.0360645010
Ni     -3.6779272240     0.7256007260     6.0512861550
Ni      4.9267336850     2.8309168990     6.0432780270
Ni     -2.4664659500     2.8157315660     6.0151173370
Ni      2.4509011280    -1.4197685090     6.0062316800
Ni     -4.8985683740    -1.4191884620     5.9881596610
Ni      6.1372839650     0.7115480370     6.0073921100
Ni     -1.2256557510     0.7019370040     6.0032560690
Ni      7.3730564330     2.8242126570     6.0269074010
Ni     -0.0034566730     2.8405670140     6.0010880700
Ni      4.9162369820    -1.4189308570     6.0083232610
Ni     -2.4596272260    -1.4182314770     6.0084483810
Ni      0.0277268390    -0.0168450280     8.0180888710
Ni     -7.3091221710    -0.0327920680     8.0371701400
Ni      1.2611452740     2.1078740620     8.0062525300
Ni      8.6667549770     2.1138793650     7.9801313330
Ni     -1.1942402360    -2.1496555940     8.0109921590
Ni     -8.5668484660    -2.1735761150     7.9430911750
Ni      2.4712577410    -0.0190631580     8.0243063390
Ni     -4.8670711400    -0.0431110720     7.9967287920
Ni      3.6750137580     2.1321536040     7.9940007810
Ni     -3.6274773380     2.0999917070     8.2089215290
Ni      1.2517815200    -2.1329879940     8.0267060850
Ni     -6.0785108950    -2.1534189890     7.9361595560
Ni      4.9123316280    -0.0512787390     8.0829089500
Ni     -2.4007725170    -0.0429334740     8.0081832520
Ni      6.1908597070     2.1505617180     8.1094472440
Ni     -1.1654360560     2.0989982700     7.9806126390
Ni      3.7077660390    -2.1419918620     7.9975968800
Ni     -3.6463297530    -2.1524111230     8.0158878220
O       6.1707187590     0.6663307040     9.3727337630
H      11.2555922500     3.1706166680    10.5266232770
H       7.1149227860     1.0824741990    11.1550798120
H       1.6297081310    -5.3793991980    11.2177269450
C       6.2238707100     0.5353136510    10.8108846880
O       7.5718415080    -1.5277099790    10.9241884940
H      -6.8828388710    -1.2337967880    10.0124245870
C       6.2850334910    -0.9302036460    11.2182633770
H       9.1791669060     4.9099545600    10.6626973770
C       9.7467965870     5.2786349730    12.7161077750
H       5.0959169980    -0.6608682970    12.9933131080
H      10.5457770910     5.8077082870    13.2666670860
O       9.6783811350     3.9068622240    13.1006105230
H      10.5447055700     3.5019751520    12.9206205020
O      -3.5153567700     2.2005093110    10.2599052050
H      -2.6227032800     1.8412518110    10.4321503050
