88
Step 1 | NEB Image 1 | Cartesian Angstrom
Ni      1.2285271350     0.7092904720     2.0000000000
Ni     -6.1433728650     0.7092904720     2.0000000000
Ni      2.4570542700     2.8371618880     2.0000000000
Ni     -4.9148457300     2.8371618880     2.0000000000
Ni      0.0000000000    -1.4185809440     2.0000000000
Ni     -7.3719000000    -1.4185809440     2.0000000000
Ni      3.6855814050     0.7092904720     2.0000000000
Ni     -3.6863185950     0.7092904720     2.0000000000
Ni      4.9141085400     2.8371618880     2.0000000000
Ni     -2.4577914600     2.8371618880     2.0000000000
Ni      2.4570542700    -1.4185809440     2.0000000000
Ni     -4.9148457300    -1.4185809440     2.0000000000
Ni      6.1433728650     0.7092904720     2.0000000000
Ni     -1.2285271350     0.7092904720     2.0000000000
Ni      7.3719000000     2.8371618880     2.0000000000
Ni      0.0000000000     2.8371618880     2.0000000000
Ni      4.9148457300    -1.4185809440     2.0000000000
Ni     -2.4570542700    -1.4185809440     2.0000000000
Ni      0.0345187234    -0.0219895959     3.9906686506
Ni     -7.3332872529    -0.0205271350     3.9970929970
Ni      1.2574298371     2.1090479016     3.9981086770
Ni     -6.1061214153     2.1042281316     4.0017605185
Ni     -1.1958375155    -2.1495425789     3.9888614873
Ni     -8.5615731291    -2.1597422030     3.9935633301
Ni      2.4909200515    -0.0209290578     3.9889124626
Ni     -4.8775455868    -0.0288695998     4.0155932973
Ni      3.7235299523     2.1102350339     3.9932622384
Ni     -3.6483031855     2.1055811522     4.0174271749
Ni      1.2597529797    -2.1544756242     3.9969618463
Ni     -6.1074652262    -2.1506208434     4.0019689283
Ni      4.9550771908    -0.0234645643     3.9935565644
Ni     -2.4269867653    -0.0199772708     3.9982338911
Ni      6.1741097051     2.1083418571     4.0046158614
Ni     -1.1996729370     2.1123145435     4.0000024585
Ni      3.7197951829    -2.1539414756     3.9921760547
Ni     -3.6589301935    -2.1514998115     3.9994955107
Ni      1.2136841869     0.7163863979     5.9963073096
Ni     -6.1473437226     0.7096773911     6.0218176054
Ni      2.4453295017     2.8415084524     5.9971730433
Ni     -4.9231971923     2.8360653972     6.0327934449
Ni     -0.0226348385    -1.4110330430     6.0020236029
Ni     -7.3908667378    -1.4145678834     5.9981301391
Ni      3.6669417345     0.7157583701     5.9869138182
Ni     -3.7108784987     0.7190435175     6.0328517480
Ni      4.9057976617     2.8388244163     6.0411982092
Ni     -2.4814248435     2.8298458387     6.0521186228
Ni      2.4355069788    -1.4085502466     5.9888639843
Ni     -4.9252928465    -1.4026264080     6.0548563839
Ni      6.1341025786     0.7315238745     6.0218817427
Ni     -1.2402669783     0.7221835538     5.9926808095
Ni      7.3408175190     2.8291688103     6.0248565089
Ni     -0.0225097209     2.8466795557     6.0142376281
Ni      4.9088271165    -1.4251457534     5.9900387779
Ni     -2.4790699264    -1.4211153466     5.9913638200
Ni      0.0337137405    -0.0099863123     8.0038502320
Ni     -7.3606520147    -0.0334139511     7.9835827732
Ni      1.2525382386     2.1076756093     8.0014158677
Ni      8.5596645315     2.1514300915     7.9633346422
Ni     -1.1983605499    -2.1613845897     8.0018652759
Ni     -8.5927669864    -2.1264268734     8.0165035337
Ni      2.4708324722    -0.0109047600     8.0065027389
Ni     -4.8995212632    -0.0584838282     8.1493062015
Ni      3.6789469906     2.1047412898     7.9888648741
Ni     -3.6333178494     2.1270714900     8.1546283531
Ni      1.2394335961    -2.1164979174     7.9892760222
Ni     -6.1305722611    -2.1461024656     7.9989212299
Ni      4.9150163145    -0.0283439881     7.9490640309
Ni     -2.3653823178    -0.0601929248     7.9425724452
Ni      6.1349712758     2.1197335004     8.1598232492
Ni     -1.1861990586     2.1067384809     8.0263285947
Ni      3.6953023012    -2.1157302873     7.9694462946
Ni     -3.6468332403    -2.1628724713     8.0264725749
O       5.9486020032     1.9536774433    10.1568983318
H       6.2023593986     1.0444615420    10.4395396161
H       7.6485803319     2.9982816350    10.7947394844
H       2.3841835216    -2.5662265370    10.9995346326
C       6.5922936452     2.8570131008    11.0871865803
O       6.8828593053     0.8516013498    12.3925733789
H      -6.8879959571     0.8254517200    12.3248078773
C       6.4620997723     2.2299052156    12.4710261049
H       5.3979785171     2.1706601767    12.7461907790
C       7.1981974178     3.0342299686    13.5247288963
H       3.2389656514    -2.2859498111    13.4051121917
H       8.2901195875     2.9478942375    13.3576433856
O       6.8260697992     2.5426661176    14.8120038538
H       7.2522042786     3.0948827032    15.4870039972
O      -4.3927237137     1.0982075682     9.5865509607
H      -3.6717371060     0.6667680985    10.0888232085
88
Step 2 | NEB Image 2 | Cartesian Angstrom
Ni      1.2285271350     0.7092904720     2.0000000000
Ni     -6.1433728650     0.7092904720     2.0000000000
Ni      2.4570542700     2.8371618880     2.0000000000
Ni     -4.9148457300     2.8371618880     2.0000000000
Ni      0.0000000000    -1.4185809440     2.0000000000
Ni     -7.3719000000    -1.4185809440     2.0000000000
Ni      3.6855814050     0.7092904720     2.0000000000
Ni     -3.6863185950     0.7092904720     2.0000000000
Ni      4.9141085400     2.8371618880     2.0000000000
Ni     -2.4577914600     2.8371618880     2.0000000000
Ni      2.4570542700    -1.4185809440     2.0000000000
Ni     -4.9148457300    -1.4185809440     2.0000000000
Ni      6.1433728650     0.7092904720     2.0000000000
Ni     -1.2285271350     0.7092904720     2.0000000000
Ni      7.3719000000     2.8371618880     2.0000000000
Ni      0.0000000000     2.8371618880     2.0000000000
Ni      4.9148457300    -1.4185809440     2.0000000000
Ni     -2.4570542700    -1.4185809440     2.0000000000
Ni      0.0450890166    -0.0286749045     3.9907146005
Ni     -7.3230361111    -0.0198728222     4.0029889223
Ni      1.2674082427     2.1059448810     3.9980027712
Ni     -6.0997205543     2.1024619874     4.0108205631
Ni     -1.1874646471    -2.1539903984     3.9888231745
Ni     -8.5534951307    -2.1635854262     3.9958903483
Ni      2.5010663264    -0.0276391411     3.9905148587
Ni     -4.8745059453    -0.0264765969     4.0189402148
Ni      3.7335756847     2.1048123810     3.9972170047
Ni     -3.6400107654     2.1055833481     4.0167243902
Ni      1.2675656063    -2.1617486496     3.9997731834
Ni     -6.0997693757    -2.1505167055     4.0000038204
Ni      4.9663862016    -0.0277294362     3.9935419064
Ni     -2.4189183576    -0.0222430241     3.9961843155
Ni      6.1835653239     2.1044399035     4.0111225610
Ni     -1.1906316001     2.1096517935     3.9964624853
Ni      3.7278534846    -2.1638751648     3.9964813157
Ni     -3.6527476196    -2.1499949537     3.9983231819
Ni      1.2295746882     0.7086872745     5.9938621983
Ni     -6.1211996589     0.7182080252     6.0519374668
Ni      2.4633570487     2.8333998067     5.9970286814
Ni     -4.9106062359     2.8204470191     6.0427931621
Ni     -0.0055658463    -1.4222512195     6.0049842390
Ni     -7.3716065030    -1.4199786983     5.9983516954
Ni      3.6819046119     0.7064305674     5.9884936009
Ni     -3.6882541861     0.7114114126     6.0255014420
Ni      4.9295934140     2.8245848761     6.0566676228
Ni     -2.4613258287     2.8295651867     6.0446948553
Ni      2.4481343758    -1.4221039752     5.9908864036
Ni     -4.9077085194    -1.4022632630     6.0530594034
Ni      6.1523320681     0.7186477191     6.0263963790
Ni     -1.2204935943     0.7166282980     5.9856755093
Ni      7.3649649781     2.8101406000     6.0507604549
Ni     -0.0033408132     2.8422181350     6.0058267213
Ni      4.9193808416    -1.4313041488     5.9849397917
Ni     -2.4594090263    -1.4306200773     5.9871809052
Ni      0.0606930608    -0.0284169139     8.0009758864
Ni     -7.3126888309    -0.0523584362     7.9793767853
Ni      1.2751947157     2.0962304732     7.9977983382
Ni      8.5934754160     2.1670263344     8.0634437498
Ni     -1.1736355111    -2.1762341319     8.0064932464
Ni     -8.5576982097    -2.1250948403     7.9886663339
Ni      2.4849326130    -0.0247859061     8.0035304414
Ni     -4.8425861951    -0.0647009747     8.1644953663
Ni      3.6942860575     2.0921102172     7.9958561985
Ni     -3.5705324745     2.1069628450     8.1260000724
Ni      1.2591845772    -2.1389368782     8.0064539505
Ni     -6.0893348274    -2.1542597392     8.0012414590
Ni      4.9239125593    -0.0387019219     7.9565384264
Ni     -2.3298730732    -0.0772064275     7.9316275043
Ni      6.1445126154     2.0856937451     8.1829255270
Ni     -1.1485451261     2.0947463732     8.0161759301
Ni      3.7043968082    -2.1159184733     7.9675735399
Ni     -3.6190346231    -2.1754549285     8.0212897737
O       6.2833348771     1.7687842801    10.0897352287
H       9.0754309457     2.3336168703    10.2116034847
H       8.6295287941     2.9177734496     9.9335211898
H       2.0489624156    -2.8607414316    10.9643494831
C       6.2032525710     2.5304625587    11.0686436759
O       7.3754336603     0.8240516676    12.3146920600
H      -7.4408206500     0.5120836855    11.3879782291
C       6.7421609140     2.0834418245    12.3888564719
H       5.8600648812     2.0304813162    13.0655022784
C       7.6457701580     3.1557564829    13.0290022555
H       3.5369539462    -2.2219831222    12.8482099147
H       8.6396705950     3.1020233939    12.5573876883
O       7.7020908532     2.8745335854    14.4269300563
H       8.4499527545     3.3590707211    14.8129490140
O      -4.1810830654     1.0348647505     9.6005213660
H      -3.4378287672     0.6170162649    10.0809344091
88
Step 3 | NEB Image 3 | Cartesian Angstrom
Ni      1.2285271350     0.7092904720     2.0000000000
Ni     -6.1433728650     0.7092904720     2.0000000000
Ni      2.4570542700     2.8371618880     2.0000000000
Ni     -4.9148457300     2.8371618880     2.0000000000
Ni      0.0000000000    -1.4185809440     2.0000000000
Ni     -7.3719000000    -1.4185809440     2.0000000000
Ni      3.6855814050     0.7092904720     2.0000000000
Ni     -3.6863185950     0.7092904720     2.0000000000
Ni      4.9141085400     2.8371618880     2.0000000000
Ni     -2.4577914600     2.8371618880     2.0000000000
Ni      2.4570542700    -1.4185809440     2.0000000000
Ni     -4.9148457300    -1.4185809440     2.0000000000
Ni      6.1433728650     0.7092904720     2.0000000000
Ni     -1.2285271350     0.7092904720     2.0000000000
Ni      7.3719000000     2.8371618880     2.0000000000
Ni      0.0000000000     2.8371618880     2.0000000000
Ni      4.9148457300    -1.4185809440     2.0000000000
Ni     -2.4570542700    -1.4185809440     2.0000000000
Ni      0.0317001150    -0.0143903175     3.9975851002
Ni     -7.3402964913    -0.0220635277     3.9994638357
Ni      1.2520392629     2.1099745534     3.9987937111
Ni     -6.1055065867     2.1116211416     3.9977545517
Ni     -1.1961657998    -2.1447725431     3.9957661400
Ni     -8.5718716696    -2.1391919212     4.0101700128
Ni      2.4899438659    -0.0090332512     4.0032262725
Ni     -4.8815246854    -0.0210478221     3.9984450184
Ni      3.7151512728     2.1055290610     4.0010718886
Ni     -3.6548947489     2.1149946358     4.0101518826
Ni      1.2631065790    -2.1431088840     3.9935516240
Ni     -6.1172741951    -2.1528020911     4.0071502625
Ni      4.9442765688    -0.0157908127     4.0123890781
Ni     -2.4278492574    -0.0171744085     3.9963828020
Ni      6.1778385327     2.1090660937     3.9976139796
Ni     -1.2073339090     2.1155079185     4.0058316785
Ni      3.7209203975    -2.1356861806     3.9883600034
Ni     -3.6562344871    -2.1507421718     3.9955498312
Ni      1.2111725108     0.7230031039     6.0165464192
Ni     -6.1753211291     0.7126221387     6.0083067853
Ni      2.4279808676     2.8496599634     5.9950020222
Ni     -4.9130155226     2.8508414018     6.0223751142
Ni     -0.0273538756    -1.4007825206     6.0035390678
Ni     -7.3786396495    -1.3902222943     6.0416224767
Ni      3.6817876984     0.7146326137     6.0517370010
Ni     -3.7094529985     0.7354670783     6.0181870939
Ni      4.8880544720     2.8568780643     5.9982343955
Ni     -2.4980998551     2.8333140363     6.0736074397
Ni      2.4342715818    -1.3971116187     6.0028642242
Ni     -4.9324054835    -1.4199688669     6.0049856073
Ni      6.1235262376     0.7122211301     6.0111693955
Ni     -1.2488711008     0.7250561309     6.0034810978
Ni      7.3553344260     2.8639101859     5.9820110603
Ni     -0.0321594289     2.8463335204     6.0165590613
Ni      4.9078844821    -1.3866321834     6.0414229923
Ni     -2.4903986277    -1.4083260898     6.0002594825
Ni      0.0018778220    -0.0000461210     8.0119062461
Ni     -7.3344450603    -0.0145434529     8.1298121641
Ni      1.2350266953     2.1222328776     8.0149780300
Ni      8.6100955850     2.1492657079     7.9253708850
Ni     -1.2249748377    -2.1290703140     7.9986183644
Ni     -8.5829199529    -2.1512072171     8.0008183558
Ni      2.4503338759    -0.0011965954     8.0300846377
Ni     -4.8961998468    -0.0365239700     7.9681856336
Ni      3.6496307320     2.1633606627     7.9815030032
Ni     -3.6790143342     2.0942144961     8.1773452735
Ni      1.2232148754    -2.1129782779     8.0002613257
Ni     -6.1249912648    -2.1345674655     8.0317721091
Ni      4.8905412014    -0.0123232699     8.1672735980
Ni     -2.4293283483    -0.0247529007     7.9749869158
Ni      6.1552217521     2.1646752107     7.9637813514
Ni     -1.2048398866     2.1123166102     8.0330871276
Ni      3.6886747855    -2.1071605388     7.9947198208
Ni     -3.6758558537    -2.1439664892     8.0184912964
O       6.1897490318     0.9025054770     9.4302018534
H      10.1664041579     2.4469987955    10.6634506948
H       7.2219818173     2.2707271173    10.6100688904
H       1.7574637716    -3.9809464147    10.6704773824
C       6.2725779348     1.6843220026    10.6484836424
O       7.1934339962    -0.1303374105    11.8271612350
H      -7.1226324068    -0.2563903680    10.9230523163
C       6.3914263550     0.8870583554    11.9248382182
H       6.8357824790     3.4700459548    12.7126577574
C       7.7258112739     3.7604677548    13.2884131241
H       3.9578841834    -1.5560991584    13.5445403392
H       8.6214412155     3.6333039958    12.6467368554
O       7.7730706837     2.9160961373    14.4394775933
H       8.1799529806     3.4056658208    15.1707044077
O      -4.1566961541     1.6650812108    10.2571210303
H      -3.3484787521     1.4687634694    10.7670396931
88
Step 4 | NEB Image 4 | Cartesian Angstrom
Ni      1.2285271350     0.7092904720     2.0000000000
Ni     -6.1433728650     0.7092904720     2.0000000000
Ni      2.4570542700     2.8371618880     2.0000000000
Ni     -4.9148457300     2.8371618880     2.0000000000
Ni      0.0000000000    -1.4185809440     2.0000000000
Ni     -7.3719000000    -1.4185809440     2.0000000000
Ni      3.6855814050     0.7092904720     2.0000000000
Ni     -3.6863185950     0.7092904720     2.0000000000
Ni      4.9141085400     2.8371618880     2.0000000000
Ni     -2.4577914600     2.8371618880     2.0000000000
Ni      2.4570542700    -1.4185809440     2.0000000000
Ni     -4.9148457300    -1.4185809440     2.0000000000
Ni      6.1433728650     0.7092904720     2.0000000000
Ni     -1.2285271350     0.7092904720     2.0000000000
Ni      7.3719000000     2.8371618880     2.0000000000
Ni      0.0000000000     2.8371618880     2.0000000000
Ni      4.9148457300    -1.4185809440     2.0000000000
Ni     -2.4570542700    -1.4185809440     2.0000000000
Ni      0.0355589384    -0.0139123501     3.9980580574
Ni     -7.3379176038    -0.0142877871     3.9996689401
Ni      1.2599519282     2.1112311152     3.9980411856
Ni     -6.1051559652     2.1168464418     3.9984954825
Ni     -1.1926014892    -2.1413866683     3.9975441280
Ni     -8.5691274017    -2.1402217181     4.0042372019
Ni      2.4952467426    -0.0093718523     4.0034795996
Ni     -4.8770422225    -0.0147163651     3.9959354390
Ni      3.7216752481     2.1097206022     4.0045116840
Ni     -3.6524047065     2.1157663390     4.0081743265
Ni      1.2643507268    -2.1435155503     3.9981265306
Ni     -6.1096069003    -2.1474017083     3.9986173117
Ni      4.9503750276    -0.0122274832     4.0118901987
Ni     -2.4256539151    -0.0135472044     3.9983077173
Ni      6.1799206315     2.1138628033     4.0046379411
Ni     -1.1993261637     2.1159850373     4.0001411861
Ni      3.7203768699    -2.1372138717     3.9900760076
Ni     -3.6489360646    -2.1462644904     3.9930151442
Ni      1.2129737009     0.7285190468     6.0136610346
Ni     -6.1668577266     0.7185553339     6.0091948211
Ni      2.4364610191     2.8548111391     5.9972232595
Ni     -4.9077469189     2.8509019521     6.0246380723
Ni     -0.0209671772    -1.3976155024     6.0084417890
Ni     -7.3784141818    -1.3839809053     6.0167592688
Ni      3.6835931661     0.7218267143     6.0484473542
Ni     -3.7017766575     0.7449811068     6.0320938605
Ni      4.8988580168     2.8598794641     6.0189750848
Ni     -2.4884630688     2.8438761697     6.0449315994
Ni      2.4353745683    -1.3937275956     6.0049345954
Ni     -4.9226666523    -1.4080052384     5.9970571613
Ni      6.1259884671     0.7292661417     6.0215263403
Ni     -1.2462336307     0.7287427217     6.0012992257
Ni      7.3603574454     2.8600377778     6.0009553981
Ni     -0.0231274732     2.8569756101     6.0075676959
Ni      4.9059249220    -1.3854956806     6.0261702060
Ni     -2.4829458802    -1.4003302460     6.0032024190
Ni      0.0024466327     0.0123767856     8.0130010290
Ni     -7.3309975681    -0.0135362782     8.1106130845
Ni      1.2376533302     2.1326635968     8.0101586642
Ni      8.6302210487     2.1522380956     7.9469450288
Ni     -1.2204512725    -2.1211240500     8.0029633314
Ni     -8.5862453090    -2.1409512545     7.9747445994
Ni      2.4513016467     0.0117874192     8.0269603770
Ni     -4.8892801468    -0.0194328715     7.9799098430
Ni      3.6538131109     2.1677306653     7.9911101445
Ni     -3.6665986732     2.1130129406     8.1785157941
Ni      1.2236115122    -2.0978039454     8.0156793507
Ni     -6.1157373955    -2.1222687554     7.9944625257
Ni      4.8956324634    -0.0164647426     8.1363541780
Ni     -2.4254172717    -0.0171133759     7.9893102354
Ni      6.1610070214     2.2023517047     8.0368514332
Ni     -1.1957776161     2.1249957168     8.0050822828
Ni      3.6892713979    -2.0990192340     7.9960128095
Ni     -3.6728297672    -2.1310659343     8.0176989660
O       6.1789480540     0.8401550746     9.3848685627
H      10.8494406722     2.9641355981    10.5902558320
H       6.9984712255     1.9869669156    10.9227801143
H       1.7194683903    -5.1142795102    11.2599461487
C       6.3791792865     1.0758350899    10.7882700149
O       7.7809420897    -0.8662954357    10.9405039372
H      -6.9287980578    -0.8404364061     9.8278556900
C       7.1198208708     0.0272128236    11.5523167537
H       8.3543322277     4.2377431992    11.8296424775
C       8.4775685645     4.3342179224    12.9214429302
H       3.9663991600    -1.4299630509    13.3054872439
H       9.4231188917     4.8601005563    13.1171804145
O       8.4416251194     3.0248743920    13.5072823773
H       9.2036899769     2.9293924639    14.0982253184
O      -3.7715412944     2.0430905992    10.2860839485
H      -2.8623021154     1.7934481035    10.5445471076
88
Step 5 | NEB Image 5 | Cartesian Angstrom
Ni      1.2285271350     0.7092904720     2.0000000000
Ni     -6.1433728650     0.7092904720     2.0000000000
Ni      2.4570542700     2.8371618880     2.0000000000
Ni     -4.9148457300     2.8371618880     2.0000000000
Ni      0.0000000000    -1.4185809440     2.0000000000
Ni     -7.3719000000    -1.4185809440     2.0000000000
Ni      3.6855814050     0.7092904720     2.0000000000
Ni     -3.6863185950     0.7092904720     2.0000000000
Ni      4.9141085400     2.8371618880     2.0000000000
Ni     -2.4577914600     2.8371618880     2.0000000000
Ni      2.4570542700    -1.4185809440     2.0000000000
Ni     -4.9148457300    -1.4185809440     2.0000000000
Ni      6.1433728650     0.7092904720     2.0000000000
Ni     -1.2285271350     0.7092904720     2.0000000000
Ni      7.3719000000     2.8371618880     2.0000000000
Ni      0.0000000000     2.8371618880     2.0000000000
Ni      4.9148457300    -1.4185809440     2.0000000000
Ni     -2.4570542700    -1.4185809440     2.0000000000
Ni      0.0464326620    -0.0306468460     3.9976675890
Ni     -7.3257303870    -0.0255862300     3.9933782980
Ni      1.2739848450     2.0960038070     3.9979157030
Ni     -6.1026021170     2.1049500680     4.0019149180
Ni     -1.1827110610    -2.1546561820     3.9989053170
Ni     -8.5597082650    -2.1592869340     3.9982394010
Ni      2.5024778430    -0.0256743600     4.0031952220
Ni     -4.8641413240    -0.0227350050     3.9956475690
Ni      3.7346756480     2.0985190290     4.0083618800
Ni     -3.6458198020     2.0991473590     4.0056686860
Ni      1.2703768650    -2.1597674920     4.0015811390
Ni     -6.0933336510    -2.1603781540     3.9902680500
Ni      4.9590538200    -0.0289845540     4.0074783820
Ni     -2.4167678920    -0.0248088220     4.0022401470
Ni      6.1885777810     2.1026461420     4.0098077600
Ni     -1.1844811720     2.0985803670     3.9964394390
Ni      3.7245308300    -2.1560713310     3.9888953010
Ni     -3.6351397940    -2.1574140910     3.9933365850
Ni      1.2278611130     0.7073057200     6.0134419810
Ni     -6.1428898530     0.6957346210     6.0102358510
Ni      2.4563605190     2.8356121920     5.9987058000
Ni     -4.8924583120     2.8187736320     6.0264580820
Ni      0.0002252210    -1.4241376010     6.0155868270
Ni     -7.3667991100    -1.4101212980     5.9895528060
Ni      3.6921281460     0.7008202940     6.0360645010
Ni     -3.6779272240     0.7256007260     6.0512861550
Ni      4.9267336850     2.8309168990     6.0432780270
Ni     -2.4664659500     2.8157315660     6.0151173370
Ni      2.4509011280    -1.4197685090     6.0062316800
Ni     -4.8985683740    -1.4191884620     5.9881596610
Ni      6.1372839650     0.7115480370     6.0073921100
Ni     -1.2256557510     0.7019370040     6.0032560690
Ni      7.3730564330     2.8242126570     6.0269074010
Ni     -0.0034566730     2.8405670140     6.0010880700
Ni      4.9162369820    -1.4189308570     6.0083232610
Ni     -2.4596272260    -1.4182314770     6.0084483810
Ni      0.0277268390    -0.0168450280     8.0180888710
Ni     -7.3091221710    -0.0327920680     8.0371701400
Ni      1.2611452740     2.1078740620     8.0062525300
Ni      8.6667549770     2.1138793650     7.9801313330
Ni     -1.1942402360    -2.1496555940     8.0109921590
Ni     -8.5668484660    -2.1735761150     7.9430911750
Ni      2.4712577410    -0.0190631580     8.0243063390
Ni     -4.8670711400    -0.0431110720     7.9967287920
Ni      3.6750137580     2.1321536040     7.9940007810
Ni     -3.6274773380     2.0999917070     8.2089215290
Ni      1.2517815200    -2.1329879940     8.0267060850
Ni     -6.0785108950    -2.1534189890     7.9361595560
Ni      4.9123316280    -0.0512787390     8.0829089500
Ni     -2.4007725170    -0.0429334740     8.0081832520
Ni      6.1908597070     2.1505617180     8.1094472440
Ni     -1.1654360560     2.0989982700     7.9806126390
Ni      3.7077660390    -2.1419918620     7.9975968800
Ni     -3.6463297530    -2.1524111230     8.0158878220
O       6.1707187590     0.6663307040     9.3727337630
H      11.2555922500     3.1706166680    10.5266232770
H       7.1149227860     1.0824741990    11.1550798120
H       1.6297081310    -5.3793991980    11.2177269450
C       6.2238707100     0.5353136510    10.8108846880
O       7.5718415080    -1.5277099790    10.9241884940
H      -6.8828388710    -1.2337967880    10.0124245870
C       6.2850334910    -0.9302036460    11.2182633770
H       9.1791669060     4.9099545600    10.6626973770
C       9.7467965870     5.2786349730    12.7161077750
H       5.0959169980    -0.6608682970    12.9933131080
H      10.5457770910     5.8077082870    13.2666670860
O       9.6783811350     3.9068622240    13.1006105230
H      10.5447055700     3.5019751520    12.9206205020
O      -3.5153567700     2.2005093110    10.2599052050
H      -2.6227032800     1.8412518110    10.4321503050
