88
Step 1 | NEB Image 1 | Cartesian Angstrom
Ni      1.2285271350     0.7092904720     2.0000000000
Ni     -6.1433728650     0.7092904720     2.0000000000
Ni      2.4570542700     2.8371618880     2.0000000000
Ni     -4.9148457300     2.8371618880     2.0000000000
Ni      0.0000000000    -1.4185809440     2.0000000000
Ni     -7.3719000000    -1.4185809440     2.0000000000
Ni      3.6855814050     0.7092904720     2.0000000000
Ni     -3.6863185950     0.7092904720     2.0000000000
Ni      4.9141085400     2.8371618880     2.0000000000
Ni     -2.4577914600     2.8371618880     2.0000000000
Ni      2.4570542700    -1.4185809440     2.0000000000
Ni     -4.9148457300    -1.4185809440     2.0000000000
Ni      6.1433728650     0.7092904720     2.0000000000
Ni     -1.2285271350     0.7092904720     2.0000000000
Ni      7.3719000000     2.8371618880     2.0000000000
Ni      0.0000000000     2.8371618880     2.0000000000
Ni      4.9148457300    -1.4185809440     2.0000000000
Ni     -2.4570542700    -1.4185809440     2.0000000000
Ni      0.0345187234    -0.0219895959     3.9906686506
Ni     -7.3332872529    -0.0205271350     3.9970929970
Ni      1.2574298371     2.1090479016     3.9981086770
Ni     -6.1061214153     2.1042281316     4.0017605185
Ni     -1.1958375155    -2.1495425789     3.9888614873
Ni     -8.5615731291    -2.1597422030     3.9935633301
Ni      2.4909200515    -0.0209290578     3.9889124626
Ni     -4.8775455868    -0.0288695998     4.0155932973
Ni      3.7235299523     2.1102350339     3.9932622384
Ni     -3.6483031855     2.1055811522     4.0174271749
Ni      1.2597529797    -2.1544756242     3.9969618463
Ni     -6.1074652262    -2.1506208434     4.0019689283
Ni      4.9550771908    -0.0234645643     3.9935565644
Ni     -2.4269867653    -0.0199772708     3.9982338911
Ni      6.1741097051     2.1083418571     4.0046158614
Ni     -1.1996729370     2.1123145435     4.0000024585
Ni      3.7197951829    -2.1539414756     3.9921760547
Ni     -3.6589301935    -2.1514998115     3.9994955107
Ni      1.2136841869     0.7163863979     5.9963073096
Ni     -6.1473437226     0.7096773911     6.0218176054
Ni      2.4453295017     2.8415084524     5.9971730433
Ni     -4.9231971923     2.8360653972     6.0327934449
Ni     -0.0226348385    -1.4110330430     6.0020236029
Ni     -7.3908667378    -1.4145678834     5.9981301391
Ni      3.6669417345     0.7157583701     5.9869138182
Ni     -3.7108784987     0.7190435175     6.0328517480
Ni      4.9057976617     2.8388244163     6.0411982092
Ni     -2.4814248435     2.8298458387     6.0521186228
Ni      2.4355069788    -1.4085502466     5.9888639843
Ni     -4.9252928465    -1.4026264080     6.0548563839
Ni      6.1341025786     0.7315238745     6.0218817427
Ni     -1.2402669783     0.7221835538     5.9926808095
Ni      7.3408175190     2.8291688103     6.0248565089
Ni     -0.0225097209     2.8466795557     6.0142376281
Ni      4.9088271165    -1.4251457534     5.9900387779
Ni     -2.4790699264    -1.4211153466     5.9913638200
Ni      0.0337137405    -0.0099863123     8.0038502320
Ni     -7.3606520147    -0.0334139511     7.9835827732
Ni      1.2525382386     2.1076756093     8.0014158677
Ni      8.5596645315     2.1514300915     7.9633346422
Ni     -1.1983605499    -2.1613845897     8.0018652759
Ni     -8.5927669864    -2.1264268734     8.0165035337
Ni      2.4708324722    -0.0109047600     8.0065027389
Ni     -4.8995212632    -0.0584838282     8.1493062015
Ni      3.6789469906     2.1047412898     7.9888648741
Ni     -3.6333178494     2.1270714900     8.1546283531
Ni      1.2394335961    -2.1164979174     7.9892760222
Ni     -6.1305722611    -2.1461024656     7.9989212299
Ni      4.9150163145    -0.0283439881     7.9490640309
Ni     -2.3653823178    -0.0601929248     7.9425724452
Ni      6.1349712758     2.1197335004     8.1598232492
Ni     -1.1861990586     2.1067384809     8.0263285947
Ni      3.6953023012    -2.1157302873     7.9694462946
Ni     -3.6468332403    -2.1628724713     8.0264725749
O       5.9486020032     1.9536774433    10.1568983318
H       6.2023593986     1.0444615420    10.4395396161
H       7.6485803319     2.9982816350    10.7947394844
H       2.3841835216    -2.5662265370    10.9995346326
C       6.5922936452     2.8570131008    11.0871865803
O       6.8828593053     0.8516013498    12.3925733789
H      -6.8879959571     0.8254517200    12.3248078773
C       6.4620997723     2.2299052156    12.4710261049
H       5.3979785171     2.1706601767    12.7461907790
C       7.1981974178     3.0342299686    13.5247288963
H       3.2389656514    -2.2859498111    13.4051121917
H       8.2901195875     2.9478942375    13.3576433856
O       6.8260697992     2.5426661176    14.8120038538
H       7.2522042786     3.0948827032    15.4870039972
O      -4.3927237137     1.0982075682     9.5865509607
H      -3.6717371060     0.6667680985    10.0888232085
88
Step 2 | NEB Image 2 | Cartesian Angstrom
Ni      1.2285271350     0.7092904720     2.0000000000
Ni     -6.1433728650     0.7092904720     2.0000000000
Ni      2.4570542700     2.8371618880     2.0000000000
Ni     -4.9148457300     2.8371618880     2.0000000000
Ni      0.0000000000    -1.4185809440     2.0000000000
Ni     -7.3719000000    -1.4185809440     2.0000000000
Ni      3.6855814050     0.7092904720     2.0000000000
Ni     -3.6863185950     0.7092904720     2.0000000000
Ni      4.9141085400     2.8371618880     2.0000000000
Ni     -2.4577914600     2.8371618880     2.0000000000
Ni      2.4570542700    -1.4185809440     2.0000000000
Ni     -4.9148457300    -1.4185809440     2.0000000000
Ni      6.1433728650     0.7092904720     2.0000000000
Ni     -1.2285271350     0.7092904720     2.0000000000
Ni      7.3719000000     2.8371618880     2.0000000000
Ni      0.0000000000     2.8371618880     2.0000000000
Ni      4.9148457300    -1.4185809440     2.0000000000
Ni     -2.4570542700    -1.4185809440     2.0000000000
Ni      0.0411163549    -0.0257224847     3.9906845194
Ni     -7.3268721210    -0.0196574528     4.0034761083
Ni      1.2632778494     2.1076516610     3.9976455915
Ni     -6.1021962870     2.1034277209     4.0105850004
Ni     -1.1910143357    -2.1518674139     3.9880446639
Ni     -8.5574675963    -2.1604026619     3.9977059828
Ni      2.4976884625    -0.0246140902     3.9919994346
Ni     -4.8774973854    -0.0260128279     4.0197328728
Ni      3.7308830283     2.1070606387     3.9977190232
Ni     -3.6448748595     2.1072926530     4.0189997096
Ni      1.2660115593    -2.1587791402     4.0001575669
Ni     -6.1046213444    -2.1492470774     4.0027952045
Ni      4.9628111062    -0.0261021304     3.9958067883
Ni     -2.4234047723    -0.0202777423     3.9965423179
Ni      6.1810399424     2.1057460259     4.0107880720
Ni     -1.1959807003     2.1113838290     3.9971996984
Ni      3.7258411324    -2.1594981099     3.9975593089
Ni     -3.6575173728    -2.1489516464     3.9988953071
Ni      1.2226770559     0.7132674587     5.9962276752
Ni     -6.1307516348     0.7152689301     6.0481559944
Ni      2.4545973932     2.8382329260     5.9958072779
Ni     -4.9162014266     2.8289642291     6.0425860034
Ni     -0.0121799842    -1.4170081433     6.0029722278
Ni     -7.3813977414    -1.4174825408     6.0040549948
Ni      3.6753977630     0.7115676495     5.9914545515
Ni     -3.6989410382     0.7164372723     6.0294462056
Ni      4.9215018351     2.8304323074     6.0558263157
Ni     -2.4695055759     2.8325347335     6.0496304061
Ni      2.4423387646    -1.4154184477     5.9948516571
Ni     -4.9159889842    -1.3984436124     6.0583298204
Ni      6.1452493597     0.7214599593     6.0268240381
Ni     -1.2294651879     0.7202215239     5.9871465446
Ni      7.3541969961     2.8193597427     6.0421867063
Ni     -0.0122316882     2.8458931803     6.0068722247
Ni      4.9129159215    -1.4269398499     5.9937520437
Ni     -2.4682634064    -1.4254255703     5.9866010084
Ni      0.0492394820    -0.0217833921     8.0012543957
Ni     -7.3185687896    -0.0516090050     7.9848808291
Ni      1.2646248910     2.1029822441     7.9984505395
Ni      8.5822543042     2.1622062834     8.0207494986
Ni     -1.1843386339    -2.1673651258     8.0024728114
Ni     -8.5724898311    -2.1274504119     8.0075982516
Ni      2.4757724548    -0.0192809018     8.0087113033
Ni     -4.8458114156    -0.0588090327     8.1802366832
Ni      3.6843267622     2.1010404761     7.9951136036
Ni     -3.5872419226     2.1175120680     8.1339749971
Ni      1.2501255245    -2.1338943882     8.0063386694
Ni     -6.1009380361    -2.1474357863     8.0075374334
Ni      4.9131972076    -0.0355544811     7.9592597024
Ni     -2.3439328164    -0.0686041836     7.9330003860
Ni      6.1399600730     2.0843951074     8.1765024649
Ni     -1.1604382336     2.1012973772     8.0181207403
Ni      3.6973779990    -2.1189493684     7.9777331984
Ni     -3.6289272832    -2.1699893972     8.0226294771
O       6.2889537123     1.7060074872    10.0819408390
H       9.1527686392     2.2860227196    10.3360373648
H       8.5596441533     2.7493365105    10.1587114198
H       2.1372413012    -2.8789527558    10.8960029862
C       6.2645391667     2.5057812869    11.0347068094
O       7.3431604698     0.8123207878    12.3942636130
H      -7.3155308723     0.5001779262    11.4697792423
C       6.7634492335     2.0986849766    12.3796760982
H       5.8544362847     2.1090640452    13.0264361306
C       7.6589917806     3.1666098528    13.0488519545
H       3.5561667896    -2.2080288482    12.8656234977
H       8.6782407567     3.1277964737    12.6307237768
O       7.6371989799     2.8570221566    14.4423602299
H       8.3984427391     3.2738789641    14.8751366816
O      -4.1826165154     1.0489736630     9.6204875455
H      -3.4291534176     0.6664805719    10.1139039568
88
Step 3 | NEB Image 3 | Cartesian Angstrom
Ni      1.2285271350     0.7092904720     2.0000000000
Ni     -6.1433728650     0.7092904720     2.0000000000
Ni      2.4570542700     2.8371618880     2.0000000000
Ni     -4.9148457300     2.8371618880     2.0000000000
Ni      0.0000000000    -1.4185809440     2.0000000000
Ni     -7.3719000000    -1.4185809440     2.0000000000
Ni      3.6855814050     0.7092904720     2.0000000000
Ni     -3.6863185950     0.7092904720     2.0000000000
Ni      4.9141085400     2.8371618880     2.0000000000
Ni     -2.4577914600     2.8371618880     2.0000000000
Ni      2.4570542700    -1.4185809440     2.0000000000
Ni     -4.9148457300    -1.4185809440     2.0000000000
Ni      6.1433728650     0.7092904720     2.0000000000
Ni     -1.2285271350     0.7092904720     2.0000000000
Ni      7.3719000000     2.8371618880     2.0000000000
Ni      0.0000000000     2.8371618880     2.0000000000
Ni      4.9148457300    -1.4185809440     2.0000000000
Ni     -2.4570542700    -1.4185809440     2.0000000000
Ni      0.0291762241    -0.0129608305     3.9971217650
Ni     -7.3420795788    -0.0204799897     4.0034546176
Ni      1.2502546719     2.1113514757     3.9981169723
Ni     -6.1072793728     2.1120039798     4.0001374672
Ni     -1.1983465205    -2.1440111726     3.9948745550
Ni     -8.5719106327    -2.1363905273     4.0113033000
Ni      2.4883027985    -0.0090479787     4.0027083448
Ni     -4.8851324242    -0.0201063259     3.9988981775
Ni      3.7142005617     2.1072136252     4.0006524046
Ni     -3.6562384594     2.1172877509     4.0082755400
Ni      1.2613526454    -2.1422384014     3.9940698563
Ni     -6.1199841919    -2.1487911834     4.0099813458
Ni      4.9444484335    -0.0144030120     4.0121434389
Ni     -2.4296736083    -0.0159790697     3.9950038894
Ni      6.1760715568     2.1097581817     3.9989607509
Ni     -1.2096710241     2.1181263031     4.0049925497
Ni      3.7203173011    -2.1355802015     3.9897636589
Ni     -3.6601382014    -2.1485544210     3.9962750990
Ni      1.2070172278     0.7256499609     6.0145076530
Ni     -6.1781162864     0.7151252701     6.0155230439
Ni      2.4245203285     2.8517038867     5.9949066803
Ni     -4.9190766901     2.8565169410     6.0195777101
Ni     -0.0321738639    -1.3979151960     6.0030536861
Ni     -7.3826035124    -1.3860376993     6.0528544224
Ni      3.6784700913     0.7181967679     6.0471557528
Ni     -3.7165114191     0.7359580882     6.0109701332
Ni      4.8852419753     2.8594876750     6.0024061121
Ni     -2.5014844206     2.8408558307     6.0704820218
Ni      2.4302992113    -1.3949563788     6.0046017768
Ni     -4.9372922916    -1.4153432444     6.0120896235
Ni      6.1225126612     0.7157359645     6.0167013226
Ni     -1.2540913110     0.7304062800     6.0013875074
Ni      7.3483407040     2.8664900217     5.9847780254
Ni     -0.0362609339     2.8498359286     6.0155896527
Ni      4.9032683484    -1.3833453743     6.0425472655
Ni     -2.4949948435    -1.4074158296     5.9977520951
Ni     -0.0012497273     0.0047865415     8.0090542401
Ni     -7.3375795400    -0.0098291460     8.1393216418
Ni      1.2298911671     2.1259425455     8.0133341436
Ni      8.6033052873     2.1596213162     7.9262064642
Ni     -1.2301821420    -2.1266938772     7.9974234079
Ni     -8.5884796966    -2.1485027220     8.0098883794
Ni      2.4505878291     0.0048578234     8.0268020211
Ni     -4.8982817778    -0.0352173273     7.9773250397
Ni      3.6476299053     2.1664398084     7.9822130652
Ni     -3.6794167406     2.0923923722     8.1426439318
Ni      1.2182279771    -2.1064994080     8.0016525288
Ni     -6.1298812813    -2.1334597835     8.0450696777
Ni      4.8962380669    -0.0014630326     8.1509500978
Ni     -2.4309934148    -0.0239024636     7.9651902008
Ni      6.1483105185     2.1704134444     7.9743684577
Ni     -1.2107624839     2.1170359968     8.0332865611
Ni      3.6856448843    -2.0993079315     8.0000250371
Ni     -3.6793315006    -2.1429682754     8.0224673758
O       6.2193300928     0.9379330918     9.4574510174
H      10.0767870782     2.2835402197    10.6082520154
H       7.3818523576     2.1790418319    10.6594950457
H       1.9320586629    -3.8782533294    10.6942387915
C       6.3708420638     1.7072254613    10.6758976758
O       7.1956882194    -0.1070566817    11.9220845159
H      -6.9167433931    -0.1025725354    11.1384400012
C       6.2775546915     0.8121010591    11.9136562911
H       7.1460322331     3.5620866096    12.4658705814
C       7.8990640286     3.8659623768    13.2028136632
H       3.9612597591    -1.4996105534    13.5359432086
H       8.8886018840     3.9033471035    12.7089864765
O       7.8533402170     2.9011678012    14.2569883364
H       8.2711183216     3.2869530002    15.0429370704
O      -4.1997465510     1.5058320085    10.2460860851
H      -3.3797876903     1.3890451938    10.7626840418
88
Step 4 | NEB Image 4 | Cartesian Angstrom
Ni      1.2285271350     0.7092904720     2.0000000000
Ni     -6.1433728650     0.7092904720     2.0000000000
Ni      2.4570542700     2.8371618880     2.0000000000
Ni     -4.9148457300     2.8371618880     2.0000000000
Ni      0.0000000000    -1.4185809440     2.0000000000
Ni     -7.3719000000    -1.4185809440     2.0000000000
Ni      3.6855814050     0.7092904720     2.0000000000
Ni     -3.6863185950     0.7092904720     2.0000000000
Ni      4.9141085400     2.8371618880     2.0000000000
Ni     -2.4577914600     2.8371618880     2.0000000000
Ni      2.4570542700    -1.4185809440     2.0000000000
Ni     -4.9148457300    -1.4185809440     2.0000000000
Ni      6.1433728650     0.7092904720     2.0000000000
Ni     -1.2285271350     0.7092904720     2.0000000000
Ni      7.3719000000     2.8371618880     2.0000000000
Ni      0.0000000000     2.8371618880     2.0000000000
Ni      4.9148457300    -1.4185809440     2.0000000000
Ni     -2.4570542700    -1.4185809440     2.0000000000
Ni      0.0396542580    -0.0168550600     3.9977331751
Ni     -7.3337244249    -0.0191413661     3.9998648672
Ni      1.2632681335     2.1076665056     3.9979324960
Ni     -6.0995924516     2.1130867214     3.9983328332
Ni     -1.1882777475    -2.1452776557     3.9969467366
Ni     -8.5648488515    -2.1427836002     4.0065759515
Ni      2.4990561706    -0.0125540107     4.0035467321
Ni     -4.8730151472    -0.0192420055     3.9958011450
Ni      3.7255414694     2.1053567206     4.0032192266
Ni     -3.6478405721     2.1128783269     4.0083499211
Ni      1.2692220444    -2.1461626179     3.9968061801
Ni     -6.1066309219    -2.1511081750     4.0002316750
Ni      4.9542547071    -0.0165339577     4.0123211195
Ni     -2.4210335749    -0.0173052614     3.9974960459
Ni      6.1849261052     2.1101041727     4.0027777283
Ni     -1.1959313417     2.1130607206     4.0008349443
Ni      3.7258957407    -2.1396470868     3.9902654176
Ni     -3.6455473908    -2.1503212252     3.9931932811
Ni      1.2199424353     0.7226180228     6.0142490121
Ni     -6.1618354895     0.7134444446     6.0073869282
Ni      2.4417791000     2.8490574131     5.9957088670
Ni     -4.9005730056     2.8474232341     6.0252132067
Ni     -0.0154010480    -1.4020592055     6.0068315129
Ni     -7.3712901586    -1.3892777221     6.0229889109
Ni      3.6904550800     0.7158696438     6.0487666416
Ni     -3.6965564790     0.7383329722     6.0276382359
Ni      4.9029223495     2.8563733498     6.0126503507
Ni     -2.4823035152     2.8380082575     6.0489280488
Ni      2.4430655985    -1.3989293264     6.0050213649
Ni     -4.9174522917    -1.4153900323     5.9981623744
Ni      6.1312830090     0.7235416861     6.0180212476
Ni     -1.2398302249     0.7237519572     6.0008989612
Ni      7.3676249636     2.8571645496     5.9960467288
Ni     -0.0169760703     2.8502817012     6.0086854161
Ni      4.9147261187    -1.3898855226     6.0320584276
Ni     -2.4776029321    -1.4068503610     6.0014512824
Ni      0.0094001943     0.0062964709     8.0128061687
Ni     -7.3336571293    -0.0160141888     8.1099121354
Ni      1.2451982560     2.1258788337     8.0109155286
Ni      8.6351765994     2.1467567093     7.9410091515
Ni     -1.2137656872    -2.1277925862     8.0008835405
Ni     -8.5765911472    -2.1480874399     7.9866225849
Ni      2.4589977980     0.0050723668     8.0279714932
Ni     -4.8867038942    -0.0275074645     7.9748176870
Ni      3.6605907807     2.1631224414     7.9876945882
Ni     -3.6610162834     2.1018882389     8.1720406987
Ni      1.2297862893    -2.1022651272     8.0127243754
Ni     -6.1110656789    -2.1286162936     8.0023056092
Ni      4.9011814045    -0.0208374258     8.1436384150
Ni     -2.4187418445    -0.0252708826     7.9838488774
Ni      6.1648267969     2.2006789444     8.0180757089
Ni     -1.1895665272     2.1182002826     8.0084575699
Ni      3.6977364805    -2.1042842748     7.9975911454
Ni     -3.6668256082    -2.1383080120     8.0182499807
O       6.1807717232     0.8643760655     9.3844667006
H      10.7682601020     2.8747296386    10.5943696393
H       7.0328550440     2.0819925739    10.8480174516
H       1.7556047587    -4.9829609196    11.2485817261
C       6.4046674933     1.1702808010    10.7714614178
O       7.7281855727    -0.8112618549    10.9849963371
H      -7.0350021672    -0.8381319066     9.8918770911
C       7.1333718043     0.1459986721    11.5751870459
H       8.5094432441     4.2763118004    11.8265280252
C       8.6092982795     4.3895923320    12.9219047337
H       4.0880038666    -1.3741857455    13.2775492717
H       9.5457712315     4.9241925832    13.1337935099
O       8.5490948947     3.1059265959    13.5584749447
H       9.4099264625     2.9136562217    13.9594169673
O      -3.7971439729     1.9675338389    10.2775611620
H      -2.8805400472     1.7594684835    10.5465458202
88
Step 5 | NEB Image 5 | Cartesian Angstrom
Ni      1.2285271350     0.7092904720     2.0000000000
Ni     -6.1433728650     0.7092904720     2.0000000000
Ni      2.4570542700     2.8371618880     2.0000000000
Ni     -4.9148457300     2.8371618880     2.0000000000
Ni      0.0000000000    -1.4185809440     2.0000000000
Ni     -7.3719000000    -1.4185809440     2.0000000000
Ni      3.6855814050     0.7092904720     2.0000000000
Ni     -3.6863185950     0.7092904720     2.0000000000
Ni      4.9141085400     2.8371618880     2.0000000000
Ni     -2.4577914600     2.8371618880     2.0000000000
Ni      2.4570542700    -1.4185809440     2.0000000000
Ni     -4.9148457300    -1.4185809440     2.0000000000
Ni      6.1433728650     0.7092904720     2.0000000000
Ni     -1.2285271350     0.7092904720     2.0000000000
Ni      7.3719000000     2.8371618880     2.0000000000
Ni      0.0000000000     2.8371618880     2.0000000000
Ni      4.9148457300    -1.4185809440     2.0000000000
Ni     -2.4570542700    -1.4185809440     2.0000000000
Ni      0.0464326620    -0.0306468460     3.9976675890
Ni     -7.3257303870    -0.0255862300     3.9933782980
Ni      1.2739848450     2.0960038070     3.9979157030
Ni     -6.1026021170     2.1049500680     4.0019149180
Ni     -1.1827110610    -2.1546561820     3.9989053170
Ni     -8.5597082650    -2.1592869340     3.9982394010
Ni      2.5024778430    -0.0256743600     4.0031952220
Ni     -4.8641413240    -0.0227350050     3.9956475690
Ni      3.7346756480     2.0985190290     4.0083618800
Ni     -3.6458198020     2.0991473590     4.0056686860
Ni      1.2703768650    -2.1597674920     4.0015811390
Ni     -6.0933336510    -2.1603781540     3.9902680500
Ni      4.9590538200    -0.0289845540     4.0074783820
Ni     -2.4167678920    -0.0248088220     4.0022401470
Ni      6.1885777810     2.1026461420     4.0098077600
Ni     -1.1844811720     2.0985803670     3.9964394390
Ni      3.7245308300    -2.1560713310     3.9888953010
Ni     -3.6351397940    -2.1574140910     3.9933365850
Ni      1.2278611130     0.7073057200     6.0134419810
Ni     -6.1428898530     0.6957346210     6.0102358510
Ni      2.4563605190     2.8356121920     5.9987058000
Ni     -4.8924583120     2.8187736320     6.0264580820
Ni      0.0002252210    -1.4241376010     6.0155868270
Ni     -7.3667991100    -1.4101212980     5.9895528060
Ni      3.6921281460     0.7008202940     6.0360645010
Ni     -3.6779272240     0.7256007260     6.0512861550
Ni      4.9267336850     2.8309168990     6.0432780270
Ni     -2.4664659500     2.8157315660     6.0151173370
Ni      2.4509011280    -1.4197685090     6.0062316800
Ni     -4.8985683740    -1.4191884620     5.9881596610
Ni      6.1372839650     0.7115480370     6.0073921100
Ni     -1.2256557510     0.7019370040     6.0032560690
Ni      7.3730564330     2.8242126570     6.0269074010
Ni     -0.0034566730     2.8405670140     6.0010880700
Ni      4.9162369820    -1.4189308570     6.0083232610
Ni     -2.4596272260    -1.4182314770     6.0084483810
Ni      0.0277268390    -0.0168450280     8.0180888710
Ni     -7.3091221710    -0.0327920680     8.0371701400
Ni      1.2611452740     2.1078740620     8.0062525300
Ni      8.6667549770     2.1138793650     7.9801313330
Ni     -1.1942402360    -2.1496555940     8.0109921590
Ni     -8.5668484660    -2.1735761150     7.9430911750
Ni      2.4712577410    -0.0190631580     8.0243063390
Ni     -4.8670711400    -0.0431110720     7.9967287920
Ni      3.6750137580     2.1321536040     7.9940007810
Ni     -3.6274773380     2.0999917070     8.2089215290
Ni      1.2517815200    -2.1329879940     8.0267060850
Ni     -6.0785108950    -2.1534189890     7.9361595560
Ni      4.9123316280    -0.0512787390     8.0829089500
Ni     -2.4007725170    -0.0429334740     8.0081832520
Ni      6.1908597070     2.1505617180     8.1094472440
Ni     -1.1654360560     2.0989982700     7.9806126390
Ni      3.7077660390    -2.1419918620     7.9975968800
Ni     -3.6463297530    -2.1524111230     8.0158878220
O       6.1707187590     0.6663307040     9.3727337630
H      11.2555922500     3.1706166680    10.5266232770
H       7.1149227860     1.0824741990    11.1550798120
H       1.6297081310    -5.3793991980    11.2177269450
C       6.2238707100     0.5353136510    10.8108846880
O       7.5718415080    -1.5277099790    10.9241884940
H      -6.8828388710    -1.2337967880    10.0124245870
C       6.2850334910    -0.9302036460    11.2182633770
H       9.1791669060     4.9099545600    10.6626973770
C       9.7467965870     5.2786349730    12.7161077750
H       5.0959169980    -0.6608682970    12.9933131080
H      10.5457770910     5.8077082870    13.2666670860
O       9.6783811350     3.9068622240    13.1006105230
H      10.5447055700     3.5019751520    12.9206205020
O      -3.5153567700     2.2005093110    10.2599052050
H      -2.6227032800     1.8412518110    10.4321503050
