88
Step 1 | NEB Image 1 | Cartesian Angstrom
Ni      1.2285271350     0.7092904720     2.0000000000
Ni     -6.1433728650     0.7092904720     2.0000000000
Ni      2.4570542700     2.8371618880     2.0000000000
Ni     -4.9148457300     2.8371618880     2.0000000000
Ni      0.0000000000    -1.4185809440     2.0000000000
Ni     -7.3719000000    -1.4185809440     2.0000000000
Ni      3.6855814050     0.7092904720     2.0000000000
Ni     -3.6863185950     0.7092904720     2.0000000000
Ni      4.9141085400     2.8371618880     2.0000000000
Ni     -2.4577914600     2.8371618880     2.0000000000
Ni      2.4570542700    -1.4185809440     2.0000000000
Ni     -4.9148457300    -1.4185809440     2.0000000000
Ni      6.1433728650     0.7092904720     2.0000000000
Ni     -1.2285271350     0.7092904720     2.0000000000
Ni      7.3719000000     2.8371618880     2.0000000000
Ni      0.0000000000     2.8371618880     2.0000000000
Ni      4.9148457300    -1.4185809440     2.0000000000
Ni     -2.4570542700    -1.4185809440     2.0000000000
Ni      0.0345187234    -0.0219895959     3.9906686506
Ni     -7.3332872529    -0.0205271350     3.9970929970
Ni      1.2574298371     2.1090479016     3.9981086770
Ni     -6.1061214153     2.1042281316     4.0017605185
Ni     -1.1958375155    -2.1495425789     3.9888614873
Ni     -8.5615731291    -2.1597422030     3.9935633301
Ni      2.4909200515    -0.0209290578     3.9889124626
Ni     -4.8775455868    -0.0288695998     4.0155932973
Ni      3.7235299523     2.1102350339     3.9932622384
Ni     -3.6483031855     2.1055811522     4.0174271749
Ni      1.2597529797    -2.1544756242     3.9969618463
Ni     -6.1074652262    -2.1506208434     4.0019689283
Ni      4.9550771908    -0.0234645643     3.9935565644
Ni     -2.4269867653    -0.0199772708     3.9982338911
Ni      6.1741097051     2.1083418571     4.0046158614
Ni     -1.1996729370     2.1123145435     4.0000024585
Ni      3.7197951829    -2.1539414756     3.9921760547
Ni     -3.6589301935    -2.1514998115     3.9994955107
Ni      1.2136841869     0.7163863979     5.9963073096
Ni     -6.1473437226     0.7096773911     6.0218176054
Ni      2.4453295017     2.8415084524     5.9971730433
Ni     -4.9231971923     2.8360653972     6.0327934449
Ni     -0.0226348385    -1.4110330430     6.0020236029
Ni     -7.3908667378    -1.4145678834     5.9981301391
Ni      3.6669417345     0.7157583701     5.9869138182
Ni     -3.7108784987     0.7190435175     6.0328517480
Ni      4.9057976617     2.8388244163     6.0411982092
Ni     -2.4814248435     2.8298458387     6.0521186228
Ni      2.4355069788    -1.4085502466     5.9888639843
Ni     -4.9252928465    -1.4026264080     6.0548563839
Ni      6.1341025786     0.7315238745     6.0218817427
Ni     -1.2402669783     0.7221835538     5.9926808095
Ni      7.3408175190     2.8291688103     6.0248565089
Ni     -0.0225097209     2.8466795557     6.0142376281
Ni      4.9088271165    -1.4251457534     5.9900387779
Ni     -2.4790699264    -1.4211153466     5.9913638200
Ni      0.0337137405    -0.0099863123     8.0038502320
Ni     -7.3606520147    -0.0334139511     7.9835827732
Ni      1.2525382386     2.1076756093     8.0014158677
Ni      8.5596645315     2.1514300915     7.9633346422
Ni     -1.1983605499    -2.1613845897     8.0018652759
Ni     -8.5927669864    -2.1264268734     8.0165035337
Ni      2.4708324722    -0.0109047600     8.0065027389
Ni     -4.8995212632    -0.0584838282     8.1493062015
Ni      3.6789469906     2.1047412898     7.9888648741
Ni     -3.6333178494     2.1270714900     8.1546283531
Ni      1.2394335961    -2.1164979174     7.9892760222
Ni     -6.1305722611    -2.1461024656     7.9989212299
Ni      4.9150163145    -0.0283439881     7.9490640309
Ni     -2.3653823178    -0.0601929248     7.9425724452
Ni      6.1349712758     2.1197335004     8.1598232492
Ni     -1.1861990586     2.1067384809     8.0263285947
Ni      3.6953023012    -2.1157302873     7.9694462946
Ni     -3.6468332403    -2.1628724713     8.0264725749
O       5.9486020032     1.9536774433    10.1568983318
H       6.2023593986     1.0444615420    10.4395396161
H       7.6485803319     2.9982816350    10.7947394844
H       2.3841835216    -2.5662265370    10.9995346326
C       6.5922936452     2.8570131008    11.0871865803
O       6.8828593053     0.8516013498    12.3925733789
H      -6.8879959571     0.8254517200    12.3248078773
C       6.4620997723     2.2299052156    12.4710261049
H       5.3979785171     2.1706601767    12.7461907790
C       7.1981974178     3.0342299686    13.5247288963
H       3.2389656514    -2.2859498111    13.4051121917
H       8.2901195875     2.9478942375    13.3576433856
O       6.8260697992     2.5426661176    14.8120038538
H       7.2522042786     3.0948827032    15.4870039972
O      -4.3927237137     1.0982075682     9.5865509607
H      -3.6717371060     0.6667680985    10.0888232085
88
Step 2 | NEB Image 2 | Cartesian Angstrom
Ni      1.2285271350     0.7092904720     2.0000000000
Ni     -6.1433728650     0.7092904720     2.0000000000
Ni      2.4570542700     2.8371618880     2.0000000000
Ni     -4.9148457300     2.8371618880     2.0000000000
Ni      0.0000000000    -1.4185809440     2.0000000000
Ni     -7.3719000000    -1.4185809440     2.0000000000
Ni      3.6855814050     0.7092904720     2.0000000000
Ni     -3.6863185950     0.7092904720     2.0000000000
Ni      4.9141085400     2.8371618880     2.0000000000
Ni     -2.4577914600     2.8371618880     2.0000000000
Ni      2.4570542700    -1.4185809440     2.0000000000
Ni     -4.9148457300    -1.4185809440     2.0000000000
Ni      6.1433728650     0.7092904720     2.0000000000
Ni     -1.2285271350     0.7092904720     2.0000000000
Ni      7.3719000000     2.8371618880     2.0000000000
Ni      0.0000000000     2.8371618880     2.0000000000
Ni      4.9148457300    -1.4185809440     2.0000000000
Ni     -2.4570542700    -1.4185809440     2.0000000000
Ni      0.0352532196    -0.0137429892     3.9931740896
Ni     -7.3219283103    -0.0054644572     4.0070876950
Ni      1.2583055613     2.1186488095     3.9970324103
Ni     -6.1070074314     2.1168759383     4.0313516686
Ni     -1.1943622414    -2.1386440499     3.9897586749
Ni     -8.5583886943    -2.1491057048     4.0044701473
Ni      2.4939355192    -0.0158094744     3.9934815558
Ni     -4.8815379748    -0.0077433466     4.0275116728
Ni      3.7261040987     2.1162122717     3.9964195934
Ni     -3.6478051909     2.1215438295     4.0203344835
Ni      1.2622832209    -2.1450235512     3.9994481909
Ni     -6.1038448854    -2.1354173084     4.0065290894
Ni      4.9616142590    -0.0166575484     3.9983810438
Ni     -2.4289139024    -0.0056812668     3.9994796116
Ni      6.1813070306     2.1186577088     4.0067287717
Ni     -1.1994678784     2.1237625428     3.9992350477
Ni      3.7235490146    -2.1524717843     4.0022861685
Ni     -3.6590958432    -2.1331695115     4.0015869741
Ni      1.2158715484     0.7319034528     5.9966593479
Ni     -6.1217424105     0.7555646044     6.0986101300
Ni      2.4439405158     2.8595731853     5.9904232206
Ni     -4.9274803882     2.8441789891     6.0630234045
Ni     -0.0155442374    -1.3978624204     6.0067744327
Ni     -7.3800049172    -1.3897140266     6.0094715520
Ni      3.6701266959     0.7273809501     5.9914621746
Ni     -3.7004861968     0.7424126341     6.0453334238
Ni      4.9132144139     2.8514577728     6.0395615743
Ni     -2.4755030162     2.8627722815     6.0508972205
Ni      2.4397830347    -1.4019448586     6.0019284942
Ni     -4.9173517939    -1.3621596546     6.0632596767
Ni      6.1426096772     0.7351347413     6.0144584237
Ni     -1.2369781506     0.7407745676     5.9943272282
Ni      7.3552150850     2.8329272867     6.0783127369
Ni     -0.0189950542     2.8731101572     6.0058919409
Ni      4.9057001820    -1.4098885318     5.9981547593
Ni     -2.4706111562    -1.3984110737     5.9939359859
Ni      0.0347885098     0.0071895348     8.0038624649
Ni     -7.3165035788    -0.0109034403     7.9895768131
Ni      1.2493522303     2.1335201830     7.9975801829
Ni      8.5685910063     2.2363989626     8.1935643925
Ni     -1.1982267504    -2.1364116803     8.0030910770
Ni     -8.5660004537    -2.0786560255     7.9999655705
Ni      2.4571316900     0.0138817321     8.0068591348
Ni     -4.8122056682     0.0150426349     8.2545674512
Ni      3.6625105257     2.1363531933     7.9794119353
Ni     -3.5889089575     2.1788343670     8.1304633492
Ni      1.2355166457    -2.1113169389     8.0161625759
Ni     -6.0871285712    -2.0926389389     8.0107786670
Ni      4.8986274131    -0.0053028269     7.9657134437
Ni     -2.3582127029    -0.0314156975     7.9581498350
Ni      6.1099975266     2.1155480631     8.1266813265
Ni     -1.1668025170     2.1390897067     8.0099566224
Ni      3.6696879518    -2.0712315785     7.9949950866
Ni     -3.6397053478    -2.1281278163     8.0285294710
O       6.1242813245     1.4007361488    10.0181497178
H       9.0562701036     2.6099853607     9.7491192489
H       8.2536402668     2.3003638182     9.8136029005
H       1.4745114736    -3.5714738203    11.0975868535
C       5.9378861695     2.0404975518    11.0726190907
O       7.3715911920     0.4603261146    12.1333691010
H      -7.4877482559     0.1749306505    11.1928510768
C       6.6942565202     1.6941007982    12.3144932382
H       5.9283493858     1.6618437883    13.1191411344
C       7.5414769138     2.9054661079    12.9312933313
H       3.4093445444    -2.4930811808    12.6854126137
H       8.5607230356     2.8822909327    12.5252395816
O       7.5487056444     2.7532005323    14.3610450679
H       8.1893937629     3.3798773876    14.7465419388
O      -4.0548951136     1.2127315985     9.6975592150
H      -3.2388471616     1.0081902733    10.1987388964
88
Step 3 | NEB Image 3 | Cartesian Angstrom
Ni      1.2285271350     0.7092904720     2.0000000000
Ni     -6.1433728650     0.7092904720     2.0000000000
Ni      2.4570542700     2.8371618880     2.0000000000
Ni     -4.9148457300     2.8371618880     2.0000000000
Ni      0.0000000000    -1.4185809440     2.0000000000
Ni     -7.3719000000    -1.4185809440     2.0000000000
Ni      3.6855814050     0.7092904720     2.0000000000
Ni     -3.6863185950     0.7092904720     2.0000000000
Ni      4.9141085400     2.8371618880     2.0000000000
Ni     -2.4577914600     2.8371618880     2.0000000000
Ni      2.4570542700    -1.4185809440     2.0000000000
Ni     -4.9148457300    -1.4185809440     2.0000000000
Ni      6.1433728650     0.7092904720     2.0000000000
Ni     -1.2285271350     0.7092904720     2.0000000000
Ni      7.3719000000     2.8371618880     2.0000000000
Ni      0.0000000000     2.8371618880     2.0000000000
Ni      4.9148457300    -1.4185809440     2.0000000000
Ni     -2.4570542700    -1.4185809440     2.0000000000
Ni      0.0288238056    -0.0086280679     3.9968540153
Ni     -7.3416247215    -0.0130797641     4.0001718097
Ni      1.2517059343     2.1154021438     3.9968932482
Ni     -6.1063175066     2.1187442482     3.9981447078
Ni     -1.1990579760    -2.1368969412     3.9956864928
Ni     -8.5718296542    -2.1358044053     4.0078121886
Ni      2.4889038610    -0.0048731307     4.0017200094
Ni     -4.8818864862    -0.0128963646     3.9985233325
Ni      3.7145456457     2.1130102644     3.9989853038
Ni     -3.6562977277     2.1204448118     4.0109381498
Ni      1.2595333917    -2.1382336141     3.9942848271
Ni     -6.1161694400    -2.1439547021     4.0039737262
Ni      4.9455896076    -0.0094724661     4.0103919418
Ni     -2.4310385294    -0.0096694186     3.9975244940
Ni      6.1767281127     2.1160949267     4.0007735686
Ni     -1.2066128768     2.1210279230     4.0018870741
Ni      3.7176911258    -2.1317855206     3.9857097308
Ni     -3.6561831780    -2.1428819462     3.9944998052
Ni      1.2034601655     0.7346115605     6.0134137159
Ni     -6.1789687148     0.7253475130     6.0107867816
Ni      2.4238628094     2.8620307237     5.9910885897
Ni     -4.9155884506     2.8596084038     6.0284089610
Ni     -0.0324750696    -1.3893056062     6.0047102705
Ni     -7.3857319728    -1.3755741964     6.0307880792
Ni      3.6733005149     0.7279384816     6.0414730483
Ni     -3.7126800855     0.7509396500     6.0302702818
Ni      4.8855280780     2.8691011247     6.0027659960
Ni     -2.4988996028     2.8514403506     6.0575434453
Ni      2.4270558148    -1.3872083628     6.0013183480
Ni     -4.9340226863    -1.4040948832     6.0044864419
Ni      6.1177316439     0.7332147489     6.0144799793
Ni     -1.2566019013     0.7367510032     6.0025344673
Ni      7.3551716526     2.8713521420     5.9877115656
Ni     -0.0340147231     2.8618890419     6.0108863014
Ni      4.8995691417    -1.3794001226     6.0275898092
Ni     -2.4945916680    -1.3935534070     6.0026900822
Ni     -0.0118194125     0.0216450535     8.0111614374
Ni     -7.3537991070     0.0048605626     8.1268124366
Ni      1.2244286169     2.1416920664     8.0100258216
Ni      8.6119885644     2.1614402681     7.9405084682
Ni     -1.2353150700    -2.1121073663     7.9989212798
Ni     -8.5947606914    -2.1272042156     7.9900311519
Ni      2.4364730111     0.0204636175     8.0250710158
Ni     -4.9082623465    -0.0121637740     7.9783102629
Ni      3.6357685998     2.1811925098     7.9747244500
Ni     -3.6806884494     2.1201511324     8.1787244686
Ni      1.2077514238    -2.0850037141     8.0081497806
Ni     -6.1335979769    -2.1091487723     8.0170483360
Ni      4.8764150063    -0.0093334982     8.1320800523
Ni     -2.4402332121    -0.0077350567     7.9863020974
Ni      6.1504921398     2.2219853335     7.9949141152
Ni     -1.2102504605     2.1338917220     8.0141184027
Ni      3.6769002049    -2.0877756584     7.9917084302
Ni     -3.6871851286    -2.1229639293     8.0205911474
O       6.0755111227     0.9126816281     9.3676415946
H      10.5985265313     2.8937720594    10.5651238090
H       6.7371097020     2.1851062935    10.8637599928
H       1.3780904967    -4.7743277597    11.0439027055
C       6.0797648744     1.2997482558    10.7514911059
O       7.1525823733    -0.7611789319    11.2169755885
H      -7.5379552964    -0.8047895765    10.1753950556
C       6.5974905372     0.2874296099    11.7180033753
H       6.4744327046     3.2339741391    13.2049369428
C       7.4616499513     3.6025592997    13.5120803694
H       3.8231214008    -1.6943145090    13.3282707192
H       8.2258186866     3.1052581490    12.8859125725
O       7.5962049692     3.2764639746    14.8948804383
H       8.4151276331     3.6759130172    15.2296383123
O      -3.8845292351     1.9976128187    10.2733596044
H      -2.9839670837     1.8449128657    10.6200023294
88
Step 4 | NEB Image 4 | Cartesian Angstrom
Ni      1.2285271350     0.7092904720     2.0000000000
Ni     -6.1433728650     0.7092904720     2.0000000000
Ni      2.4570542700     2.8371618880     2.0000000000
Ni     -4.9148457300     2.8371618880     2.0000000000
Ni      0.0000000000    -1.4185809440     2.0000000000
Ni     -7.3719000000    -1.4185809440     2.0000000000
Ni      3.6855814050     0.7092904720     2.0000000000
Ni     -3.6863185950     0.7092904720     2.0000000000
Ni      4.9141085400     2.8371618880     2.0000000000
Ni     -2.4577914600     2.8371618880     2.0000000000
Ni      2.4570542700    -1.4185809440     2.0000000000
Ni     -4.9148457300    -1.4185809440     2.0000000000
Ni      6.1433728650     0.7092904720     2.0000000000
Ni     -1.2285271350     0.7092904720     2.0000000000
Ni      7.3719000000     2.8371618880     2.0000000000
Ni      0.0000000000     2.8371618880     2.0000000000
Ni      4.9148457300    -1.4185809440     2.0000000000
Ni     -2.4570542700    -1.4185809440     2.0000000000
Ni      0.0412440649    -0.0256127834     3.9970199664
Ni     -7.3390660807    -0.0175023896     4.0021656484
Ni      1.2657158477     2.1021471415     3.9978610254
Ni     -6.1072401703     2.1079850886     4.0018418145
Ni     -1.1898521845    -2.1512219684     3.9975865264
Ni     -8.5671783718    -2.1471407833     4.0044624926
Ni      2.4996276908    -0.0199837678     4.0043552469
Ni     -4.8746605698    -0.0175738665     3.9973212807
Ni      3.7252001416     2.1010919480     4.0091979830
Ni     -3.6512247091     2.1076472356     4.0038323615
Ni      1.2643814261    -2.1572238207     4.0017689772
Ni     -6.1065624071    -2.1504548006     3.9963040423
Ni      4.9521702094    -0.0210093213     4.0143615536
Ni     -2.4222249464    -0.0207112078     3.9960302394
Ni      6.1792118421     2.1041781285     4.0099577197
Ni     -1.1941340645     2.1082803596     3.9948204624
Ni      3.7189442069    -2.1487727957     3.9937738514
Ni     -3.6461404992    -2.1506238839     3.9914720494
Ni      1.2194821296     0.7163509289     6.0126157277
Ni     -6.1584032564     0.7052228231     6.0169521136
Ni      2.4446123551     2.8423301451     6.0001495200
Ni     -4.9008230847     2.8363196133     6.0201675715
Ni     -0.0154786785    -1.4136389821     6.0106123528
Ni     -7.3743928499    -1.3951449613     6.0140303863
Ni      3.6864369202     0.7055183752     6.0513209996
Ni     -3.6922237593     0.7312629929     6.0294135677
Ni      4.9087749242     2.8381097587     6.0347507967
Ni     -2.4745675290     2.8381731508     6.0192740508
Ni      2.4332779914    -1.4086786017     6.0060745540
Ni     -4.9137919594    -1.4128634866     5.9967375292
Ni      6.1318985040     0.7145835456     6.0343002204
Ni     -1.2395575698     0.7181520262     5.9935697578
Ni      7.3609701752     2.8402033610     6.0133415711
Ni     -0.0119786158     2.8506807129     5.9999943011
Ni      4.9029182120    -1.4031908271     6.0230981335
Ni     -2.4735307047    -1.4100934256     6.0004227011
Ni      0.0157369316    -0.0088706163     8.0093956910
Ni     -7.3332558122    -0.0082785179     8.1044009079
Ni      1.2472532820     2.1146122711     8.0107751368
Ni      8.6438125124     2.1443193070     7.9635915099
Ni     -1.2088748328    -2.1359532288     8.0074831402
Ni     -8.5933141281    -2.1529673352     7.9592226415
Ni      2.4554349092    -0.0091552849     8.0297665150
Ni     -4.8425934814    -0.0041478674     8.0042483120
Ni      3.6622675224     2.1417332278     7.9993156224
Ni     -3.6521781928     2.1066300867     8.1334722074
Ni      1.2290167782    -2.1248212845     8.0239173877
Ni     -6.0922322464    -2.1576351603     7.9915613606
Ni      4.8968073667    -0.0424943613     8.1297410829
Ni     -2.4124438263    -0.0299745089     7.9855901989
Ni      6.1661912634     2.1732582768     8.0792651908
Ni     -1.1739496499     2.1073038009     7.9835764249
Ni      3.6810892695    -2.1241124972     7.9966712238
Ni     -3.6447156400    -2.1490233072     8.0150317226
O       6.1317363905     0.7575667897     9.4404451785
H      11.2320010750     3.1623382171    10.4506576979
H       6.8908842376     1.8142851792    11.0744803535
H       1.6004574014    -5.3340904043    11.3146466817
C       6.2746185029     0.9255712462    10.8454672385
O       7.5159063571    -1.2038182279    11.1695806366
H      -6.0439013032    -0.7592004213     8.9096495313
C       6.9736998114    -0.2180997788    11.5464184755
H       8.0440705353     4.4221493824    11.7146919142
C       8.2107263788     4.3177282955    12.7952840597
H       3.6599875200    -1.6475818896    13.3341215629
H       9.1100244490     4.8980999452    13.0659073265
O       8.3753892859     2.9185746773    13.0491304699
H       8.5749210766     2.7984628534    13.9921090143
O      -3.6133430608     2.2091779086    10.2382995511
H      -2.7457838099     1.8007959793    10.4320534409
88
Step 5 | NEB Image 5 | Cartesian Angstrom
Ni      1.2285271350     0.7092904720     2.0000000000
Ni     -6.1433728650     0.7092904720     2.0000000000
Ni      2.4570542700     2.8371618880     2.0000000000
Ni     -4.9148457300     2.8371618880     2.0000000000
Ni      0.0000000000    -1.4185809440     2.0000000000
Ni     -7.3719000000    -1.4185809440     2.0000000000
Ni      3.6855814050     0.7092904720     2.0000000000
Ni     -3.6863185950     0.7092904720     2.0000000000
Ni      4.9141085400     2.8371618880     2.0000000000
Ni     -2.4577914600     2.8371618880     2.0000000000
Ni      2.4570542700    -1.4185809440     2.0000000000
Ni     -4.9148457300    -1.4185809440     2.0000000000
Ni      6.1433728650     0.7092904720     2.0000000000
Ni     -1.2285271350     0.7092904720     2.0000000000
Ni      7.3719000000     2.8371618880     2.0000000000
Ni      0.0000000000     2.8371618880     2.0000000000
Ni      4.9148457300    -1.4185809440     2.0000000000
Ni     -2.4570542700    -1.4185809440     2.0000000000
Ni      0.0464326620    -0.0306468460     3.9976675890
Ni     -7.3257303870    -0.0255862300     3.9933782980
Ni      1.2739848450     2.0960038070     3.9979157030
Ni     -6.1026021170     2.1049500680     4.0019149180
Ni     -1.1827110610    -2.1546561820     3.9989053170
Ni     -8.5597082650    -2.1592869340     3.9982394010
Ni      2.5024778430    -0.0256743600     4.0031952220
Ni     -4.8641413240    -0.0227350050     3.9956475690
Ni      3.7346756480     2.0985190290     4.0083618800
Ni     -3.6458198020     2.0991473590     4.0056686860
Ni      1.2703768650    -2.1597674920     4.0015811390
Ni     -6.0933336510    -2.1603781540     3.9902680500
Ni      4.9590538200    -0.0289845540     4.0074783820
Ni     -2.4167678920    -0.0248088220     4.0022401470
Ni      6.1885777810     2.1026461420     4.0098077600
Ni     -1.1844811720     2.0985803670     3.9964394390
Ni      3.7245308300    -2.1560713310     3.9888953010
Ni     -3.6351397940    -2.1574140910     3.9933365850
Ni      1.2278611130     0.7073057200     6.0134419810
Ni     -6.1428898530     0.6957346210     6.0102358510
Ni      2.4563605190     2.8356121920     5.9987058000
Ni     -4.8924583120     2.8187736320     6.0264580820
Ni      0.0002252210    -1.4241376010     6.0155868270
Ni     -7.3667991100    -1.4101212980     5.9895528060
Ni      3.6921281460     0.7008202940     6.0360645010
Ni     -3.6779272240     0.7256007260     6.0512861550
Ni      4.9267336850     2.8309168990     6.0432780270
Ni     -2.4664659500     2.8157315660     6.0151173370
Ni      2.4509011280    -1.4197685090     6.0062316800
Ni     -4.8985683740    -1.4191884620     5.9881596610
Ni      6.1372839650     0.7115480370     6.0073921100
Ni     -1.2256557510     0.7019370040     6.0032560690
Ni      7.3730564330     2.8242126570     6.0269074010
Ni     -0.0034566730     2.8405670140     6.0010880700
Ni      4.9162369820    -1.4189308570     6.0083232610
Ni     -2.4596272260    -1.4182314770     6.0084483810
Ni      0.0277268390    -0.0168450280     8.0180888710
Ni     -7.3091221710    -0.0327920680     8.0371701400
Ni      1.2611452740     2.1078740620     8.0062525300
Ni      8.6667549770     2.1138793650     7.9801313330
Ni     -1.1942402360    -2.1496555940     8.0109921590
Ni     -8.5668484660    -2.1735761150     7.9430911750
Ni      2.4712577410    -0.0190631580     8.0243063390
Ni     -4.8670711400    -0.0431110720     7.9967287920
Ni      3.6750137580     2.1321536040     7.9940007810
Ni     -3.6274773380     2.0999917070     8.2089215290
Ni      1.2517815200    -2.1329879940     8.0267060850
Ni     -6.0785108950    -2.1534189890     7.9361595560
Ni      4.9123316280    -0.0512787390     8.0829089500
Ni     -2.4007725170    -0.0429334740     8.0081832520
Ni      6.1908597070     2.1505617180     8.1094472440
Ni     -1.1654360560     2.0989982700     7.9806126390
Ni      3.7077660390    -2.1419918620     7.9975968800
Ni     -3.6463297530    -2.1524111230     8.0158878220
O       6.1707187590     0.6663307040     9.3727337630
H      11.2555922500     3.1706166680    10.5266232770
H       7.1149227860     1.0824741990    11.1550798120
H       1.6297081310    -5.3793991980    11.2177269450
C       6.2238707100     0.5353136510    10.8108846880
O       7.5718415080    -1.5277099790    10.9241884940
H      -6.8828388710    -1.2337967880    10.0124245870
C       6.2850334910    -0.9302036460    11.2182633770
H       9.1791669060     4.9099545600    10.6626973770
C       9.7467965870     5.2786349730    12.7161077750
H       5.0959169980    -0.6608682970    12.9933131080
H      10.5457770910     5.8077082870    13.2666670860
O       9.6783811350     3.9068622240    13.1006105230
H      10.5447055700     3.5019751520    12.9206205020
O      -3.5153567700     2.2005093110    10.2599052050
H      -2.6227032800     1.8412518110    10.4321503050
