147
Step 1 | ATOMIC_POSITIONS (angstrom) | Cartesian Angstrom
NI      1.2254504230     0.7101865830     1.4556095020
NI      2.4444040200     2.8214761450     1.4556095020
NI      3.6633576180     4.9327657080     1.4556095020
NI      4.8823112150     7.0440552710     1.4556095020
NI      6.1012648120     9.1553448320     1.4556095020
NI      7.3202184090    11.2666343950     1.4556095020
NI      3.6633576170     0.7101865830     1.4556095020
NI      4.8823112140     2.8214761450     1.4556095020
NI      6.1012648110     4.9327657080     1.4556095020
NI      7.3202184090     7.0440552710     1.4556095020
NI      8.5391720050     9.1553448320     1.4556095020
NI      9.7581256030    11.2666343950     1.4556095020
NI      6.1012648120     0.7101865830     1.4556095020
NI      7.3202184090     2.8214761450     1.4556095020
NI      8.5391720060     4.9327657080     1.4556095020
NI      9.7581256040     7.0440552710     1.4556095020
NI     10.9770792000     9.1553448320     1.4556095020
NI     12.1960327980    11.2666343950     1.4556095020
NI      8.5391720070     0.7101865830     1.4556095020
NI      9.7581256040     2.8214761450     1.4556095020
NI     10.9770792010     4.9327657080     1.4556095020
NI     12.1960327990     7.0440552710     1.4556095020
NI     13.4149863960     9.1553448320     1.4556095020
NI     14.6339399930    11.2666343950     1.4556095020
NI     10.9770792000     0.7101865830     1.4556095020
NI     12.1960327970     2.8214761450     1.4556095020
NI     13.4149863950     4.9327657080     1.4556095020
NI     14.6339399920     7.0440552710     1.4556095020
NI     15.8528935890     9.1553448320     1.4556095020
NI     17.0718471870    11.2666343950     1.4556095020
NI     13.4149863960     0.7101865830     1.4556095020
NI     14.6339399920     2.8214761450     1.4556095020
NI     15.8528935900     4.9327657080     1.4556095020
NI     17.0718471870     7.0440552710     1.4556095020
NI     18.2908007840     9.1553448320     1.4556095020
NI     19.5097543820    11.2666343950     1.4556095020
NI     13.4578815881     7.7586507147     3.4126270277
NI     14.6494574192     9.8272326428     3.3978545188
NI     15.8417575060     7.7633049747     3.3876546053
NI     12.2429122561     9.8335343453     3.4411267595
NI     14.6462473396     5.6871842261     3.4184806930
NI     17.0397737081     9.8302262790     3.4109244417
NI     11.0239658216     7.7517425614     3.4576291807
NI     13.4429311666    11.9238899739     3.4430434766
NI     12.2353563428     5.6706404644     3.4347286660
NI     15.8462627855    11.9183827205     3.4284536389
NI     17.0480214135     5.6814027627     3.4288765333
NI     18.2412068346     7.7573823009     3.4252678849
NI      9.7884231667     9.8433075217     3.4847451295
NI     11.0120673478    11.9457365284     3.4671253278
NI     13.4283915419     3.5661437111     3.4609370401
NI     18.2565289815    11.9325784269     3.4533564136
NI     15.8506556024     3.5742064339     3.4543856966
NI     19.4628788877     9.8384815380     3.4537922692
NI      4.8444157364     5.6626657440     3.4452324726
NI      7.3268968817     1.3762800136     3.4633016994
NI      9.7868588755     5.6490041477     3.4721234322
NI      3.6492639454     3.5551178283     3.4690839763
NI      6.0639266631     7.7481584012     3.4715681808
NI      4.8974606622     1.3981482783     3.4793717802
NI      8.5496202901     7.7444829845     3.4839500444
NI      9.7460146482     1.3831451369     3.4698707869
NI     10.9903481399     3.5414463153     3.4750532573
NI      2.4545230992     1.4252203781     3.4899190559
NI      7.3052427994     9.8445976737     3.4916260680
NI     12.1831130413     1.4112892558     3.4815120355
NI      6.0927408863     3.5288453219     3.4777796738
NI      7.3064908764     5.6442339011     3.4816112753
NI      8.5428201192     3.5183793145     3.4934659762
NI      8.5468071128    11.9636416671     3.4981418220
NI     14.6281893379     1.4322969412     3.4917647350
NI     20.7006453588    11.9548296603     3.4771155691
AG     -0.1325500158     0.0001428816     5.7886563004
AG      5.7379296300     5.0673199375     5.7739186640
AG      7.1698466772     2.5749808036     5.7732817923
AG      8.6144610063     5.0869872898     5.7650123417
AG      1.3159599573     2.4914795046     5.7809430628
AG      5.7710169068    10.2016489721     5.8187431291
AG      2.7496597105     0.0014297896     5.7975704822
AG      8.6147190198    10.1760250834     5.8371614485
AG     11.5952394537     0.0511097314     5.8011147501
AG     13.0291517338     2.5212099948     5.7891784308
AG      4.2343402403     2.5246698135     5.7928962697
AG      7.2032057757     7.6433039763     5.8173036707
AG     10.0909469479     2.5695724865     5.7838415402
AG      2.8141907400     5.0188700361     5.8249248613
AG      4.3251760342     7.6175556868     5.8271542740
AG      5.6769043691     0.0593322912     5.8093057954
AG     10.0203034843     7.6464582668     5.8280255908
AG      8.6429900654     0.0779425303     5.8119706400
AG     11.5095198927     5.0667933682     5.7890903518
AG     11.4710682613    10.2010795535     5.8392430908
AG     14.4743905066     5.0214449915     5.8241138156
AG     17.4666523502    10.1854073452     5.8407377698
AG     12.9227206562     7.6290042539     5.8445129201
AG     14.4520128821    10.1898236675     5.8433755311
AG     15.9751153869     7.5793442907     5.8503602840
AG      5.7008153530     3.3901797132     8.0907408116
AG      7.1555392731     5.9162543841     8.0949473201
AG      8.6255281924     3.3961654326     8.0922166102
AG      4.2454264860     5.9206157537     8.1080489978
AG      7.1666305997     0.8733801163     8.1067497951
AG     10.0869703191     5.9087149376     8.0921482294
AG      1.3146542763     0.8826865200     8.1069362977
AG      7.1063013076    11.0528242910     8.2199445723
AG     13.0204084307     0.8819128356     8.1123269966
AG      2.7763478090     3.3792863440     8.1192759327
AG      5.6894924742     8.4716608458     8.1212872169
AG      4.2400732874     0.8680915283     8.1141834550
AG      8.6032151373     8.3914913720     8.2201501062
AG     10.0990200418     0.8756983435     8.1105787867
AG     11.5590123406     3.3926171674     8.0981505666
AG     11.5394278852     8.4712033611     8.1242957825
AG     13.0234621443    11.0050850218     8.1218024341
AG     13.0187204378     5.9093695669     8.0923701239
AG     15.9478321724    11.0110104993     8.1110285003
AG     15.9463754758     5.9106557805     8.1289649635
AG     17.4153285083     8.4648409668     8.1231198732
AG     10.1367706379    11.0528467074     8.2279709971
AG     14.4880729223     3.3822644894     8.1205370237
AG     18.8671192927    11.0167682531     8.1261844386
AG     14.4915481998     8.4570773244     8.0943391885
O      11.5012882517     8.0442137358    10.6556554532
H      13.4225009286     8.7016693874    10.9167853952
C      12.5645186192     8.0986945865    11.2707987389
H      10.8831500842     6.8826248171    12.1720684050
O      11.5372893083     6.6325197223    12.8643831968
C      12.7280067496     7.3383409430    12.5544787068
H      13.5642901879     6.6260864212    12.4077356232
O      14.3846497428     8.8834345325    13.2271963478
C      13.1641909943     8.3135507802    13.6839594240
H      12.3762924205     9.0839590985    13.8012887869
H      14.9335333608     9.0718016691    14.0239000259
H      14.0571158999     6.7778417124    14.9226291173
C      13.3077760155     7.5876607361    15.0382298941
O      12.0553389868     7.0644494715    15.4842671824
O      15.1652367776     8.8781887957    15.7986789155
C      13.8023713255     8.5275190928    16.1477240686
H      11.5804800645     6.7217003220    14.6951797703
H      13.1612137262     9.4274912218    16.1643032729
H      15.4673234081     9.5754971884    16.4056802424
H      14.1698660840     6.8492657419    17.4728830559
C      13.7528746556     7.8724696588    17.5365532037
O      12.4521601982     7.8870545095    18.1052059719
H      14.3999809577     8.4503336945    18.2157682620
H      11.8716662184     7.4386708484    17.4592952227
O       8.6178637369    10.1492172453     9.4829478610
147
Step 2 | ATOMIC_POSITIONS (angstrom) | Cartesian Angstrom
NI      1.2254504230     0.7101865830     1.4556095020
NI      2.4444040200     2.8214761450     1.4556095020
NI      3.6633576180     4.9327657080     1.4556095020
NI      4.8823112150     7.0440552710     1.4556095020
NI      6.1012648120     9.1553448320     1.4556095020
NI      7.3202184090    11.2666343950     1.4556095020
NI      3.6633576170     0.7101865830     1.4556095020
NI      4.8823112140     2.8214761450     1.4556095020
NI      6.1012648110     4.9327657080     1.4556095020
NI      7.3202184090     7.0440552710     1.4556095020
NI      8.5391720050     9.1553448320     1.4556095020
NI      9.7581256030    11.2666343950     1.4556095020
NI      6.1012648120     0.7101865830     1.4556095020
NI      7.3202184090     2.8214761450     1.4556095020
NI      8.5391720060     4.9327657080     1.4556095020
NI      9.7581256040     7.0440552710     1.4556095020
NI     10.9770792000     9.1553448320     1.4556095020
NI     12.1960327980    11.2666343950     1.4556095020
NI      8.5391720070     0.7101865830     1.4556095020
NI      9.7581256040     2.8214761450     1.4556095020
NI     10.9770792010     4.9327657080     1.4556095020
NI     12.1960327990     7.0440552710     1.4556095020
NI     13.4149863960     9.1553448320     1.4556095020
NI     14.6339399930    11.2666343950     1.4556095020
NI     10.9770792000     0.7101865830     1.4556095020
NI     12.1960327970     2.8214761450     1.4556095020
NI     13.4149863950     4.9327657080     1.4556095020
NI     14.6339399920     7.0440552710     1.4556095020
NI     15.8528935890     9.1553448320     1.4556095020
NI     17.0718471870    11.2666343950     1.4556095020
NI     13.4149863960     0.7101865830     1.4556095020
NI     14.6339399920     2.8214761450     1.4556095020
NI     15.8528935900     4.9327657080     1.4556095020
NI     17.0718471870     7.0440552710     1.4556095020
NI     18.2908007840     9.1553448320     1.4556095020
NI     19.5097543820    11.2666343950     1.4556095020
NI     13.4576582837     7.7584794050     3.4127257131
NI     14.6494075271     9.8274237651     3.3979312206
NI     15.8420678918     7.7631427269     3.3878855182
NI     12.2428329502     9.8336389341     3.4411572536
NI     14.6464412847     5.6870841265     3.4187033286
NI     17.0397193301     9.8301142961     3.4108678577
NI     11.0239975802     7.7517082528     3.4574840977
NI     13.4429369416    11.9237831255     3.4429996681
NI     12.2353772303     5.6708283554     3.4345699105
NI     15.8461083392    11.9183804647     3.4284103985
NI     17.0478812046     5.6815083381     3.4289234728
NI     18.2410549322     7.7571077839     3.4252246615
NI      9.7887144595     9.8433207687     3.4845891664
NI     11.0119674119    11.9457807041     3.4671822908
NI     13.4284158575     3.5662697947     3.4608194574
NI     18.2565498549    11.9324993619     3.4531822666
NI     15.8506636234     3.5743610388     3.4541589765
NI     19.4629252126     9.8384950485     3.4538008681
NI      4.8443164502     5.6627468628     3.4452137002
NI      7.3270011685     1.3762354829     3.4632109335
NI      9.7867660643     5.6489793096     3.4721047105
NI      3.6493116882     3.5553594033     3.4691002315
NI      6.0640056043     7.7483035242     3.4718150995
NI      4.8975167990     1.3982463735     3.4793398482
NI      8.5496993627     7.7444064218     3.4838331760
NI      9.7461166979     1.3831202642     3.4698519193
NI     10.9903279446     3.5413093041     3.4750706314
NI      2.4545744120     1.4251837839     3.4898798793
NI      7.3051471897     9.8445838958     3.4916493369
NI     12.1830559982     1.4113403086     3.4815758641
NI      6.0926301071     3.5287611396     3.4779865666
NI      7.3064606574     5.6441341240     3.4816607104
NI      8.5428104977     3.5183335846     3.4932215632
NI      8.5468223907    11.9637064859     3.4979668443
NI     14.6282518572     1.4322944241     3.4918409981
NI     20.7006977707    11.9548701133     3.4770446388
AG     -0.1323938389     0.0001026074     5.7887685477
AG      5.7379855123     5.0675770514     5.7739037006
AG      7.1697126171     2.5749829695     5.7733929343
AG      8.6146223520     5.0869354054     5.7650688493
AG      1.3158841060     2.4913824039     5.7810350420
AG      5.7710780433    10.2014796211     5.8188646199
AG      2.7496564825     0.0014841621     5.7974640469
AG      8.6146857580    10.1760240044     5.8370653846
AG     11.5949597960     0.0511532547     5.8011434556
AG     13.0290500767     2.5212576218     5.7892125419
AG      4.2342620654     2.5247190442     5.7928912917
AG      7.2032240381     7.6432115339     5.8173445679
AG     10.0910284810     2.5696767260     5.7838477657
AG      2.8139677221     5.0191763437     5.8248196389
AG      4.3249442361     7.6175107908     5.8270500046
AG      5.6767931100     0.0593745759     5.8092848054
AG     10.0205458131     7.6463142203     5.8283173684
AG      8.6428933693     0.0779614613     5.8118363358
AG     11.5094064992     5.0668108784     5.7891166025
AG     11.4712670952    10.2010103983     5.8395028341
AG     14.4742534011     5.0214777997     5.8241333803
AG     17.4665122716    10.1854367082     5.8405798589
AG     12.9229603524     7.6290042839     5.8444621395
AG     14.4518858705    10.1899066880     5.8432560188
AG     15.9747476711     7.5796047844     5.8504715735
AG      5.7009088564     3.3901592628     8.0907757912
AG      7.1554215201     5.9161055439     8.0948248560
AG      8.6256895927     3.3961030005     8.0922242942
AG      4.2453344497     5.9205779001     8.1080710497
AG      7.1666135354     0.8733106993     8.1066518572
AG     10.0869713310     5.9086660599     8.0919487771
AG      1.3144776499     0.8824387189     8.1069725081
AG      7.1060723497    11.0529306860     8.2200600650
AG     13.0204049609     0.8817242290     8.1123797855
AG      2.7764131910     3.3793806679     8.1193305255
AG      5.6895825293     8.4716321387     8.1212526524
AG      4.2400758697     0.8684018333     8.1142020330
AG      8.6032646081     8.3913826407     8.2203461469
AG     10.0990601526     0.8757231187     8.1104545134
AG     11.5588908016     3.3925957614     8.0982237438
AG     11.5394649434     8.4711938608     8.1245792247
AG     13.0234590016    11.0052265677     8.1216911362
AG     13.0189339207     5.9094376892     8.0924143466
AG     15.9477677450    11.0110205613     8.1112869085
AG     15.9462665829     5.9106997693     8.1289028757
AG     17.4151937627     8.4648512480     8.1230566671
AG     10.1368844917    11.0528383808     8.2282019436
AG     14.4878314746     3.3823383213     8.1206110985
AG     18.8671407488    11.0168060616     8.1262491284
AG     14.4914587170     8.4570766311     8.0944257838
O      11.5016647875     8.0442350241    10.6559291259
H      13.4229148203     8.7014233761    10.9162730470
C      12.5646427869     8.0983784585    11.2707449385
H      10.8832914386     6.8828925187    12.1722137422
O      11.5371847885     6.6321710556    12.8645937721
C      12.7280286025     7.3382994204    12.5548972826
H      13.5645362028     6.6264270335    12.4079382817
O      14.3846162067     8.8837480476    13.2272687801
C      13.1642196485     8.3137716331    13.6840305642
H      12.3760937664     9.0839434774    13.8012390025
H      14.9334058536     9.0718746231    14.0241269610
H      14.0569938010     6.7776993237    14.9226660187
C      13.3079026666     7.5878050917    15.0380099298
O      12.0554725600     7.0646190986    15.4838931601
O      15.1655199048     8.8779844195    15.7983724240
C      13.8024456426     8.5275978458    16.1475064811
H      11.5801751962     6.7215835682    14.6951439730
H      13.1612644917     9.4276288781    16.1647171499
H      15.4673919856     9.5751657638    16.4055582620
H      14.1700330301     6.8495659824    17.4731716450
C      13.7526287277     7.8725549069    17.5364510397
O      12.4519434032     7.8868134583    18.1055023176
H      14.3997081748     8.4500913999    18.2157422063
H      11.8719543190     7.4387190085    17.4589960552
O       8.6180192628    10.1492301138     9.4828678267
