86
Step 1 | ATOMIC_POSITIONS (angstrom) | Cartesian Angstrom
Ni      1.2286390390     0.7093535490     9.0125970590
Ni      2.4572760100     2.8374169220     9.0125970590
Ni      3.6859498400     4.9655441370     9.0125970590
Ni      3.6859144660     0.7093535490     9.0125970590
Ni      4.9145514370     2.8374169220     9.0125970590
Ni      6.1432252670     4.9655441370     9.0125970590
Ni      6.1432636120     0.7093535490     9.0125970590
Ni      7.3719005830     2.8374169220     9.0125970590
Ni      8.6005744130     4.9655441370     9.0125970590
Ni      0.0000019230    -0.0000011100    11.0191845730
Ni      1.2286511800     2.1280835430    11.0191845730
Ni      2.4573004380     4.2561681970    11.0191845730
Ni      2.4573019230    -0.0000011100    11.0191845730
Ni      3.6859511800     2.1280835430    11.0191845730
Ni      4.9146004380     4.2561681970    11.0191845730
Ni      4.9146019230    -0.0000011100    11.0191845730
Ni      6.1432511800     2.1280835430    11.0191845730
Ni      7.3719004380     4.2561681970    11.0191845730
Ni      2.4573006601     1.4187222004    12.9900491208
Ni      7.3719023063     5.6748952725    12.9900496220
Ni      6.1432609971     3.5468126475    12.9900499187
Ni      4.9146080811     1.4187273667    12.9900500616
Ni      3.6859580750     3.5468103328    12.9900504298
Ni      4.9146004670     5.6748935394    12.9900506812
Ni      8.6005570033     3.5468058758    12.9900509521
Ni      7.3719054485     1.4187212609    12.9900525756
Ni      9.8292038373     5.6748913325    12.9900529881
Ni      4.9146011237     2.8374447409    14.9639534913
Ni      3.6859492952     0.7093595219    14.9639548121
Ni      6.1432520799     0.7093567204    14.9639555847
Ni      8.6005463908     4.9655256434    14.9639556028
Ni      2.4572989893     2.8374429658    14.9639565565
Ni      6.1432460518     4.9655296367    14.9639566921
Ni      3.6859474415     4.9655299325    14.9639574762
Ni      7.3719004336     2.8374403240    14.9639579392
Ni      1.2286498937     0.7093591565    14.9639614468
Ni      3.6859552182     2.1280853308    16.9471818913
Ni      4.9146013348     4.2561674584    16.9471825621
Ni      6.1432527875     2.1280827056    16.9471840419
Ni      4.9146023755    -0.0000029939    16.9471849195
Ni      2.4573042739    -0.0000022476    16.9471854372
Ni      0.0000023614    -0.0000013967    16.9471872223
Ni      2.4572998459     4.2561669901    16.9471873050
Ni      7.3718977365     4.2561647442    16.9471875033
Ni      1.2286516556     2.1280848549    16.9471893496
Ni      4.9147150630     5.6749140615    18.9211230599
Ni      3.6859336634     3.5469231729    18.9210616881
Ni      6.1437227465     3.5469980008    18.9203732238
Ni      4.9145574292     1.4186660451    18.9214229387
Ni      2.4573187362     1.4186731655    18.9211976797
Ni      9.8291949088     5.6748752622    18.9213529260
Ni      7.3718512402     5.6745038203    18.9201210556
Ni      7.3719888429     1.4188642073    18.9211167872
Ni      8.6000969392     3.5469017799    18.9200172263
Ni      3.6859722887     0.7112528545    20.8941283849
Ni      6.1432987496     4.9651112275    20.8966560824
Ni      3.6859213592     4.9652697784    20.8941779266
Ni      7.3719091423     2.8375966430    20.8965910664
Ni      2.4584622682     2.8366570067    20.8930665291
Ni      4.9137969703     2.8369422552    20.8925406640
Ni      6.1432375718     0.7095425047    20.8943925501
Ni      1.2286797092     0.7095151757    20.8938646064
Ni      8.6004919308     4.9649455589    20.8965989267
Ni     -0.0006036467    -0.0002260026    22.8357701638
Ni      2.4556670579    -0.0046415162    22.8293907960
Ni      1.2242832970     2.1282712733    22.8289247920
Ni      2.4545362731     4.2608685069    22.8277766897
Ni      4.9173182575     4.2605463411    22.8276714743
Ni      3.6874225202     2.1353002921    22.8443767436
Ni      7.3718188367     4.2566309520    22.8359138801
Ni      4.9174295734    -0.0050105126    22.8274756765
Ni      6.1477003843     2.1275689252    22.8283672724
O       3.6896409560     2.1328476765    24.8621260839
H       4.0387254650     1.2121783124    24.9241944240
H       5.2763876413     2.8619926218    25.9575071762
H       3.7998060702     3.8670796627    25.9545058550
C       4.1716219700     2.8480806295    26.0096478744
O       4.1828484333     0.7780844222    27.2320446951
H       5.1631509424     0.8367000398    27.2406892025
C       3.7053767239     2.1276667377    27.2678033706
H       2.5897558845     2.0434125827    27.2640456806
C       4.1771245792     2.8220164106    28.5301290595
H       3.8333539154     3.8618342727    28.5626370780
H       5.2865654639     2.8099809447    28.5627047627
O       3.6952009189     2.1249610782    29.6798976118
H       4.0393124113     2.6013863641    30.4519524590
86
Step 2 | ATOMIC_POSITIONS (angstrom) | Cartesian Angstrom
Ni      1.2286390390     0.7093535490     9.0125970590
Ni      2.4572760100     2.8374169220     9.0125970590
Ni      3.6859498400     4.9655441370     9.0125970590
Ni      3.6859144660     0.7093535490     9.0125970590
Ni      4.9145514370     2.8374169220     9.0125970590
Ni      6.1432252670     4.9655441370     9.0125970590
Ni      6.1432636120     0.7093535490     9.0125970590
Ni      7.3719005830     2.8374169220     9.0125970590
Ni      8.6005744130     4.9655441370     9.0125970590
Ni      0.0000019230    -0.0000011100    11.0191845730
Ni      1.2286511800     2.1280835430    11.0191845730
Ni      2.4573004380     4.2561681970    11.0191845730
Ni      2.4573019230    -0.0000011100    11.0191845730
Ni      3.6859511800     2.1280835430    11.0191845730
Ni      4.9146004380     4.2561681970    11.0191845730
Ni      4.9146019230    -0.0000011100    11.0191845730
Ni      6.1432511800     2.1280835430    11.0191845730
Ni      7.3719004380     4.2561681970    11.0191845730
Ni      2.4573006601     1.4187222004    12.9900491208
Ni      7.3719023063     5.6748952725    12.9900496220
Ni      6.1432609971     3.5468126475    12.9900499187
Ni      4.9146080811     1.4187273667    12.9900500616
Ni      3.6859580750     3.5468103328    12.9900504298
Ni      4.9146004670     5.6748935394    12.9900506812
Ni      8.6005570033     3.5468058758    12.9900509521
Ni      7.3719054485     1.4187212609    12.9900525756
Ni      9.8292038373     5.6748913325    12.9900529881
Ni      4.9146011237     2.8374447409    14.9639534913
Ni      3.6859492952     0.7093595219    14.9639548121
Ni      6.1432520799     0.7093567204    14.9639555847
Ni      8.6005463908     4.9655256434    14.9639556028
Ni      2.4572989893     2.8374429658    14.9639565565
Ni      6.1432460518     4.9655296367    14.9639566921
Ni      3.6859474415     4.9655299325    14.9639574762
Ni      7.3719004336     2.8374403240    14.9639579392
Ni      1.2286498937     0.7093591565    14.9639614468
Ni      3.6859552182     2.1280853308    16.9471818913
Ni      4.9146013348     4.2561674584    16.9471825621
Ni      6.1432527875     2.1280827056    16.9471840419
Ni      4.9146023755    -0.0000029939    16.9471849195
Ni      2.4573042739    -0.0000022476    16.9471854372
Ni      0.0000023614    -0.0000013967    16.9471872223
Ni      2.4572998459     4.2561669901    16.9471873050
Ni      7.3718977365     4.2561647442    16.9471875033
Ni      1.2286516556     2.1280848549    16.9471893496
Ni      4.9150292121     5.6748931917    18.9213178528
Ni      3.6858883483     3.5472689942    18.9209503143
Ni      6.1447401539     3.5474257685    18.9189944828
Ni      4.9145248748     1.4184686901    18.9220592788
Ni      2.4573089024     1.4185085014    18.9213949630
Ni      9.8291030167     5.6748114271    18.9220254834
Ni      7.3717632376     5.6737150195    18.9183791550
Ni      7.3721420860     1.4192434154    18.9212635175
Ni      8.5991502796     3.5471163887    18.9179500436
Ni      3.6859462068     0.7158816258    20.8934458787
Ni      6.1440011433     4.9642039227    20.8996260802
Ni      3.6858869638     4.9650509039    20.8924411860
Ni      7.3720156787     2.8384652900    20.8995349547
Ni      2.4613124462     2.8346577670    20.8899276327
Ni      4.9116972691     2.8355637035    20.8882478414
Ni      6.1434684716     0.7097676457    20.8930841502
Ni      1.2286004431     0.7096509683    20.8916487554
Ni      8.5997754224     4.9635143722    20.8992735956
Ni     -0.0017291978    -0.0003423983    22.8440325448
Ni      2.4527969513    -0.0132871071    22.8237003044
Ni      1.2162414051     2.1283569095    22.8221988467
Ni      2.4491819843     4.2697374762    22.8189207251
Ni      4.9226056229     4.2688283524    22.8186565604
Ni      3.6905404672     2.1505144608    22.8699138174
Ni      7.3716519791     4.2578407769    22.8447251023
Ni      4.9226188100    -0.0143304387    22.8180786683
Ni      6.1559081794     2.1262783912    22.8207769593
O       3.6700895289     2.1161072366    24.8713921487
H       4.0347897412     1.2002421487    24.9324915422
H       5.2828392704     2.8696586183    25.9640089918
H       3.7948003749     3.8775229254    25.9455271448
C       4.1768141162     2.8546542173    26.0122656284
O       4.1856781266     0.7620874208    27.2223484844
H       5.1581637269     0.8312377309    27.2435473849
C       3.7128682014     2.1239839330    27.2767375349
H       2.6018757884     2.0448483576    27.2644774574
C       4.1791538569     2.8250387068    28.5436306613
H       3.8330839574     3.8770016087    28.5521859250
H       5.2932084476     2.8169173774    28.5488167252
O       3.6841241269     2.1172059704    29.6859610381
H       4.0359910193     2.5974537203    30.4541695223
86
Step 3 | ATOMIC_POSITIONS (angstrom) | Cartesian Angstrom
Ni      1.2286390390     0.7093535490     9.0125970590
Ni      2.4572760100     2.8374169220     9.0125970590
Ni      3.6859498400     4.9655441370     9.0125970590
Ni      3.6859144660     0.7093535490     9.0125970590
Ni      4.9145514370     2.8374169220     9.0125970590
Ni      6.1432252670     4.9655441370     9.0125970590
Ni      6.1432636120     0.7093535490     9.0125970590
Ni      7.3719005830     2.8374169220     9.0125970590
Ni      8.6005744130     4.9655441370     9.0125970590
Ni      0.0000019230    -0.0000011100    11.0191845730
Ni      1.2286511800     2.1280835430    11.0191845730
Ni      2.4573004380     4.2561681970    11.0191845730
Ni      2.4573019230    -0.0000011100    11.0191845730
Ni      3.6859511800     2.1280835430    11.0191845730
Ni      4.9146004380     4.2561681970    11.0191845730
Ni      4.9146019230    -0.0000011100    11.0191845730
Ni      6.1432511800     2.1280835430    11.0191845730
Ni      7.3719004380     4.2561681970    11.0191845730
Ni      2.4573006601     1.4187222004    12.9900491208
Ni      7.3719023063     5.6748952725    12.9900496220
Ni      6.1432609971     3.5468126475    12.9900499187
Ni      4.9146080811     1.4187273667    12.9900500616
Ni      3.6859580750     3.5468103328    12.9900504298
Ni      4.9146004670     5.6748935394    12.9900506812
Ni      8.6005570033     3.5468058758    12.9900509521
Ni      7.3719054485     1.4187212609    12.9900525756
Ni      9.8292038373     5.6748913325    12.9900529881
Ni      4.9146011237     2.8374447409    14.9639534913
Ni      3.6859492952     0.7093595219    14.9639548121
Ni      6.1432520799     0.7093567204    14.9639555847
Ni      8.6005463908     4.9655256434    14.9639556028
Ni      2.4572989893     2.8374429658    14.9639565565
Ni      6.1432460518     4.9655296367    14.9639566921
Ni      3.6859474415     4.9655299325    14.9639574762
Ni      7.3719004336     2.8374403240    14.9639579392
Ni      1.2286498937     0.7093591565    14.9639614468
Ni      3.6859552182     2.1280853308    16.9471818913
Ni      4.9146013348     4.2561674584    16.9471825621
Ni      6.1432527875     2.1280827056    16.9471840419
Ni      4.9146023755    -0.0000029939    16.9471849195
Ni      2.4573042739    -0.0000022476    16.9471854372
Ni      0.0000023614    -0.0000013967    16.9471872223
Ni      2.4572998459     4.2561669901    16.9471873050
Ni      7.3718977365     4.2561647442    16.9471875033
Ni      1.2286516556     2.1280848549    16.9471893496
Ni      4.9156574466     5.6746895956    18.9215824428
Ni      3.6857894657     3.5480166656    18.9203513169
Ni      6.1461880512     3.5480652156    18.9170795693
Ni      4.9146362957     1.4179413612    18.9224780526
Ni      2.4572025003     1.4181037718    18.9212949976
Ni      9.8287473808     5.6746377261    18.9229146676
Ni      7.3717059638     5.6727362077    18.9164341969
Ni      7.3722828546     1.4199581271    18.9214248701
Ni      8.5978909027     3.5474603787    18.9152528756
Ni      3.6857391468     0.7238594737    20.8946217228
Ni      6.1466305463     4.9627992367    20.9019619566
Ni      3.6858753014     4.9657241914    20.8895258523
Ni      7.3723393875     2.8412119951    20.9022205970
Ni      2.4663465653     2.8310331468    20.8873718628
Ni      4.9077227024     2.8328534495    20.8839509187
Ni      6.1445440270     0.7095671457    20.8907065914
Ni      1.2280291694     0.7092662324    20.8885861222
Ni      8.5970925305     4.9609420415    20.9007728233
Ni     -0.0028739014     0.0005144089    22.8566246279
Ni      2.4500691216    -0.0227611973    22.8149699199
Ni      1.2077961875     2.1276611026    22.8120191929
Ni      2.4429266732     4.2795253555    22.8066368803
Ni      4.9289171674     4.2781587305    22.8062524377
Ni      3.6948449172     2.1724227788    22.9059468697
Ni      7.3713657908     4.2601437028    22.8586710328
Ni      4.9281989506    -0.0245752010    22.8048269514
Ni      6.1646105694     2.1238990546    22.8100929945
O       3.6502215359     2.0960254317    24.8945864426
H       4.0271006084     1.1861985695    24.9460258269
H       5.2885680798     2.8808531292    25.9690815998
H       3.7896911038     3.8855410861    25.9330672474
C       4.1785240791     2.8559997207    26.0148297778
O       4.1824992958     0.7543476478    27.2111692393
H       5.1602865924     0.8197320488    27.2478684304
C       3.7186462328     2.1198534962    27.2824621528
H       2.6199124662     2.0462423066    27.2662601901
C       4.1821964979     2.8268158554    28.5522534702
H       3.8351257014     3.8871415057    28.5400179874
H       5.2971003672     2.8269506640    28.5357709228
O       3.6767073288     2.1177399428    29.6914713206
H       4.0288742608     2.5885405385    30.4595293437
86
Step 4 | ATOMIC_POSITIONS (angstrom) | Cartesian Angstrom
Ni      1.2286390390     0.7093535490     9.0125970590
Ni      2.4572760100     2.8374169220     9.0125970590
Ni      3.6859498400     4.9655441370     9.0125970590
Ni      3.6859144660     0.7093535490     9.0125970590
Ni      4.9145514370     2.8374169220     9.0125970590
Ni      6.1432252670     4.9655441370     9.0125970590
Ni      6.1432636120     0.7093535490     9.0125970590
Ni      7.3719005830     2.8374169220     9.0125970590
Ni      8.6005744130     4.9655441370     9.0125970590
Ni      0.0000019230    -0.0000011100    11.0191845730
Ni      1.2286511800     2.1280835430    11.0191845730
Ni      2.4573004380     4.2561681970    11.0191845730
Ni      2.4573019230    -0.0000011100    11.0191845730
Ni      3.6859511800     2.1280835430    11.0191845730
Ni      4.9146004380     4.2561681970    11.0191845730
Ni      4.9146019230    -0.0000011100    11.0191845730
Ni      6.1432511800     2.1280835430    11.0191845730
Ni      7.3719004380     4.2561681970    11.0191845730
Ni      2.4573006601     1.4187222004    12.9900491208
Ni      7.3719023063     5.6748952725    12.9900496220
Ni      6.1432609971     3.5468126475    12.9900499187
Ni      4.9146080811     1.4187273667    12.9900500616
Ni      3.6859580750     3.5468103328    12.9900504298
Ni      4.9146004670     5.6748935394    12.9900506812
Ni      8.6005570033     3.5468058758    12.9900509521
Ni      7.3719054485     1.4187212609    12.9900525756
Ni      9.8292038373     5.6748913325    12.9900529881
Ni      4.9146011237     2.8374447409    14.9639534913
Ni      3.6859492952     0.7093595219    14.9639548121
Ni      6.1432520799     0.7093567204    14.9639555847
Ni      8.6005463908     4.9655256434    14.9639556028
Ni      2.4572989893     2.8374429658    14.9639565565
Ni      6.1432460518     4.9655296367    14.9639566921
Ni      3.6859474415     4.9655299325    14.9639574762
Ni      7.3719004336     2.8374403240    14.9639579392
Ni      1.2286498937     0.7093591565    14.9639614468
Ni      3.6859552182     2.1280853308    16.9471818913
Ni      4.9146013348     4.2561674584    16.9471825621
Ni      6.1432527875     2.1280827056    16.9471840419
Ni      4.9146023755    -0.0000029939    16.9471849195
Ni      2.4573042739    -0.0000022476    16.9471854372
Ni      0.0000023614    -0.0000013967    16.9471872223
Ni      2.4572998459     4.2561669901    16.9471873050
Ni      7.3718977365     4.2561647442    16.9471875033
Ni      1.2286516556     2.1280848549    16.9471893496
Ni      4.9166371083     5.6742141820    18.9217836306
Ni      3.6856304693     3.5491886146    18.9190903283
Ni      6.1476264322     3.5487092042    18.9149682183
Ni      4.9149427128     1.4170306049    18.9222984136
Ni      2.4569659480     1.4174357033    18.9206377186
Ni      9.8280446874     5.6743146787    18.9237480794
Ni      7.3717133781     5.6721250822    18.9148956102
Ni      7.3723717012     1.4210719218    18.9215088613
Ni      8.5968088580     3.5477260597    18.9124672979
Ni      3.6853490250     0.7349116742    20.8985182815
Ni      6.1519567358     4.9607845357    20.9020691701
Ni      3.6859075136     4.9681156549    20.8856842763
Ni      7.3728646170     2.8466408827    20.9033947201
Ni      2.4734461536     2.8260284240    20.8866946841
Ni      4.9018913743     2.8288919771    20.8812229175
Ni      6.1471312602     0.7084673677    20.8872262077
Ni      1.2264170339     0.7078636841    20.8850407742
Ni      8.5916851776     4.9570610188    20.8993785853
Ni     -0.0035768863     0.0029147292    22.8726053844
Ni      2.4485287949    -0.0300974640    22.8039686431
Ni      1.2019806045     2.1256915858    22.7993054833
Ni      2.4374944921     4.2871429661    22.7927687706
Ni      4.9346440000     4.2859088513    22.7923208976
Ni      3.6994410265     2.1985945411    22.9491037714
Ni      7.3710182012     4.2636245037    22.8767996989
Ni      4.9324148364    -0.0325408004    22.7896058223
Ni      6.1707648197     2.1203119426    22.7977620062
O       3.6317945797     2.0761778364    24.9233039817
H       4.0167983465     1.1697740354    24.9653606285
H       5.2891928097     2.8935809161    25.9710625269
H       3.7858478486     3.8853338607    25.9190827093
C       4.1787654961     2.8563514980    26.0191117082
O       4.1893392722     0.7540874897    27.2011190935
H       5.1559343159     0.8018861774    27.2530267983
C       3.7269226330     2.1206361633    27.2866063430
H       2.6345885778     2.0471770274    27.2693860072
C       4.1855045330     2.8283700691    28.5530880205
H       3.8394080791     3.8890862094    28.5278594127
H       5.2980793364     2.8384593070    28.5268764965
O       3.6717036864     2.1228981913    29.6880083662
H       4.0218162413     2.5798802875    30.4739304682
86
Step 5 | ATOMIC_POSITIONS (angstrom) | Cartesian Angstrom
Ni      1.2286390390     0.7093535490     9.0125970590
Ni      2.4572760100     2.8374169220     9.0125970590
Ni      3.6859498400     4.9655441370     9.0125970590
Ni      3.6859144660     0.7093535490     9.0125970590
Ni      4.9145514370     2.8374169220     9.0125970590
Ni      6.1432252670     4.9655441370     9.0125970590
Ni      6.1432636120     0.7093535490     9.0125970590
Ni      7.3719005830     2.8374169220     9.0125970590
Ni      8.6005744130     4.9655441370     9.0125970590
Ni      0.0000019230    -0.0000011100    11.0191845730
Ni      1.2286511800     2.1280835430    11.0191845730
Ni      2.4573004380     4.2561681970    11.0191845730
Ni      2.4573019230    -0.0000011100    11.0191845730
Ni      3.6859511800     2.1280835430    11.0191845730
Ni      4.9146004380     4.2561681970    11.0191845730
Ni      4.9146019230    -0.0000011100    11.0191845730
Ni      6.1432511800     2.1280835430    11.0191845730
Ni      7.3719004380     4.2561681970    11.0191845730
Ni      2.4573006601     1.4187222004    12.9900491208
Ni      7.3719023063     5.6748952725    12.9900496220
Ni      6.1432609971     3.5468126475    12.9900499187
Ni      4.9146080811     1.4187273667    12.9900500616
Ni      3.6859580750     3.5468103328    12.9900504298
Ni      4.9146004670     5.6748935394    12.9900506812
Ni      8.6005570033     3.5468058758    12.9900509521
Ni      7.3719054485     1.4187212609    12.9900525756
Ni      9.8292038373     5.6748913325    12.9900529881
Ni      4.9146011237     2.8374447409    14.9639534913
Ni      3.6859492952     0.7093595219    14.9639548121
Ni      6.1432520799     0.7093567204    14.9639555847
Ni      8.6005463908     4.9655256434    14.9639556028
Ni      2.4572989893     2.8374429658    14.9639565565
Ni      6.1432460518     4.9655296367    14.9639566921
Ni      3.6859474415     4.9655299325    14.9639574762
Ni      7.3719004336     2.8374403240    14.9639579392
Ni      1.2286498937     0.7093591565    14.9639614468
Ni      3.6859552182     2.1280853308    16.9471818913
Ni      4.9146013348     4.2561674584    16.9471825621
Ni      6.1432527875     2.1280827056    16.9471840419
Ni      4.9146023755    -0.0000029939    16.9471849195
Ni      2.4573042739    -0.0000022476    16.9471854372
Ni      0.0000023614    -0.0000013967    16.9471872223
Ni      2.4572998459     4.2561669901    16.9471873050
Ni      7.3718977365     4.2561647442    16.9471875033
Ni      1.2286516556     2.1280848549    16.9471893496
Ni      4.9180241885     5.6733859361    18.9216691076
Ni      3.6854165346     3.5507867211    18.9170451149
Ni      6.1484825147     3.5490562294    18.9129320699
Ni      4.9154810138     1.4157196665    18.9211802728
Ni      2.4565629910     1.4165064991    18.9191723547
Ni      9.8269053137     5.6737996353    18.9241190759
Ni      7.3718049149     5.6726477984    18.9141589160
Ni      7.3723952524     1.4227175993    18.9213273363
Ni      8.5965291680     3.5475784228    18.9099884043
Ni      3.6848464380     0.7487432961    20.9056503236
Ni      6.1605648801     4.9579555392    20.8987108332
Ni      3.6859823194     4.9731702810    20.8813408431
Ni      7.3734858205     2.8554482110    20.9022016555
Ni      2.4824736824     2.8200456122    20.8889020988
Ni      4.8942828230     2.8238734380    20.8814230000
Ni      6.1520293735     0.7059071636    20.8826437499
Ni      1.2230584688     0.7048638165    20.8812763836
Ni      8.5830540155     4.9517242320    20.8938527357
Ni     -0.0034658370     0.0073265221    22.8913141505
Ni      2.4488677046    -0.0328763896    22.7914155214
Ni      1.2013453529     2.1220225789    22.7849250716
Ni      2.4342789837     4.2902002602    22.7789365802
Ni      4.9385164337     4.2901342625    22.7784766284
Ni      3.7034592717     2.2268946607    22.9962267785
Ni      7.3707009142     4.2683721835    22.8981669503
Ni      4.9339667390    -0.0356055403    22.7741491475
Ni      6.1718009507     2.1154102803    22.7850600311
O       3.6178228684     2.0569690711    24.9518156519
H       4.0035102441     1.1537276422    24.9912936118
H       5.2833945913     2.9063281280    25.9681217803
H       3.7821334782     3.8775769368    25.9051943951
C       4.1793404860     2.8535685657    26.0240264587
O       4.1886817016     0.7611996321    27.1932542431
H       5.1625547098     0.7799164207    27.2599632917
C       3.7336902547     2.1248065664    27.2880854967
H       2.6454125489     2.0472467292    27.2740300567
C       4.1924796967     2.8304386492    28.5476091290
H       3.8446150921     3.8840433533    28.5164401784
H       5.2967972759     2.8504039008    28.5245689171
O       3.6732395013     2.1367612445    29.6867890565
H       4.0112777678     2.5668926890    30.4857081253
86
Step 6 | ATOMIC_POSITIONS (angstrom) | Cartesian Angstrom
Ni      1.2286390390     0.7093535490     9.0125970590
Ni      2.4572760100     2.8374169220     9.0125970590
Ni      3.6859498400     4.9655441370     9.0125970590
Ni      3.6859144660     0.7093535490     9.0125970590
Ni      4.9145514370     2.8374169220     9.0125970590
Ni      6.1432252670     4.9655441370     9.0125970590
Ni      6.1432636120     0.7093535490     9.0125970590
Ni      7.3719005830     2.8374169220     9.0125970590
Ni      8.6005744130     4.9655441370     9.0125970590
Ni      0.0000019230    -0.0000011100    11.0191845730
Ni      1.2286511800     2.1280835430    11.0191845730
Ni      2.4573004380     4.2561681970    11.0191845730
Ni      2.4573019230    -0.0000011100    11.0191845730
Ni      3.6859511800     2.1280835430    11.0191845730
Ni      4.9146004380     4.2561681970    11.0191845730
Ni      4.9146019230    -0.0000011100    11.0191845730
Ni      6.1432511800     2.1280835430    11.0191845730
Ni      7.3719004380     4.2561681970    11.0191845730
Ni      2.4573006601     1.4187222004    12.9900491208
Ni      7.3719023063     5.6748952725    12.9900496220
Ni      6.1432609971     3.5468126475    12.9900499187
Ni      4.9146080811     1.4187273667    12.9900500616
Ni      3.6859580750     3.5468103328    12.9900504298
Ni      4.9146004670     5.6748935394    12.9900506812
Ni      8.6005570033     3.5468058758    12.9900509521
Ni      7.3719054485     1.4187212609    12.9900525756
Ni      9.8292038373     5.6748913325    12.9900529881
Ni      4.9146011237     2.8374447409    14.9639534913
Ni      3.6859492952     0.7093595219    14.9639548121
Ni      6.1432520799     0.7093567204    14.9639555847
Ni      8.6005463908     4.9655256434    14.9639556028
Ni      2.4572989893     2.8374429658    14.9639565565
Ni      6.1432460518     4.9655296367    14.9639566921
Ni      3.6859474415     4.9655299325    14.9639574762
Ni      7.3719004336     2.8374403240    14.9639579392
Ni      1.2286498937     0.7093591565    14.9639614468
Ni      3.6859552182     2.1280853308    16.9471818913
Ni      4.9146013348     4.2561674584    16.9471825621
Ni      6.1432527875     2.1280827056    16.9471840419
Ni      4.9146023755    -0.0000029939    16.9471849195
Ni      2.4573042739    -0.0000022476    16.9471854372
Ni      0.0000023614    -0.0000013967    16.9471872223
Ni      2.4572998459     4.2561669901    16.9471873050
Ni      7.3718977365     4.2561647442    16.9471875033
Ni      1.2286516556     2.1280848549    16.9471893496
Ni      4.9193030366     5.6724653145    18.9209382314
Ni      3.6852695567     3.5521307470    18.9151186761
Ni      6.1477452427     3.5485916715    18.9119606363
Ni      4.9160660844     1.4146220230    18.9194408871
Ni      2.4561093914     1.4157584912    18.9174219277
Ni      9.8257223765     5.6732363183    18.9233675867
Ni      7.3719421294     5.6749651058    18.9145994358
Ni      7.3723657835     1.4244112748    18.9207001982
Ni      8.5978508111     3.5466507613    18.9090124728
Ni      3.6845872568     0.7590570830    20.9130207204
Ni      6.1688120379     4.9553799889    20.8928284862
Ni      3.6860385891     4.9795467727    20.8788885933
Ni      7.3737352196     2.8640479401    20.8990450473
Ni      2.4893751161     2.8161889140    20.8935992802
Ni      4.8883299384     2.8202473367    20.8853998528
Ni      6.1578383805     0.7024754378    20.8789581036
Ni      1.2187020353     0.7010206761    20.8789690103
Ni      8.5750598326     4.9473329065    20.8862937831
Ni     -0.0023974497     0.0121494862    22.9043587647
Ni      2.4511009853    -0.0285291707    22.7832480734
Ni      1.2076687601     2.1179739732    22.7757523244
Ni      2.4352346649     4.2864492960    22.7721999860
Ni      4.9383711062     4.2883557109    22.7717714086
Ni      3.7044366202     2.2431510967    23.0240768684
Ni      7.3706538533     4.2724810573    22.9127018284
Ni      4.9316986109    -0.0310655912    22.7663355609
Ni      6.1657793734     2.1112608697    22.7783218476
O       3.6156232803     2.0504504860    24.9637155574
H       3.9937633935     1.1428713701    25.0140672931
H       5.2771468905     2.9119688491    25.9600510667
H       3.7794415528     3.8653329696    25.8984782833
C       4.1746689857     2.8498245071    26.0254259732
O       4.1939962604     0.7694001235    27.1931404723
H       5.1650999485     0.7640850803    27.2652646992
C       3.7370220293     2.1300232628    27.2880350498
H       2.6451359596     2.0472054937    27.2784948736
C       4.1964947741     2.8324200831    28.5432804309
H       3.8477566795     3.8767074448    28.5107205287
H       5.2988592621     2.8567711797    28.5310434958
O       3.6765440056     2.1463920942    29.6786229508
H       4.0067276299     2.5616062876    30.4957977790
86
Step 7 | ATOMIC_POSITIONS (angstrom) | Cartesian Angstrom
Ni      1.2286390390     0.7093535490     9.0125970590
Ni      2.4572760100     2.8374169220     9.0125970590
Ni      3.6859498400     4.9655441370     9.0125970590
Ni      3.6859144660     0.7093535490     9.0125970590
Ni      4.9145514370     2.8374169220     9.0125970590
Ni      6.1432252670     4.9655441370     9.0125970590
Ni      6.1432636120     0.7093535490     9.0125970590
Ni      7.3719005830     2.8374169220     9.0125970590
Ni      8.6005744130     4.9655441370     9.0125970590
Ni      0.0000019230    -0.0000011100    11.0191845730
Ni      1.2286511800     2.1280835430    11.0191845730
Ni      2.4573004380     4.2561681970    11.0191845730
Ni      2.4573019230    -0.0000011100    11.0191845730
Ni      3.6859511800     2.1280835430    11.0191845730
Ni      4.9146004380     4.2561681970    11.0191845730
Ni      4.9146019230    -0.0000011100    11.0191845730
Ni      6.1432511800     2.1280835430    11.0191845730
Ni      7.3719004380     4.2561681970    11.0191845730
Ni      2.4573006601     1.4187222004    12.9900491208
Ni      7.3719023063     5.6748952725    12.9900496220
Ni      6.1432609971     3.5468126475    12.9900499187