86
Step 1 | ATOMIC_POSITIONS (angstrom) | Cartesian Angstrom
Ni      1.2286390390     0.7093535490     9.0125970590
Ni      2.4572760100     2.8374169220     9.0125970590
Ni      3.6859498400     4.9655441370     9.0125970590
Ni      3.6859144660     0.7093535490     9.0125970590
Ni      4.9145514370     2.8374169220     9.0125970590
Ni      6.1432252670     4.9655441370     9.0125970590
Ni      6.1432636120     0.7093535490     9.0125970590
Ni      7.3719005830     2.8374169220     9.0125970590
Ni      8.6005744130     4.9655441370     9.0125970590
Ni      0.0000019230    -0.0000011100    11.0191845730
Ni      1.2286511800     2.1280835430    11.0191845730
Ni      2.4573004380     4.2561681970    11.0191845730
Ni      2.4573019230    -0.0000011100    11.0191845730
Ni      3.6859511800     2.1280835430    11.0191845730
Ni      4.9146004380     4.2561681970    11.0191845730
Ni      4.9146019230    -0.0000011100    11.0191845730
Ni      6.1432511800     2.1280835430    11.0191845730
Ni      7.3719004380     4.2561681970    11.0191845730
Ni      2.4573006601     1.4187222004    12.9900491208
Ni      7.3719023063     5.6748952725    12.9900496220
Ni      6.1432609971     3.5468126475    12.9900499187
Ni      4.9146080811     1.4187273667    12.9900500616
Ni      3.6859580750     3.5468103328    12.9900504298
Ni      4.9146004670     5.6748935394    12.9900506812
Ni      8.6005570033     3.5468058758    12.9900509521
Ni      7.3719054485     1.4187212609    12.9900525756
Ni      9.8292038373     5.6748913325    12.9900529881
Ni      4.9146011237     2.8374447409    14.9639534913
Ni      3.6859492952     0.7093595219    14.9639548121
Ni      6.1432520799     0.7093567204    14.9639555847
Ni      8.6005463908     4.9655256434    14.9639556028
Ni      2.4572989893     2.8374429658    14.9639565565
Ni      6.1432460518     4.9655296367    14.9639566921
Ni      3.6859474415     4.9655299325    14.9639574762
Ni      7.3719004336     2.8374403240    14.9639579392
Ni      1.2286498937     0.7093591565    14.9639614468
Ni      3.6859552182     2.1280853308    16.9471818913
Ni      4.9146013348     4.2561674584    16.9471825621
Ni      6.1432527875     2.1280827056    16.9471840419
Ni      4.9146023755    -0.0000029939    16.9471849195
Ni      2.4573042739    -0.0000022476    16.9471854372
Ni      0.0000023614    -0.0000013967    16.9471872223
Ni      2.4572998459     4.2561669901    16.9471873050
Ni      7.3718977365     4.2561647442    16.9471875033
Ni      1.2286516556     2.1280848549    16.9471893496
Ni      4.9147150630     5.6749140615    18.9211230599
Ni      3.6859336634     3.5469231729    18.9210616881
Ni      6.1437227465     3.5469980008    18.9203732238
Ni      4.9145574292     1.4186660451    18.9214229387
Ni      2.4573187362     1.4186731655    18.9211976797
Ni      9.8291949088     5.6748752622    18.9213529260
Ni      7.3718512402     5.6745038203    18.9201210556
Ni      7.3719888429     1.4188642073    18.9211167872
Ni      8.6000969392     3.5469017799    18.9200172263
Ni      3.6859722887     0.7112528545    20.8941283849
Ni      6.1432987496     4.9651112275    20.8966560824
Ni      3.6859213592     4.9652697784    20.8941779266
Ni      7.3719091423     2.8375966430    20.8965910664
Ni      2.4584622682     2.8366570067    20.8930665291
Ni      4.9137969703     2.8369422552    20.8925406640
Ni      6.1432375718     0.7095425047    20.8943925501
Ni      1.2286797092     0.7095151757    20.8938646064
Ni      8.6004919308     4.9649455589    20.8965989267
Ni     -0.0006036467    -0.0002260026    22.8357701638
Ni      2.4556670579    -0.0046415162    22.8293907960
Ni      1.2242832970     2.1282712733    22.8289247920
Ni      2.4545362731     4.2608685069    22.8277766897
Ni      4.9173182575     4.2605463411    22.8276714743
Ni      3.6874225202     2.1353002921    22.8443767436
Ni      7.3718188367     4.2566309520    22.8359138801
Ni      4.9174295734    -0.0050105126    22.8274756765
Ni      6.1477003843     2.1275689252    22.8283672724
O       3.6896409560     2.1328476765    24.8621260839
H       4.0387254650     1.2121783124    24.9241944240
H       5.2763876413     2.8619926218    25.9575071762
H       3.7998060702     3.8670796627    25.9545058550
C       4.1716219700     2.8480806295    26.0096478744
O       4.1828484333     0.7780844222    27.2320446951
H       5.1631509424     0.8367000398    27.2406892025
C       3.7053767239     2.1276667377    27.2678033706
H       2.5897558845     2.0434125827    27.2640456806
C       4.1771245792     2.8220164106    28.5301290595
H       3.8333539154     3.8618342727    28.5626370780
H       5.2865654639     2.8099809447    28.5627047627
O       3.6952009189     2.1249610782    29.6798976118
H       4.0393124113     2.6013863641    30.4519524590
