50
Step 1 | ATOMIC_POSITIONS (angstrom) | Cartesian Angstrom
Ni      0.0000000000     0.0000000000    10.0000000187
Ni      1.2286496544     2.1280836261    10.0000000187
Ni      2.4572993456     4.2561673160    10.0000000187
Ni      2.4572993088     0.0000000000    10.0000000187
Ni      3.6859489631     2.1280836261    10.0000000187
Ni      4.9145986544     4.2561673160    10.0000000187
Ni      4.9145986912     0.0000000000    10.0000000187
Ni      6.1432483456     2.1280836261    10.0000000187
Ni      7.3718980369     4.2561673160    10.0000000187
Ni      1.6381995392     1.4187224174    12.0063764263
Ni      2.8668492304     3.5468061073    12.0063764263
Ni      4.0954988848     5.6748897334    12.0063764263
Ni      4.0954988479     1.4187224174    12.0063764263
Ni      5.3241485392     3.5468061073    12.0063764263
Ni      6.5527981936     5.6748897334    12.0063764263
Ni      6.5527982304     1.4187224174    12.0063764263
Ni      7.7814479217     3.5468061073    12.0063764263
Ni      9.0100975760     5.6748897334    12.0063764263
Ni      2.0500047945     0.7061485464    14.0125171566
Ni      3.2787167393     2.8325589669    14.0140404499
Ni      4.5069848781     4.9617671632    14.0122324728
Ni      4.5061693907     0.7073775360    14.0124939463
Ni      5.7354873115     2.8342227326    14.0119437727
Ni      6.9644223352     4.9621163806    14.0122661486
Ni      6.9641142612     0.7059753307    14.0122648277
Ni      8.1932795882     2.8337553960    14.0124540686
Ni      9.4218736855     4.9616416919    14.0119973592
Ni      0.0072043430    -0.0130087824    16.0451859621
Ni      1.2327209915     2.1155217960    16.0421055594
Ni      2.4630893148     4.2462060762    16.0415926927
Ni      2.4629653746    -0.0169000352    16.0418981782
Ni      3.6949272017     2.1220063907    16.0442185466
Ni      4.9236239335     4.2471661941    16.0406767092
Ni      4.9253158338    -0.0188929022    16.0397501734
Ni      6.1552586177     2.1144693985    16.0410721544
Ni      7.3793681887     4.2435888604    16.0451619994
O       4.3335435288     0.6669682484    20.4304985896
O       3.8401803116     2.0244574239    18.0650414941
O       3.8451286538     2.0140633034    22.8785814260
C       3.8550428458     2.0176523190    20.4667370773
C       4.3205610943     2.7354677691    19.2079690744
C       4.3274515126     2.7105127264    21.7281500498
H       2.7403642893     1.9326991630    20.4621431754
H       5.4262522756     2.7513102829    19.1559361568
H       3.9495805361     3.7566171839    19.1528965719
H       3.9833435645     3.7511862705    21.7606775411
H       5.4362249000     2.6993733945    21.7609756526
H       5.3125910612     0.7259468776    20.4392026004
H       4.1887781728     1.1017454129    18.1210975450
H       4.1894399250     2.4907077327    23.6503470100
50
Step 2 | ATOMIC_POSITIONS (angstrom) | Cartesian Angstrom
Ni      0.0000000000     0.0000000000    10.0000000187
Ni      1.2286496544     2.1280836261    10.0000000187
Ni      2.4572993456     4.2561673160    10.0000000187
Ni      2.4572993088     0.0000000000    10.0000000187
Ni      3.6859489631     2.1280836261    10.0000000187
Ni      4.9145986544     4.2561673160    10.0000000187
Ni      4.9145986912     0.0000000000    10.0000000187
Ni      6.1432483456     2.1280836261    10.0000000187
Ni      7.3718980369     4.2561673160    10.0000000187
Ni      1.6381995392     1.4187224174    12.0063764263
Ni      2.8668492304     3.5468061073    12.0063764263
Ni      4.0954988848     5.6748897334    12.0063764263
Ni      4.0954988479     1.4187224174    12.0063764263
Ni      5.3241485392     3.5468061073    12.0063764263
Ni      6.5527981936     5.6748897334    12.0063764263
Ni      6.5527982304     1.4187224174    12.0063764263
Ni      7.7814479217     3.5468061073    12.0063764263
Ni      9.0100975760     5.6748897334    12.0063764263
Ni      2.0533895060     0.7010250375    14.0163535932
Ni      3.2820144403     2.8256869674    14.0190789713
Ni      4.5099183511     4.9560632344    14.0152392237
Ni      4.5082794150     0.7036893748    14.0165798474
Ni      5.7383748830     2.8290906776    14.0151041173
Ni      6.9677436905     4.9566521760    14.0159777770
Ni      6.9670299260     0.7004995049    14.0159853879
Ni      8.1967392453     2.8281347171    14.0158980276
Ni      9.4252495124     4.9557402608    14.0146561701
Ni      0.0156272159    -0.0280534348    16.0732216825
Ni      1.2377369643     2.1007359079    16.0667296626
Ni      2.4699142112     4.2344192062    16.0656905249
Ni      2.4698259000    -0.0362454411    16.0660733193
Ni      3.7055970193     2.1147567734    16.0704244841
Ni      4.9343370082     4.2365269561    16.0637546957
Ni      4.9375181335    -0.0404253238    16.0615808020
Ni      6.1691053717     2.0985728758    16.0643209346
Ni      7.3880275774     4.2289668815    16.0731802393
O       4.3350732838     0.6578218437    20.4251442324
O       3.8289413318     2.0155950996    18.0748585586
O       3.8387971128     2.0096047540    22.8822883607
C       3.8590949547     2.0155352201    20.4725498276
C       4.3233898629     2.7394643962    19.2108628067
C       4.3287272559     2.7121161358    21.7359342174
H       2.7478154886     1.9335941597    20.4623151463
H       5.4295066834     2.7558173578    19.1600135921
H       3.9467082801     3.7623452225    19.1481562096
H       3.9833099456     3.7596189412    21.7546161837
H       5.4397771851     2.7035238176    21.7531334865
H       5.3098772723     0.7229500352    20.4409479126
H       4.1864078602     1.0959334732    18.1243969287
H       4.1876504772     2.4885945052    23.6517940666
50
Step 3 | ATOMIC_POSITIONS (angstrom) | Cartesian Angstrom
Ni      0.0000000000     0.0000000000    10.0000000187
Ni      1.2286496544     2.1280836261    10.0000000187
Ni      2.4572993456     4.2561673160    10.0000000187
Ni      2.4572993088     0.0000000000    10.0000000187
Ni      3.6859489631     2.1280836261    10.0000000187
Ni      4.9145986544     4.2561673160    10.0000000187
Ni      4.9145986912     0.0000000000    10.0000000187
Ni      6.1432483456     2.1280836261    10.0000000187
Ni      7.3718980369     4.2561673160    10.0000000187
Ni      1.6381995392     1.4187224174    12.0063764263
Ni      2.8668492304     3.5468061073    12.0063764263
Ni      4.0954988848     5.6748897334    12.0063764263
Ni      4.0954988479     1.4187224174    12.0063764263
Ni      5.3241485392     3.5468061073    12.0063764263
Ni      6.5527981936     5.6748897334    12.0063764263
Ni      6.5527982304     1.4187224174    12.0063764263
Ni      7.7814479217     3.5468061073    12.0063764263
Ni      9.0100975760     5.6748897334    12.0063764263
Ni      2.0598558211     0.6907654934    14.0282300008
Ni      3.2881142020     2.8130911721    14.0319530310
Ni      4.5156277987     4.9449475669    14.0251909869
Ni      4.5129388554     0.6956390465    14.0292361170
Ni      5.7441707986     2.8188440592    14.0259565760
Ni      6.9743734093     4.9457981016    14.0279274812
Ni      6.9729179991     0.6895036330    14.0279447407
Ni      8.2034337147     2.8171646561    14.0267762357
Ni      9.4318142303     4.9442888809    14.0239088941
Ni      0.0292965058    -0.0520977385    16.1142769704
Ni      1.2466242934     2.0766584391    16.1025542886
Ni      2.4812002883     4.2149133736    16.1007252446
Ni      2.4815425061    -0.0664261561    16.1008628412
Ni      3.7230982095     2.1023268998    16.1074626408
Ni      4.9518131924     4.2188929934    16.0973217736
Ni      4.9564727141    -0.0737861732    16.0928176927
Ni      6.1907759137     2.0729282269    16.0977449618
Ni      7.4019470320     4.2054208411    16.1142493932
O       4.3326645458     0.6498784227    20.4177903115
O       3.8122838811     2.0039130374    18.0949091931
O       3.8327600854     2.0080501204    22.8873695912
C       3.8670790210     2.0128238642    20.4791776559
C       4.3247023696     2.7432708552    19.2163312314
C       4.3290571864     2.7138102416    21.7435358720
H       2.7582665295     1.9345448191    20.4632293887
H       5.4340142949     2.7632759868    19.1649162798
H       3.9431415046     3.7682171939    19.1407850579
H       3.9845345331     3.7677141704    21.7460798825
H       5.4438651907     2.7101987717    21.7435468055
H       5.3107043094     0.7165787638    20.4438738268
H       4.1827233937     1.0855787820    18.1315661490
H       4.1834645672     2.4833830991    23.6548974437
50
Step 4 | ATOMIC_POSITIONS (angstrom) | Cartesian Angstrom
Ni      0.0000000000     0.0000000000    10.0000000187
Ni      1.2286496544     2.1280836261    10.0000000187
Ni      2.4572993456     4.2561673160    10.0000000187
Ni      2.4572993088     0.0000000000    10.0000000187
Ni      3.6859489631     2.1280836261    10.0000000187
Ni      4.9145986544     4.2561673160    10.0000000187
Ni      4.9145986912     0.0000000000    10.0000000187
Ni      6.1432483456     2.1280836261    10.0000000187
Ni      7.3718980369     4.2561673160    10.0000000187
Ni      1.6381995392     1.4187224174    12.0063764263
Ni      2.8668492304     3.5468061073    12.0063764263
Ni      4.0954988848     5.6748897334    12.0063764263
Ni      4.0954988479     1.4187224174    12.0063764263
Ni      5.3241485392     3.5468061073    12.0063764263
Ni      6.5527981936     5.6748897334    12.0063764263
Ni      6.5527982304     1.4187224174    12.0063764263
Ni      7.7814479217     3.5468061073    12.0063764263
Ni      9.0100975760     5.6748897334    12.0063764263
Ni      2.0707161997     0.6728996038    14.0508849868
Ni      3.2982073076     2.7922915832    14.0551924859
Ni      4.5255292349     4.9257840624    14.0445967264
Ni      4.5214239872     0.6810604167    14.0534526939
Ni      5.7542381514     2.8010841503    14.0472172870
Ni      6.9858185707     4.9271374745    14.0511024480
Ni      6.9831390901     0.6704599309    14.0510792463
Ni      8.2148223247     2.7982378385    14.0477647653
Ni      9.4430676161     4.9246276886    14.0420393181
Ni      0.0512432978    -0.0900513087    16.1742062862
Ni      1.2624140058     2.0381819132    16.1544651125
Ni      2.4997522590     4.1829013114    16.1513432785
Ni      2.5013513053    -0.1123780842    16.1509510668
Ni      3.7510258898     2.0810066441    16.1595557693
Ni      4.9795563376     4.1898667196    16.1459092648
Ni      4.9851720966    -0.1240761380    16.1379665302
Ni      6.2236326917     2.0323018652    16.1458985594
Ni      7.4240775409     4.1679856440    16.1742148749
O       4.3365583847     0.6425277649    20.4083876970
O       3.7880770159     1.9846485786    18.1272756877
O       3.8250825304     2.0078215980    22.8895367582
C       3.8772311406     2.0117132126    20.4885090346
C       4.3267682022     2.7484959877    19.2257749790
C       4.3309291664     2.7159942144    21.7509771668
H       2.7722986140     1.9358029668    20.4653854222
H       5.4381418275     2.7748203840    19.1705009017
H       3.9386539054     3.7728382369    19.1303203842
H       3.9872036709     3.7750847412    21.7339868651
H       5.4477920080     2.7204540367    21.7324467064
H       5.3071599665     0.7038898066    20.4483649249
H       4.1760923943     1.0706690209    18.1457976759
H       4.1779313877     2.4766342821    23.6647201167
50
Step 5 | ATOMIC_POSITIONS (angstrom) | Cartesian Angstrom
Ni      0.0000000000     0.0000000000    10.0000000187
Ni      1.2286496544     2.1280836261    10.0000000187
Ni      2.4572993456     4.2561673160    10.0000000187
Ni      2.4572993088     0.0000000000    10.0000000187
Ni      3.6859489631     2.1280836261    10.0000000187
Ni      4.9145986544     4.2561673160    10.0000000187
Ni      4.9145986912     0.0000000000    10.0000000187
Ni      6.1432483456     2.1280836261    10.0000000187
Ni      7.3718980369     4.2561673160    10.0000000187
Ni      1.6381995392     1.4187224174    12.0063764263
Ni      2.8668492304     3.5468061073    12.0063764263
Ni      4.0954988848     5.6748897334    12.0063764263
Ni      4.0954988479     1.4187224174    12.0063764263
Ni      5.3241485392     3.5468061073    12.0063764263
Ni      6.5527981936     5.6748897334    12.0063764263
Ni      6.5527982304     1.4187224174    12.0063764263
Ni      7.7814479217     3.5468061073    12.0063764263
Ni      9.0100975760     5.6748897334    12.0063764263
Ni      2.0882770083     0.6426705190    14.0898223509
Ni      3.3144498910     2.7590105405    14.0937716212
Ni      4.5421758969     4.8938174727    14.0784711534
Ni      4.5363586621     0.6554745768    14.0951742954
Ni      5.7711917624     2.7713240673    14.0843660283
Ni      7.0049288916     4.8961628812    14.0914997446
Ni      7.0002135004     0.6385512491    14.0912720756
Ni      8.2334818357     2.7666430988    14.0842796020
Ni      9.4617218058     4.8919515787    14.0735733333
Ni      0.0867916733    -0.1503270769    16.2608600535
Ni      1.2910265814     1.9766005975    16.2287445529
Ni      2.5307004705     4.1297632018    16.2233195256
Ni      2.5352226465    -0.1817620143    16.2222163876
Ni      3.7953463765     2.0437505222    16.2307351429
Ni      5.0234192322     4.1414734887    16.2153839577
Ni      5.0282288919    -0.1989052353    16.2029047658
Ni      6.2727062876     1.9678939910    16.2147647408
Ni      7.4595572329     4.1080405109    16.2609646451
O       4.3329834347     0.6391501323    20.3972861093
O       3.7541026581     1.9546397710    18.1780079693
O       3.8198936148     2.0159043271    22.8966270968
C       3.8884107426     2.0112397128    20.4999072099
C       4.3304008159     2.7512416675    19.2401196138
C       4.3375535519     2.7192798543    21.7577622446
H       2.7922545791     1.9371327676    20.4703059556
H       5.4400411604     2.7921930137    19.1755340568
H       3.9319475881     3.7758957938    19.1160546641
H       3.9917205725     3.7804231177    21.7173133012
H       5.4510907452     2.7359590210    21.7217879258
H       5.3139849146     0.6820465806    20.4561185890
H       4.1645614084     1.0490691800    18.1741672902
H       4.1663325918     2.4622690624    23.6765240338
50
Step 6 | ATOMIC_POSITIONS (angstrom) | Cartesian Angstrom
Ni      0.0000000000     0.0000000000    10.0000000187
Ni      1.2286496544     2.1280836261    10.0000000187
Ni      2.4572993456     4.2561673160    10.0000000187
Ni      2.4572993088     0.0000000000    10.0000000187
Ni      3.6859489631     2.1280836261    10.0000000187
Ni      4.9145986544     4.2561673160    10.0000000187
Ni      4.9145986912     0.0000000000    10.0000000187
Ni      6.1432483456     2.1280836261    10.0000000187
Ni      7.3718980369     4.2561673160    10.0000000187
Ni      1.6381995392     1.4187224174    12.0063764263
Ni      2.8668492304     3.5468061073    12.0063764263
Ni      4.0954988848     5.6748897334    12.0063764263
Ni      4.0954988479     1.4187224174    12.0063764263
Ni      5.3241485392     3.5468061073    12.0063764263
Ni      6.5527981936     5.6748897334    12.0063764263
Ni      6.5527982304     1.4187224174    12.0063764263
Ni      7.7814479217     3.5468061073    12.0063764263
Ni      9.0100975760     5.6748897334    12.0063764263
Ni      2.1043631661     0.6129411139    14.1271204758
Ni      3.3294890991     2.7288489572    14.1293275251
Ni      4.5584642083     4.8632705381    14.1115608530
Ni      4.5517758421     0.6291176083    14.1353092320
Ni      5.7876769014     2.7425239451    14.1206491665
Ni      7.0231495646     4.8667069651    14.1310354104
Ni      7.0165884551     0.6078280714    14.1303973174
Ni      8.2507037298     2.7362414476    14.1199891656
Ni      9.4793382834     4.8609691646    14.1040914696
Ni      0.1206484193    -0.2059906434    16.3291592824
Ni      1.3225212299     1.9193497899    16.2859982400
Ni      2.5615325323     4.0775406731    16.2780020787
Ni      2.5698097805    -0.2405291979    16.2767562323
Ni      3.8355971963     2.0040514393    16.2804164529
Ni      5.0632790093     4.0934406309    16.2688182282
Ni      5.0643487575    -0.2604219701    16.2537434272
Ni      6.3131732729     1.9089510158    16.2681071589
Ni      7.4928590012     4.0519913864    16.3294403162
O       4.3476174870     0.6420911229    20.3943285072
O       3.7297597215     1.9303753191    18.2194802622
O       3.8160093048     2.0222199830    22.8878384372
C       3.8975087937     2.0145714268    20.5098232333
C       4.3276916926     2.7519021488    19.2511771213
C       4.3426722459     2.7223364832    21.7616620237
H       2.8027468470     1.9385631467    20.4768984780
H       5.4386768060     2.8052677226    19.1748638472
H       3.9273134278     3.7701847281    19.1068130824
H       3.9962178757     3.7786374452    21.7052940199
H       5.4547449459     2.7486177720    21.7207908622
H       5.3076274225     0.6591897081    20.4627427201
H       4.1532046004     1.0294914388    18.2084390942
H       4.1609265915     2.4560561174    23.6987037572
50
Step 7 | ATOMIC_POSITIONS (angstrom) | Cartesian Angstrom
Ni      0.0000000000     0.0000000000    10.0000000187
Ni      1.2286496544     2.1280836261    10.0000000187
Ni      2.4572993456     4.2561673160    10.0000000187
Ni      2.4572993088     0.0000000000    10.0000000187
Ni      3.6859489631     2.1280836261    10.0000000187
Ni      4.9145986544     4.2561673160    10.0000000187
Ni      4.9145986912     0.0000000000    10.0000000187
Ni      6.1432483456     2.1280836261    10.0000000187
Ni      7.3718980369     4.2561673160    10.0000000187
Ni      1.6381995392     1.4187224174    12.0063764263
Ni      2.8668492304     3.5468061073    12.0063764263
Ni      4.0954988848     5.6748897334    12.0063764263
Ni      4.0954988479     1.4187224174    12.0063764263
Ni      5.3241485392     3.5468061073    12.0063764263
Ni      6.5527981936     5.6748897334    12.0063764263
Ni      6.5527982304     1.4187224174    12.0063764263
Ni      7.7814479217     3.5468061073    12.0063764263
Ni      9.0100975760     5.6748897334    12.0063764263
Ni      2.1152921133     0.5908145591    14.1529251786
Ni      3.3398904449     2.7087382040    14.1523458478
Ni      4.5705167679     4.8414874511    14.1351158922
Ni      4.5638523835     0.6083798732    14.1632152932
Ni      5.7997177444     2.7214383349    14.1464347559
Ni      7.0361661904     4.8456753623    14.1594978830
Ni      7.0283572732     0.5855454496    14.1583000825
Ni      8.2623108144     2.7142905071    14.1456008696
Ni      9.4916380829     4.8391358998    14.1254579751
Ni      0.1453516010    -0.2449920693    16.3642102810
Ni      1.3494481680     1.8790709116    16.3138864462
Ni      2.5852685637     4.0383313333    16.3034194321
Ni      2.5972748684    -0.2763872256    16.3030091088
Ni      3.8627569644     1.9701471903    16.2990259495
Ni      5.0905188247     4.0565806600    16.2946494297
Ni      5.0861763431    -0.2959472404    16.2798137343
Ni      6.3367145010     1.8684885818    16.2946804690
Ni      7.5169310494     4.0121667371    16.3647276404
O       4.3425527562     0.6494868623    20.3976177807
O       3.7204242399     1.9141606065    18.2395595235
O       3.8218783973     2.0353402140    22.8973307022
C       3.8990351395     2.0169021853    20.5147549472
C       4.3276232969     2.7468575767    19.2563856767
C       4.3513275469     2.7251082881    21.7603476968
H       2.8071097838     1.9389012720    20.4842687317
H       5.4312322851     2.8108659602    19.1692861323
H       3.9227696566     3.7627024613    19.1042022810
H       3.9983598243     3.7748199932    21.7003874546
H       5.4565730471     2.7558398142    21.7287690397
H       5.3207463511     0.6434788642    20.4693536573
H       4.1434470277     1.0185266237    18.2408747585
H       4.1522063855     2.4458065842    23.7004841057
50
Step 8 | ATOMIC_POSITIONS (angstrom) | Cartesian Angstrom
Ni      0.0000000000     0.0000000000    10.0000000187
Ni      1.2286496544     2.1280836261    10.0000000187
Ni      2.4572993456     4.2561673160    10.0000000187
Ni      2.4572993088     0.0000000000    10.0000000187
Ni      3.6859489631     2.1280836261    10.0000000187
Ni      4.9145986544     4.2561673160    10.0000000187
Ni      4.9145986912     0.0000000000    10.0000000187
Ni      6.1432483456     2.1280836261    10.0000000187
Ni      7.3718980369     4.2561673160    10.0000000187
Ni      1.6381995392     1.4187224174    12.0063764263
Ni      2.8668492304     3.5468061073    12.0063764263
Ni      4.0954988848     5.6748897334    12.0063764263
Ni      4.0954988479     1.4187224174    12.0063764263
Ni      5.3241485392     3.5468061073    12.0063764263
Ni      6.5527981936     5.6748897334    12.0063764263
Ni      6.5527982304     1.4187224174    12.0063764263
Ni      7.7814479217     3.5468061073    12.0063764263
Ni      9.0100975760     5.6748897334    12.0063764263
Ni      2.1260920279     0.5665636305    14.1776241166
Ni      3.3503505271     2.6893790492    14.1716749358
Ni      4.5836323620     4.8188020396    14.1587178769
Ni      4.5776745681     0.5843043689    14.1899477854
Ni      5.8126108912     2.6986404239    14.1721062689
Ni      7.0497985393     4.8234357307    14.1887414765
Ni      7.0408536168     0.5616317264    14.1865794330
Ni      8.2734466149     2.6910567265    14.1716876742
Ni      9.5040596078     4.8166717173    14.1463148818
Ni      0.1723966573    -0.2856275714    16.3818545973
Ni      1.3832258408     1.8370783840    16.3252180956
Ni      2.6125400301     3.9949836318    16.3110466472
Ni      2.6298816845    -0.3072914135    16.3133080506
Ni      3.8895942079     1.9259511352    16.2967741249
Ni      5.1181836788     4.0143768985    16.3047888709
Ni      5.1050020913    -0.3237435091    16.2933768811
Ni      6.3556300361     1.8276516783    16.3069736623
Ni      7.5432408133     3.9700847418    16.3828147190
O       4.3486859161     0.6578508845    20.4107439297
O       3.7200948940     1.9037395767    18.2471042891
O       3.8271639952     2.0445082857    22.8918906308
C       3.8990271137     2.0205805942    20.5198349270
C       4.3219081533     2.7377240082    19.2573051296
C       4.3593860688     2.7279187065    21.7619430556
H       2.8049291927     1.9395322745    20.4959498123
H       5.4200540636     2.8109830034    19.1566260413
H       3.9165952380     3.7489136172    19.1066404919
H       3.9997500387     3.7688813702    21.6998616374
H       5.4618275824     2.7609343950    21.7475780699
H       5.3269915595     0.6286200393    20.4767350837
H       4.1326516137     1.0052081273    18.2863395922
H       4.1504766891     2.4446487923    23.7128576361
50
Step 9 | ATOMIC_POSITIONS (angstrom) | Cartesian Angstrom
Ni      0.0000000000     0.0000000000    10.0000000187
Ni      1.2286496544     2.1280836261    10.0000000187
Ni      2.4572993456     4.2561673160    10.0000000187
Ni      2.4572993088     0.0000000000    10.0000000187
Ni      3.6859489631     2.1280836261    10.0000000187
Ni      4.9145986544     4.2561673160    10.0000000187
Ni      4.9145986912     0.0000000000    10.0000000187
Ni      6.1432483456     2.1280836261    10.0000000187
Ni      7.3718980369     4.2561673160    10.0000000187
Ni      1.6381995392     1.4187224174    12.0063764263
Ni      2.8668492304     3.5468061073    12.0063764263
Ni      4.0954988848     5.6748897334    12.0063764263
Ni      4.0954988479     1.4187224174    12.0063764263
Ni      5.3241485392     3.5468061073    12.0063764263
Ni      6.5527981936     5.6748897334    12.0063764263
Ni      6.5527982304     1.4187224174    12.0063764263
Ni      7.7814479217     3.5468061073    12.0063764263
Ni      9.0100975760     5.6748897334    12.0063764263
Ni      2.1355200461     0.5435149259    14.1954080877
Ni      3.3595088517     2.6729172485    14.1814153789
Ni      4.5959802954     4.7982092002    14.1772630696
Ni      4.5910360889     0.5603558948    14.2089093312
Ni      5.8245501263     2.6769670984    14.1918850000
Ni      7.0622545648     4.8024408527    14.2130549612
Ni      7.0525689044     0.5389355293    14.2096197698
Ni      8.2825072409     2.6696043971    14.1929487549
Ni      9.5148894175     4.7964481067    14.1619039123
Ni      0.1992488965    -0.3240739224    16.3778852101
Ni      1.4191157620     1.7975609461    16.3172570877
Ni      2.6403374141     3.9532185525    16.2980321752
Ni      2.6638237891    -0.3320055390    16.3056376028
Ni      3.9139800433     1.8749560309    16.2749931868
Ni      5.1441250017     3.9716042980    16.2967372247
Ni      5.1206469827    -0.3432464944    16.2924649320
Ni      6.3699364184     1.7904689640    16.3027703223
Ni      7.5696777214     3.9299983385    16.3795524335
O       4.3588932629     0.6623520424    20.4313817175
O       3.7297763796     1.8940187009    18.2397312155
O       3.8348639536     2.0529855868    22.8953769453
C       3.8987288034     2.0233833318    20.5247405075
C       4.3132380510     2.7274447936    19.2540115090
C       4.3678592598     2.7318588316    21.7631350226
H       2.7996473849     1.9402140129    20.5116566018
H       5.4072459616     2.8049840518    19.1387062611
H       3.9073460235     3.7330214662    19.1136028258
H       4.0000687642     3.7652809583    21.7040988073
H       5.4697255686     2.7634243436    21.7742657867
H       5.3297296639     0.6189152701    20.4850781248
H       4.1192241244     0.9931779928    18.3402829022
H       4.1496658752     2.4450415621    23.7172837535
50
Step 10 | ATOMIC_POSITIONS (angstrom) | Cartesian Angstrom
Ni      0.0000000000     0.0000000000    10.0000000187
Ni      1.2286496544     2.1280836261    10.0000000187
Ni      2.4572993456     4.2561673160    10.0000000187
Ni      2.4572993088     0.0000000000    10.0000000187
Ni      3.6859489631     2.1280836261    10.0000000187
Ni      4.9145986544     4.2561673160    10.0000000187
Ni      4.9145986912     0.0000000000    10.0000000187
Ni      6.1432483456     2.1280836261    10.0000000187
Ni      7.3718980369     4.2561673160    10.0000000187
Ni      1.6381995392     1.4187224174    12.0063764263
Ni      2.8668492304     3.5468061073    12.0063764263
Ni      4.0954988848     5.6748897334    12.0063764263
Ni      4.0954988479     1.4187224174    12.0063764263
Ni      5.3241485392     3.5468061073    12.0063764263
Ni      6.5527981936     5.6748897334    12.0063764263
Ni      6.5527982304     1.4187224174    12.0063764263
Ni      7.7814479217     3.5468061073    12.0063764263
Ni      9.0100975760     5.6748897334    12.0063764263
Ni      2.1469122821     0.5148953155    14.2070753045
Ni      3.3704311294     2.6530515555    14.1797075658
Ni      4.6110396799     4.7732777293    14.1926684036
Ni      4.6073001921     0.5298232637    14.2202376472
Ni      5.8390037442     2.6495073868    14.2072536603
Ni      7.0773246210     4.7755057355    14.2358199726
Ni      7.0671823761     0.5101661236    14.2305240310
Ni      8.2923147384     2.6433577454    14.2121197420
Ni      9.5273549578     4.7720616959    14.1732764113
Ni      0.2359548399    -0.3751812789    16.3529308825
Ni      1.4668846473     1.7458385837    16.2903370441
Ni      2.6783209066     3.8996346083    16.2624760906
Ni      2.7094788817    -0.3648263822    16.2811578200
Ni      3.9462528962     1.8004930205    16.2341241818
Ni      5.1789666729     3.9140371676    16.2706402901
Ni      5.1430284841    -0.3682534582    16.2799209496
Ni      6.3896873567     1.7426797807    16.2839298356
Ni      7.6066169114     3.8770915904    16.3559463897
O       4.3590121566     0.6628383063    20.4627023437
O       3.7492041112     1.8789173143    18.2203630970
O       3.8394149598     2.0548007385    22.8923323751
C       3.8995443098     2.0212714133    20.5314812574
C       4.3034744991     2.7120601269    19.2460380517
C       4.3794164702     2.7373453752    21.7712723058
H       2.7960737689     1.9404847711    20.5372096053
H       5.3903287096     2.7922762041    19.1120940115
H       3.8886636840     3.7151739272    19.1249681146
H       4.0001623045     3.7667359572    21.7138432429
H       5.4813980259     2.7652295793    21.8137017900
H       5.3427496894     0.6132200785    20.4986838898
H       4.0972728553     0.9750934917    18.4192101410
H       4.1560791925     2.4553490060    23.7292056272
50
Step 11 | ATOMIC_POSITIONS (angstrom) | Cartesian Angstrom
Ni      0.0000000000     0.0000000000    10.0000000187
Ni      1.2286496544     2.1280836261    10.0000000187
Ni      2.4572993456     4.2561673160    10.0000000187
Ni      2.4572993088     0.0000000000    10.0000000187
Ni      3.6859489631     2.1280836261    10.0000000187
Ni      4.9145986544     4.2561673160    10.0000000187
Ni      4.9145986912     0.0000000000    10.0000000187
Ni      6.1432483456     2.1280836261    10.0000000187
Ni      7.3718980369     4.2561673160    10.0000000187
Ni      1.6381995392     1.4187224174    12.0063764263
Ni      2.8668492304     3.5468061073    12.0063764263
Ni      4.0954988848     5.6748897334    12.0063764263
Ni      4.0954988479     1.4187224174    12.0063764263
Ni      5.3241485392     3.5468061073    12.0063764263
Ni      6.5527981936     5.6748897334    12.0063764263
Ni      6.5527982304     1.4187224174    12.0063764263
Ni      7.7814479217     3.5468061073    12.0063764263
Ni      9.0100975760     5.6748897334    12.0063764263
Ni      2.1544081262     0.4969629227    14.2025537963
Ni      3.3775973632     2.6391363058    14.1655039624
Ni      4.6200391483     4.7577119864    14.1931372054
Ni      4.6168036267     0.5102533483    14.2132259757
Ni      5.8477056055     2.6313722922    14.2057971312
Ni      7.0863999792     4.7572495472    14.2401760111
Ni      7.0763935566     0.4914791559    14.2337384329
Ni      8.2977410601     2.6269522619    14.2149911318
Ni      9.5344062473     4.7569959198    14.1710432648
Ni      0.2632998501    -0.4127551846    16.3273207623
Ni      1.4979965418     1.7089667385    16.2663238355
Ni      2.7060911919     3.8634388505    16.2309668328
Ni      2.7402081389    -0.3939387208    16.2605489925
Ni      3.9705370777     1.7470244683    16.2074910646
Ni      5.2051619257     3.8735606938    16.2474911789