50
Step 1 | ATOMIC_POSITIONS (angstrom) | Cartesian Angstrom
Ni      0.0000000000     0.0000000000    10.0000000187
Ni      1.2286496544     2.1280836261    10.0000000187
Ni      2.4572993456     4.2561673160    10.0000000187
Ni      2.4572993088     0.0000000000    10.0000000187
Ni      3.6859489631     2.1280836261    10.0000000187
Ni      4.9145986544     4.2561673160    10.0000000187
Ni      4.9145986912     0.0000000000    10.0000000187
Ni      6.1432483456     2.1280836261    10.0000000187
Ni      7.3718980369     4.2561673160    10.0000000187
Ni      1.6360504136     1.4224065639    12.0067657897
Ni      2.8645201009     3.5507647336    12.0053748930
Ni      4.0933294771     5.6786864478    12.0069522301
Ni      4.0934099794     1.4223324897    12.0070236938
Ni      5.3220537831     3.5504354093    12.0067272578
Ni      6.5508151615     5.6783733619    12.0067090277
Ni      6.5507276470     1.4221558731    12.0067297712
Ni      7.7793518086     3.5506121208    12.0068583863
Ni      9.0079968170     5.6784577141    12.0068053863
Ni      2.0500047945     0.7061485464    14.0125171566
Ni      3.2787167393     2.8325589669    14.0140404499
Ni      4.5069848781     4.9617671632    14.0122324728
Ni      4.5061693907     0.7073775360    14.0124939463
Ni      5.7354873115     2.8342227326    14.0119437727
Ni      6.9644223352     4.9621163806    14.0122661486
Ni      6.9641142612     0.7059753307    14.0122648277
Ni      8.1932795882     2.8337553960    14.0124540686
Ni      9.4218736855     4.9616416919    14.0119973592
Ni      0.0072043430    -0.0130087824    16.0451859621
Ni      1.2327209915     2.1155217960    16.0421055594
Ni      2.4630893148     4.2462060762    16.0415926927
Ni      2.4629653746    -0.0169000352    16.0418981782
Ni      3.6949272017     2.1220063907    16.0442185466
Ni      4.9236239335     4.2471661941    16.0406767092
Ni      4.9253158338    -0.0188929022    16.0397501734
Ni      6.1552586177     2.1144693985    16.0410721544
Ni      7.3793681887     4.2435888604    16.0451619994
O       4.3335435288     0.6669682484    20.4304985896
O       3.8401803116     2.0244574239    18.0650414941
O       3.8451286538     2.0140633034    22.8785814260
C       3.8550428458     2.0176523190    20.4667370773
C       4.3205610943     2.7354677691    19.2079690744
C       4.3274515126     2.7105127264    21.7281500498
H       2.7403642893     1.9326991630    20.4621431754
H       5.4262522756     2.7513102829    19.1559361568
H       3.9495805361     3.7566171839    19.1528965719
H       3.9833435645     3.7511862705    21.7606775411
H       5.4362249000     2.6993733945    21.7609756526
H       5.3125910612     0.7259468776    20.4392026004
H       4.1887781728     1.1017454129    18.1210975450
H       4.1894399250     2.4907077327    23.6503470100
50
Step 2 | ATOMIC_POSITIONS (angstrom) | Cartesian Angstrom
Ni      0.0000000000     0.0000000000    10.0000000187
Ni      1.2286496544     2.1280836261    10.0000000187
Ni      2.4572993456     4.2561673160    10.0000000187
Ni      2.4572993088     0.0000000000    10.0000000187
Ni      3.6859489631     2.1280836261    10.0000000187
Ni      4.9145986544     4.2561673160    10.0000000187
Ni      4.9145986912     0.0000000000    10.0000000187
Ni      6.1432483456     2.1280836261    10.0000000187
Ni      7.3718980369     4.2561673160    10.0000000187
Ni      1.6334602243     1.4268887606    12.0078401393
Ni      2.8618490667     3.5553543326    12.0053668123
Ni      4.0907171224     5.6833159267    12.0082185378
Ni      4.0908331781     1.4267871029    12.0082567842
Ni      5.3194670588     3.5548521689    12.0076689101
Ni      6.5483868297     5.6826255083    12.0076695591
Ni      6.5482000008     1.4263538682    12.0076943754
Ni      7.7767748193     3.5552014697    12.0080684833
Ni      9.0054208168     5.6828376687    12.0079031933
Ni      2.0533612531     0.7010864976    14.0161948534
Ni      3.2819597305     2.8257890915    14.0187183692
Ni      4.5098892586     4.9561123083    14.0150886359
Ni      4.5082454152     0.7037587954    14.0164606101
Ni      5.7383342649     2.8291437734    14.0149349978
Ni      6.9676980915     4.9567186860    14.0158268056
Ni      6.9669895350     0.7005696314    14.0158349891
Ni      8.1967027441     2.8281823929    14.0157440085
Ni      9.4252256349     4.9557966121    14.0144935771
Ni      0.0156405754    -0.0280716958    16.0731876585
Ni      1.2377393299     2.1007042949    16.0666891114
Ni      2.4699283744     4.2344034281    16.0656509645
Ni      2.4698396975    -0.0362722208    16.0660331067
Ni      3.7056216108     2.1147532034    16.0704208462
Ni      4.9343575021     4.2365038510    16.0637191261
Ni      4.9375363867    -0.0404422398    16.0615538835
Ni      6.1691130388     2.0985420790    16.0642942761
Ni      7.3880320479     4.2289430746    16.0731495008
O       4.3350964994     0.6578322394    20.4251616761
O       3.8289496359     2.0155599635    18.0749153076
O       3.8387922765     2.0096064682    22.8822888887
C       3.8590033504     2.0155253548    20.4725597885
C       4.3234322693     2.7394401519    19.2108817215
C       4.3287707031     2.7121129199    21.7359752904
H       2.7478665057     1.9336020366    20.4623408437
H       5.4294879424     2.7558243964    19.1600344765
H       3.9466987641     3.7623664606    19.1481786106
H       3.9833070045     3.7596233858    21.7546394616
H       5.4397556448     2.7035319379    21.7531611785
H       5.3098585972     0.7229396341    20.4409727569
H       4.1863913722     1.0959707180    18.1244227478
H       4.1876500979     2.4885980696    23.6518291801
