50
Step 1 | ATOMIC_POSITIONS (angstrom) | Cartesian Angstrom
Ni      0.0000000000     0.0000000000    10.0000000187
Ni      1.2286496544     2.1280836261    10.0000000187
Ni      2.4572993456     4.2561673160    10.0000000187
Ni      2.4572993088     0.0000000000    10.0000000187
Ni      3.6859489631     2.1280836261    10.0000000187
Ni      4.9145986544     4.2561673160    10.0000000187
Ni      4.9145986912     0.0000000000    10.0000000187
Ni      6.1432483456     2.1280836261    10.0000000187
Ni      7.3718980369     4.2561673160    10.0000000187
Ni      1.6381995392     1.4187224174    12.0063764263
Ni      2.8668492304     3.5468061073    12.0063764263
Ni      4.0954988848     5.6748897334    12.0063764263
Ni      4.0954988479     1.4187224174    12.0063764263
Ni      5.3241485392     3.5468061073    12.0063764263
Ni      6.5527981936     5.6748897334    12.0063764263
Ni      6.5527982304     1.4187224174    12.0063764263
Ni      7.7814479217     3.5468061073    12.0063764263
Ni      9.0100975760     5.6748897334    12.0063764263
Ni      2.2516038664     0.3562485209    14.0176456028
Ni      3.4802476365     2.4843745586    14.0183791162
Ni      4.7089381109     4.6123818264    14.0169952596
Ni      4.7088899085     0.3562448836    14.0174492137
Ni      5.9375765867     2.4843175622    14.0172270338
Ni      7.1661917015     4.6124553567    14.0183791162
Ni      7.1661864210     0.3563029066    14.0178601745
Ni      8.3948849266     2.4843550995    14.0174492137
Ni      9.6235247977     4.6124290550    14.0176456028
Ni      0.4109679877    -0.7121197728    16.0096900244
Ni      1.6409294032     1.4128966764    16.0175209558
Ni      2.8645368409     3.5423294344    16.0122099614
Ni      2.8723654078    -0.7080799885    16.0099654176
Ni      4.0978342894     1.4064273315    16.0123996162
Ni      5.3295538768     3.5487306103    16.0155518537
Ni      5.3274955631    -0.7147057269    16.0170041949
Ni      6.5579033382     1.4095050926    16.0092121853
Ni      7.7916969995     3.5384530492    16.0107707442
O       5.9209689276     2.2556547385    20.3422106439
O       5.4271507048     3.6088239443    17.9830559935
O       5.4333830526     3.6022795539    22.7897363274
C       5.4432485651     3.6045958524    20.3775632294
C       5.9098873884     4.3270330894    19.1204349627
C       5.9154440620     4.2996249841    21.6401450788
H       4.3279975879     3.5208651003    20.3740788980
H       7.0145286364     4.3393215438    19.0672388256
H       5.5380850936     5.3446045053    19.0644708560
H       5.5715942219     5.3392537799    21.6725532153
H       7.0247837479     4.2874031268    21.6726991180
H       6.9013936296     2.3140512801    20.3507576467
H       5.7775403980     2.6882936659    18.0357674249
H       5.7776658057     4.0789431934    23.5620502992
50
Step 2 | ATOMIC_POSITIONS (angstrom) | Cartesian Angstrom
Ni      0.0000000000     0.0000000000    10.0000000187
Ni      1.2286496544     2.1280836261    10.0000000187
Ni      2.4572993456     4.2561673160    10.0000000187
Ni      2.4572993088     0.0000000000    10.0000000187
Ni      3.6859489631     2.1280836261    10.0000000187
Ni      4.9145986544     4.2561673160    10.0000000187
Ni      4.9145986912     0.0000000000    10.0000000187
Ni      6.1432483456     2.1280836261    10.0000000187
Ni      7.3718980369     4.2561673160    10.0000000187
Ni      1.6381995392     1.4187224174    12.0063764263
Ni      2.8668492304     3.5468061073    12.0063764263
Ni      4.0954988848     5.6748897334    12.0063764263
Ni      4.0954988479     1.4187224174    12.0063764263
Ni      5.3241485392     3.5468061073    12.0063764263
Ni      6.5527981936     5.6748897334    12.0063764263
Ni      6.5527982304     1.4187224174    12.0063764263
Ni      7.7814479217     3.5468061073    12.0063764263
Ni      9.0100975760     5.6748897334    12.0063764263
Ni      2.2516038664     0.3562485209    14.0176456028
Ni      3.4802476365     2.4843745586    14.0183791162
Ni      4.7089381109     4.6123818264    14.0169952596
Ni      4.7088899085     0.3562448836    14.0174492137
Ni      5.9375765867     2.4843175622    14.0172270338
Ni      7.1661917015     4.6124553567    14.0183791162
Ni      7.1661864210     0.3563029066    14.0178601745
Ni      8.3948849266     2.4843550995    14.0174492137
Ni      9.6235247977     4.6124290550    14.0176456028
Ni      0.4055480362    -0.7037669195    16.0001157115
Ni      1.6395814655     1.4130880137    16.0247390970
Ni      2.8532881978     3.5438907391    16.0062698841
Ni      2.8777180874    -0.6938661944    15.9993215872
Ni      4.0946148061     1.3948128431    16.0071040159
Ni      5.3348199735     3.5662548170    16.0215197442
Ni      5.3277030763    -0.7133584403    16.0230739001
Ni      6.5617761263     1.4017222947    15.9980647271
Ni      7.8052622664     3.5348245741    16.0022037442
O       5.9237580523     2.2382418298    20.3315478973
O       5.4014787858     3.5867463816    18.0090529272
O       5.4215127117     3.5940520220    22.7966075233
C       5.4526691438     3.6013822190    20.3889454744
C       5.9165552744     4.3357578344    19.1277866576
C       5.9170685259     4.3026669364    21.6544837112
H       4.3405516462     3.5223915720    20.3744085387
H       7.0219703846     4.3479155725    19.0742305091
H       5.5323788491     5.3572882075    19.0547055869
H       5.5712739447     5.3558688462    21.6612059842
H       7.0323047835     4.2949285454    21.6575153747
H       6.8961030544     2.3081261593    20.3536642194
H       5.7751500247     2.6721479116    18.0490354777
H       5.7739440507     4.0745154544    23.5641533618
50
Step 3 | ATOMIC_POSITIONS (angstrom) | Cartesian Angstrom
Ni      0.0000000000     0.0000000000    10.0000000187
Ni      1.2286496544     2.1280836261    10.0000000187
Ni      2.4572993456     4.2561673160    10.0000000187
Ni      2.4572993088     0.0000000000    10.0000000187
Ni      3.6859489631     2.1280836261    10.0000000187
Ni      4.9145986544     4.2561673160    10.0000000187
Ni      4.9145986912     0.0000000000    10.0000000187
Ni      6.1432483456     2.1280836261    10.0000000187
Ni      7.3718980369     4.2561673160    10.0000000187
Ni      1.6381995392     1.4187224174    12.0063764263
Ni      2.8668492304     3.5468061073    12.0063764263
Ni      4.0954988848     5.6748897334    12.0063764263
Ni      4.0954988479     1.4187224174    12.0063764263
Ni      5.3241485392     3.5468061073    12.0063764263
Ni      6.5527981936     5.6748897334    12.0063764263
Ni      6.5527982304     1.4187224174    12.0063764263
Ni      7.7814479217     3.5468061073    12.0063764263
Ni      9.0100975760     5.6748897334    12.0063764263
Ni      2.2516038664     0.3562485209    14.0176456028
Ni      3.4802476365     2.4843745586    14.0183791162
Ni      4.7089381109     4.6123818264    14.0169952596
Ni      4.7088899085     0.3562448836    14.0174492137
Ni      5.9375765867     2.4843175622    14.0172270338
Ni      7.1661917015     4.6124553567    14.0183791162
Ni      7.1661864210     0.3563029066    14.0178601745
Ni      8.3948849266     2.4843550995    14.0174492137
Ni      9.6235247977     4.6124290550    14.0176456028
Ni      0.4003737091    -0.6969638891    15.9898923737
Ni      1.6383608285     1.4145028007    16.0340800310
Ni      2.8422154422     3.5451937338    15.9997597625
Ni      2.8833563566    -0.6788206631    15.9884486719
Ni      4.0921965923     1.3829357228    16.0011326158
Ni      5.3421244936     3.5871250077    16.0335071520
Ni      5.3280759171    -0.7108703052    16.0311857978
Ni      6.5644135145     1.3953427531    15.9858799834
Ni      7.8191454201     3.5297702892    15.9934392276
O       5.9204595106     2.2336234403    20.3220284920
O       5.3772926683     3.5631866326    18.0375012761
O       5.4157119085     3.5957266536    22.8011784437
C       5.4572267213     3.5991823125    20.3973762615
C       5.9183949335     4.3360682720    19.1355157288
C       5.9202660829     4.3037378038    21.6625495565
H       4.3575525514     3.5239169963    20.3759374559
H       7.0279192259     4.3587194154    19.0788548327
H       5.5279464145     5.3649726168    19.0441873218
H       5.5733442101     5.3634966623    21.6505601226
H       7.0349151705     4.3039671318    21.6466136084
H       6.8989376106     2.2972260783    20.3574458741
H       5.7701912716     2.6582517529    18.0675354560
H       5.7674685244     4.0663956591    23.5695753570
50
Step 4 | ATOMIC_POSITIONS (angstrom) | Cartesian Angstrom
Ni      0.0000000000     0.0000000000    10.0000000187
Ni      1.2286496544     2.1280836261    10.0000000187
Ni      2.4572993456     4.2561673160    10.0000000187
Ni      2.4572993088     0.0000000000    10.0000000187
Ni      3.6859489631     2.1280836261    10.0000000187
Ni      4.9145986544     4.2561673160    10.0000000187
Ni      4.9145986912     0.0000000000    10.0000000187
Ni      6.1432483456     2.1280836261    10.0000000187
Ni      7.3718980369     4.2561673160    10.0000000187
Ni      1.6381995392     1.4187224174    12.0063764263
Ni      2.8668492304     3.5468061073    12.0063764263
Ni      4.0954988848     5.6748897334    12.0063764263
Ni      4.0954988479     1.4187224174    12.0063764263
Ni      5.3241485392     3.5468061073    12.0063764263
Ni      6.5527981936     5.6748897334    12.0063764263
Ni      6.5527982304     1.4187224174    12.0063764263
Ni      7.7814479217     3.5468061073    12.0063764263
Ni      9.0100975760     5.6748897334    12.0063764263
Ni      2.2516038664     0.3562485209    14.0176456028
Ni      3.4802476365     2.4843745586    14.0183791162
Ni      4.7089381109     4.6123818264    14.0169952596
Ni      4.7088899085     0.3562448836    14.0174492137
Ni      5.9375765867     2.4843175622    14.0172270338
Ni      7.1661917015     4.6124553567    14.0183791162
Ni      7.1661864210     0.3563029066    14.0178601745
Ni      8.3948849266     2.4843550995    14.0174492137
Ni      9.6235247977     4.6124290550    14.0176456028
Ni      0.3967855396    -0.6942714469    15.9810675804
Ni      1.6377119468     1.4174402119    16.0443486728
Ni      2.8342169395     3.5459608323    15.9938768801
Ni      2.8879055938    -0.6660984179    15.9797739952
Ni      4.0915408727     1.3734243343    15.9955226706
Ni      5.3506768575     3.6085176037    16.0507367215
Ni      5.3287554317    -0.7071994562    16.0403652773
Ni      6.5646115297     1.3924637516    15.9749857767
Ni      7.8300302671     3.5236828159    15.9863810754
O       5.9275285924     2.2371466366    20.3163021147
O       5.3579595317     3.5440740950    18.0604291283
O       5.4133580929     3.6014980242    22.7982178102
C       5.4628636949     3.6014329111    20.4033063764
C       5.9172800538     4.3343461028    19.1408164607
C       5.9234882474     4.3047268303    21.6637111102
H       4.3690694799     3.5252205849    20.3788357623
H       7.0276876435     4.3688034848    19.0802549660
H       5.5258956065     5.3627172241    19.0350025337
H       5.5771073604     5.3621814213    21.6420700631
H       7.0345080386     4.3127123986    21.6418415818
H       6.8950468715     2.2825349229    20.3613838190
H       5.7638649350     2.6458229655    18.0894755708
H       5.7620733815     4.0597779544    23.5822830173
