50
Step 1 | ATOMIC_POSITIONS (angstrom) | Cartesian Angstrom
Ni      0.0000000000     0.0000000000    10.0000000187
Ni      1.2286496544     2.1280836261    10.0000000187
Ni      2.4572993456     4.2561673160    10.0000000187
Ni      2.4572993088     0.0000000000    10.0000000187
Ni      3.6859489631     2.1280836261    10.0000000187
Ni      4.9145986544     4.2561673160    10.0000000187
Ni      4.9145986912     0.0000000000    10.0000000187
Ni      6.1432483456     2.1280836261    10.0000000187
Ni      7.3718980369     4.2561673160    10.0000000187
Ni      1.6381995392     1.4187224174    12.0063764263
Ni      2.8668492304     3.5468061073    12.0063764263
Ni      4.0954988848     5.6748897334    12.0063764263
Ni      4.0954988479     1.4187224174    12.0063764263
Ni      5.3241485392     3.5468061073    12.0063764263
Ni      6.5527981936     5.6748897334    12.0063764263
Ni      6.5527982304     1.4187224174    12.0063764263
Ni      7.7814479217     3.5468061073    12.0063764263
Ni      9.0100975760     5.6748897334    12.0063764263
Ni      2.2516038664     0.3562485209    14.0176456028
Ni      3.4802476365     2.4843745586    14.0183791162
Ni      4.7089381109     4.6123818264    14.0169952596
Ni      4.7088899085     0.3562448836    14.0174492137
Ni      5.9375765867     2.4843175622    14.0172270338
Ni      7.1661917015     4.6124553567    14.0183791162
Ni      7.1661864210     0.3563029066    14.0178601745
Ni      8.3948849266     2.4843550995    14.0174492137
Ni      9.6235247977     4.6124290550    14.0176456028
Ni      0.9478440963    -0.3944841671    15.9367605009
Ni      2.2357129678     1.7776333279    16.0228993696
Ni      3.4875680959     3.8636321674    15.9416303692
Ni      3.5171276003    -0.3859262292    15.9412262352
Ni      4.6271339857     1.7256728692    15.9265613823
Ni      5.9327131394     3.9294115815    16.1867177040
Ni      5.9296837891    -0.3196626362    16.0147051605
Ni      7.2064137722     1.7260691701    15.9320129850
Ni      8.3402162584     3.8487400656    15.9309116315
O       6.9754142246     2.9276040795    20.6320782149
O       5.9202202439     3.6966265162    18.1871993548
O       6.7382475005     5.0237155713    22.7286050237
C       6.4801886166     4.2704880072    20.4664721130
C       6.6054097516     4.6814803747    19.0030364239
C       7.1443687040     5.2830731673    21.3853739511
H       5.4124548715     4.2018693672    20.7312986674
H       7.6589450840     4.7566076355    18.6757067322
H       6.1107763948     5.6351083837    18.7771865998
H       6.8489423073     6.2974890904    21.0636072710
H       8.2436671883     5.2059825837    21.2736930923
H       7.9478742084     2.9621102027    20.6898788879
H       6.3137909149     2.8182585433    18.3843467439
H       7.2774327180     5.5630919462    23.3324275406
50
Step 2 | ATOMIC_POSITIONS (angstrom) | Cartesian Angstrom
Ni      0.0000000000     0.0000000000    10.0000000187
Ni      1.2286496544     2.1280836261    10.0000000187
Ni      2.4572993456     4.2561673160    10.0000000187
Ni      2.4572993088     0.0000000000    10.0000000187
Ni      3.6859489631     2.1280836261    10.0000000187
Ni      4.9145986544     4.2561673160    10.0000000187
Ni      4.9145986912     0.0000000000    10.0000000187
Ni      6.1432483456     2.1280836261    10.0000000187
Ni      7.3718980369     4.2561673160    10.0000000187
Ni      1.6381995392     1.4187224174    12.0063764263
Ni      2.8668492304     3.5468061073    12.0063764263
Ni      4.0954988848     5.6748897334    12.0063764263
Ni      4.0954988479     1.4187224174    12.0063764263
Ni      5.3241485392     3.5468061073    12.0063764263
Ni      6.5527981936     5.6748897334    12.0063764263
Ni      6.5527982304     1.4187224174    12.0063764263
Ni      7.7814479217     3.5468061073    12.0063764263
Ni      9.0100975760     5.6748897334    12.0063764263
Ni      2.2516038664     0.3562485209    14.0176456028
Ni      3.4802476365     2.4843745586    14.0183791162
Ni      4.7089381109     4.6123818264    14.0169952596
Ni      4.7088899085     0.3562448836    14.0174492137
Ni      5.9375765867     2.4843175622    14.0172270338
Ni      7.1661917015     4.6124553567    14.0183791162
Ni      7.1661864210     0.3563029066    14.0178601745
Ni      8.3948849266     2.4843550995    14.0174492137
Ni      9.6235247977     4.6124290550    14.0176456028
Ni      0.9477789552    -0.3943763031    15.9349765530
Ni      2.2343951581     1.7736372820    16.0214943447
Ni      3.4894508886     3.8637955106    15.9413287222
Ni      3.5162622957    -0.3857664439    15.9428313868
Ni      4.6288715200     1.7266241473    15.9263326193
Ni      5.9357584746     3.9269806075    16.1856983057
Ni      5.9303963004    -0.3230353782    16.0126974277
Ni      7.2030936320     1.7278858859    15.9314158881
Ni      8.3436942222     3.8499990649    15.9296749244
O       6.9781845624     2.9328954215    20.6268707202
O       5.9187577416     3.7006461251    18.1866050682
O       6.7485278163     5.0278095520    22.7220388050
C       6.4831326853     4.2758529543    20.4623106745
C       6.6058850818     4.6851548800    18.9993768786
C       7.1508801954     5.2890682340    21.3772124664
H       5.4172709752     4.2093092698    20.7344059931
H       7.6598048111     4.7598894084    18.6727534078
H       6.1111729025     5.6387638478    18.7748865880
H       6.8525215352     6.3038554619    21.0572547961
H       8.2499683559     5.2138277653    21.2599003363
H       7.9501556664     2.9673786497    20.6836028620
H       6.3079434232     2.8213472968    18.3861474711
H       7.2903163708     5.5632973859    23.3223043279
50
Step 3 | ATOMIC_POSITIONS (angstrom) | Cartesian Angstrom
Ni      0.0000000000     0.0000000000    10.0000000187
Ni      1.2286496544     2.1280836261    10.0000000187
Ni      2.4572993456     4.2561673160    10.0000000187
Ni      2.4572993088     0.0000000000    10.0000000187
Ni      3.6859489631     2.1280836261    10.0000000187
Ni      4.9145986544     4.2561673160    10.0000000187
Ni      4.9145986912     0.0000000000    10.0000000187
Ni      6.1432483456     2.1280836261    10.0000000187
Ni      7.3718980369     4.2561673160    10.0000000187
Ni      1.6381995392     1.4187224174    12.0063764263
Ni      2.8668492304     3.5468061073    12.0063764263
Ni      4.0954988848     5.6748897334    12.0063764263
Ni      4.0954988479     1.4187224174    12.0063764263
Ni      5.3241485392     3.5468061073    12.0063764263
Ni      6.5527981936     5.6748897334    12.0063764263
Ni      6.5527982304     1.4187224174    12.0063764263
Ni      7.7814479217     3.5468061073    12.0063764263
Ni      9.0100975760     5.6748897334    12.0063764263
Ni      2.2516038664     0.3562485209    14.0176456028
Ni      3.4802476365     2.4843745586    14.0183791162
Ni      4.7089381109     4.6123818264    14.0169952596
Ni      4.7088899085     0.3562448836    14.0174492137
Ni      5.9375765867     2.4843175622    14.0172270338
Ni      7.1661917015     4.6124553567    14.0183791162
Ni      7.1661864210     0.3563029066    14.0178601745
Ni      8.3948849266     2.4843550995    14.0174492137
Ni      9.6235247977     4.6124290550    14.0176456028
Ni      0.9472256294    -0.3942798949    15.9341019423
Ni      2.2338964803     1.7723661586    16.0210404343
Ni      3.4905913653     3.8638035489    15.9405838777
Ni      3.5144226895    -0.3849137627    15.9431355495
Ni      4.6300802243     1.7269089648    15.9266913385
Ni      5.9379797486     3.9253693273    16.1847845949
Ni      5.9298599591    -0.3255696982    16.0110183231
Ni      7.2010180905     1.7288540598    15.9307157088
Ni      8.3458419080     3.8525058649    15.9287730644
O       6.9867848362     2.9440911590    20.6225026985
O       5.9177762795     3.7050909807    18.1844205018
O       6.7686600397     5.0438367673    22.7120248609
C       6.4914347889     4.2864517583    20.4557878060
C       6.6090580948     4.6906289573    18.9919795375
C       7.1641008011     5.3031536837    21.3636551000
H       5.4271886817     4.2222890305    20.7348417604
H       7.6625423369     4.7630542998    18.6630322178
H       6.1154868877     5.6446049675    18.7669797852
H       6.8622418193     6.3175208117    21.0432501962
H       8.2629303705     5.2298490966    21.2396925517
H       7.9589711460     2.9793183767    20.6729781354
H       6.3055532852     2.8255561773    18.3857950214
H       7.3243192170     5.5706637724    23.3081493767
