50
Step 1 | ATOMIC_POSITIONS (angstrom) | Cartesian Angstrom
Ni      0.0000000000     0.0000000000    10.0000000187
Ni      1.2286496544     2.1280836261    10.0000000187
Ni      2.4572993456     4.2561673160    10.0000000187
Ni      2.4572993088     0.0000000000    10.0000000187
Ni      3.6859489631     2.1280836261    10.0000000187
Ni      4.9145986544     4.2561673160    10.0000000187
Ni      4.9145986912     0.0000000000    10.0000000187
Ni      6.1432483456     2.1280836261    10.0000000187
Ni      7.3718980369     4.2561673160    10.0000000187
Ni      1.6360504136     1.4224065639    12.0067657897
Ni      2.8645201009     3.5507647336    12.0053748930
Ni      4.0933294771     5.6786864478    12.0069522301
Ni      4.0934099794     1.4223324897    12.0070236938
Ni      5.3220537831     3.5504354093    12.0067272578
Ni      6.5508151615     5.6783733619    12.0067090277
Ni      6.5507276470     1.4221558731    12.0067297712
Ni      7.7793518086     3.5506121208    12.0068583863
Ni      9.0079968170     5.6784577141    12.0068053863
Ni      2.0500047945     0.7061485464    14.0125171566
Ni      3.2787167393     2.8325589669    14.0140404499
Ni      4.5069848781     4.9617671632    14.0122324728
Ni      4.5061693907     0.7073775360    14.0124939463
Ni      5.7354873115     2.8342227326    14.0119437727
Ni      6.9644223352     4.9621163806    14.0122661486
Ni      6.9641142612     0.7059753307    14.0122648277
Ni      8.1932795882     2.8337553960    14.0124540686
Ni      9.4218736855     4.9616416919    14.0119973592
Ni      0.0072043430    -0.0130087824    16.0451859621
Ni      1.2327209915     2.1155217960    16.0421055594
Ni      2.4630893148     4.2462060762    16.0415926927
Ni      2.4629653746    -0.0169000352    16.0418981782
Ni      3.6949272017     2.1220063907    16.0442185466
Ni      4.9236239335     4.2471661941    16.0406767092
Ni      4.9253158338    -0.0188929022    16.0397501734
Ni      6.1552586177     2.1144693985    16.0410721544
Ni      7.3793681887     4.2435888604    16.0451619994
O       4.3335435288     0.6669682484    20.4304985896
O       3.8401803116     2.0244574239    18.0650414941
O       3.8451286538     2.0140633034    22.8785814260
C       3.8550428458     2.0176523190    20.4667370773
C       4.3205610943     2.7354677691    19.2079690744
C       4.3274515126     2.7105127264    21.7281500498
H       2.7403642893     1.9326991630    20.4621431754
H       5.4262522756     2.7513102829    19.1559361568
H       3.9495805361     3.7566171839    19.1528965719
H       3.9833435645     3.7511862705    21.7606775411
H       5.4362249000     2.6993733945    21.7609756526
H       5.3125910612     0.7259468776    20.4392026004
H       4.1887781728     1.1017454129    18.1210975450
H       4.1894399250     2.4907077327    23.6503470100
50
Step 2 | ATOMIC_POSITIONS (angstrom) | Cartesian Angstrom
Ni      0.0000000000     0.0000000000    10.0000000187
Ni      1.2286496544     2.1280836261    10.0000000187
Ni      2.4572993456     4.2561673160    10.0000000187
Ni      2.4572993088     0.0000000000    10.0000000187
Ni      3.6859489631     2.1280836261    10.0000000187
Ni      4.9145986544     4.2561673160    10.0000000187
Ni      4.9145986912     0.0000000000    10.0000000187
Ni      6.1432483456     2.1280836261    10.0000000187
Ni      7.3718980369     4.2561673160    10.0000000187
Ni      1.6334602243     1.4268887606    12.0078401393
Ni      2.8618490667     3.5553543326    12.0053668123
Ni      4.0907171224     5.6833159267    12.0082185378
Ni      4.0908331781     1.4267871029    12.0082567842
Ni      5.3194670588     3.5548521689    12.0076689101
Ni      6.5483868297     5.6826255083    12.0076695591
Ni      6.5482000008     1.4263538682    12.0076943754
Ni      7.7767748193     3.5552014697    12.0080684833
Ni      9.0054208168     5.6828376687    12.0079031933
Ni      2.0533612531     0.7010864976    14.0161948534
Ni      3.2819597305     2.8257890915    14.0187183692
Ni      4.5098892586     4.9561123083    14.0150886359
Ni      4.5082454152     0.7037587954    14.0164606101
Ni      5.7383342649     2.8291437734    14.0149349978
Ni      6.9676980915     4.9567186860    14.0158268056
Ni      6.9669895350     0.7005696314    14.0158349891
Ni      8.1967027441     2.8281823929    14.0157440085
Ni      9.4252256349     4.9557966121    14.0144935771
Ni      0.0156405754    -0.0280716958    16.0731876585
Ni      1.2377393299     2.1007042949    16.0666891114
Ni      2.4699283744     4.2344034281    16.0656509645
Ni      2.4698396975    -0.0362722208    16.0660331067
Ni      3.7056216108     2.1147532034    16.0704208462
Ni      4.9343575021     4.2365038510    16.0637191261
Ni      4.9375363867    -0.0404422398    16.0615538835
Ni      6.1691130388     2.0985420790    16.0642942761
Ni      7.3880320479     4.2289430746    16.0731495008
O       4.3350964994     0.6578322394    20.4251616761
O       3.8289496359     2.0155599635    18.0749153076
O       3.8387922765     2.0096064682    22.8822888887
C       3.8590033504     2.0155253548    20.4725597885
C       4.3234322693     2.7394401519    19.2108817215
C       4.3287707031     2.7121129199    21.7359752904
H       2.7478665057     1.9336020366    20.4623408437
H       5.4294879424     2.7558243964    19.1600344765
H       3.9466987641     3.7623664606    19.1481786106
H       3.9833070045     3.7596233858    21.7546394616
H       5.4397556448     2.7035319379    21.7531611785
H       5.3098585972     0.7229396341    20.4409727569
H       4.1863913722     1.0959707180    18.1244227478
H       4.1876500979     2.4885980696    23.6518291801
50
Step 3 | ATOMIC_POSITIONS (angstrom) | Cartesian Angstrom
Ni      0.0000000000     0.0000000000    10.0000000187
Ni      1.2286496544     2.1280836261    10.0000000187
Ni      2.4572993456     4.2561673160    10.0000000187
Ni      2.4572993088     0.0000000000    10.0000000187
Ni      3.6859489631     2.1280836261    10.0000000187
Ni      4.9145986544     4.2561673160    10.0000000187
Ni      4.9145986912     0.0000000000    10.0000000187
Ni      6.1432483456     2.1280836261    10.0000000187
Ni      7.3718980369     4.2561673160    10.0000000187
Ni      1.6294064180     1.4340076933    12.0119351309
Ni      2.8577784295     3.5624281116    12.0084774646
Ni      4.0865597830     5.6907065783    12.0124393287
Ni      4.0866976204     1.4338856091    12.0124260833
Ni      5.3153071838     3.5618751849    12.0113914570
Ni      6.5445623959     5.6893533767    12.0115905421
Ni      6.5442084851     1.4329805831    12.0115855886
Ni      7.7726857306     3.5624792770    12.0123501820
Ni      9.0012820848     5.6898425340    12.0118858464
Ni      2.0597243617     0.6910332601    14.0276740556
Ni      3.2878747642     2.8134965608    14.0306806176
Ni      4.5154923307     4.9451619712    14.0247063660
Ni      4.5127742742     0.6959074683    14.0288292160
Ni      5.7440076961     2.8191099499    14.0253693041
Ni      6.9742071073     4.9460742465    14.0274280238
Ni      6.9727662556     0.6897910095    14.0274603201
Ni      8.2033046689     2.8174062579    14.0262680077
Ni      9.4316848301     4.9445014971    14.0233747725
Ni      0.0293116863    -0.0521209220    16.1142394568
Ni      1.2466382942     2.0766353630    16.1025074903
Ni      2.4812078278     4.2148853391    16.1006664179
Ni      2.4815603110    -0.0664493545    16.1008120118
Ni      3.7230692785     2.1023902877    16.1074261113
Ni      4.9518267273     4.2188673356    16.0972794068
Ni      4.9564940692    -0.0738310021    16.0927822520
Ni      6.1907836001     2.0729006581    16.0977041609
Ni      7.4019585473     4.2054002393    16.1142091719
O       4.3327319854     0.6498753188    20.4178095740
O       3.8122956693     2.0038527653    18.0949238939
O       3.8327517651     2.0080422530    22.8874005786
C       3.8669890983     2.0128057991    20.4792119657
C       4.3247605197     2.7432705356    19.2163477047
C       4.3291124478     2.7138103809    21.7435968071
H       2.7583245951     1.9345563670    20.4632507062
H       5.4340022344     2.7632831773    19.1649486202
H       3.9431283174     3.7682509551    19.1408058664
H       3.9845250851     3.7677490076    21.7460952250
H       5.4438495888     2.7102082261    21.7435552948
H       5.3106328742     0.7165710715    20.4438985947
H       4.1827020318     1.0856296214    18.1315819428
H       4.1834633540     2.4833842690    23.6549152865
50
Step 4 | ATOMIC_POSITIONS (angstrom) | Cartesian Angstrom
Ni      0.0000000000     0.0000000000    10.0000000187
Ni      1.2286496544     2.1280836261    10.0000000187
Ni      2.4572993456     4.2561673160    10.0000000187
Ni      2.4572993088     0.0000000000    10.0000000187
Ni      3.6859489631     2.1280836261    10.0000000187
Ni      4.9145986544     4.2561673160    10.0000000187
Ni      4.9145986912     0.0000000000    10.0000000187
Ni      6.1432483456     2.1280836261    10.0000000187
Ni      7.3718980369     4.2561673160    10.0000000187
Ni      1.6234678779     1.4445148473    12.0227607956
Ni      2.8518661752     3.5728789689    12.0182198797
Ni      4.0803790089     5.7017637812    12.0231431398
Ni      4.0806031841     1.4443479527    12.0233268745
Ni      5.3091196049     3.5722395337    12.0214995927
Ni      6.5389220001     5.6992794755    12.0223024315
Ni      6.5383137723     1.4427340229    12.0222213309
Ni      7.7665694814     3.5732553815    12.0233509824
Ni      8.9950488904     5.7004099905    12.0222521024
Ni      2.0703577200     0.6736213585    14.0498469046
Ni      3.2977100421     2.7931787169    14.0526844913
Ni      4.5251247737     4.9264215325    14.0437536691
Ni      4.5209679697     0.6818196413    14.0526629291
Ni      5.7537820459     2.8018357619    14.0460254444
Ni      6.9853686548     4.9279087309    14.0501690208
Ni      6.9826972158     0.6712540934    14.0501752055
Ni      8.2144527752     2.7989427690    14.0469026364
Ni      9.4426818795     4.9252823861    14.0410734090
Ni      0.0511705929    -0.0899830561    16.1742586625
Ni      1.2623139855     2.0383393671    16.1545128042
Ni      2.4996516640     4.1830292147    16.1513377169
Ni      2.5012387439    -0.1123035791    16.1510077770
Ni      3.7507509247     2.0813880924    16.1595769778
Ni      4.9794320777     4.1899996900    16.1459561580
Ni      4.9851782188    -0.1241254121    16.1380322526
Ni      6.2235799980     2.0324338544    16.1459529999
Ni      7.4240259137     4.1680865794    16.1742562964
O       4.3362600007     0.6420051806    20.4083288985
O       3.7879782046     1.9847402102    18.1269805152
O       3.8248576206     2.0074746018    22.8899024628
C       3.8774554476     2.0115622656    20.4887341832
C       4.3268057148     2.7486521813    19.2257501101
C       4.3308419187     2.7160706871    21.7514031546
H       2.7723677875     1.9358244305    20.4653674898
H       5.4383593930     2.7747931184    19.1707255282
H       3.9385765602     3.7731679907    19.1303266423
H       3.9871151932     3.7755554330    21.7339521820
H       5.4480184281     2.7204410172    21.7321935445
H       5.3072680740     0.7041337909    20.4484140175
H       4.1761719110     1.0706119070    18.1455993247
H       4.1779524224     2.4766612098    23.6644916068
50
Step 5 | ATOMIC_POSITIONS (angstrom) | Cartesian Angstrom
Ni      0.0000000000     0.0000000000    10.0000000187
Ni      1.2286496544     2.1280836261    10.0000000187
Ni      2.4572993456     4.2561673160    10.0000000187
Ni      2.4572993088     0.0000000000    10.0000000187
Ni      3.6859489631     2.1280836261    10.0000000187
Ni      4.9145986544     4.2561673160    10.0000000187
Ni      4.9145986912     0.0000000000    10.0000000187
Ni      6.1432483456     2.1280836261    10.0000000187
Ni      7.3718980369     4.2561673160    10.0000000187
Ni      1.6148460238     1.4598500089    12.0455892983
Ni      2.8432763098     3.5883224289    12.0396871658
Ni      4.0713400481     5.7179899051    12.0454927712
Ni      4.0717417852     1.4595805432    12.0463045675
Ni      5.3000877640     3.5873589201    12.0431121232
Ni      6.5306519210     5.7136822628    12.0452877138
Ni      6.5297881314     1.4569661863    12.0450389096
Ni      7.7575795378     3.5889483205    12.0464199766
Ni      8.9858315742     5.7160508753    12.0441349728
Ni      2.0873891208     0.6445223566    14.0888902064
Ni      3.3136079416     2.7606717121    14.0904749060
Ni      4.5411505113     4.8956261030    14.0779341397
Ni      4.5351603171     0.6575356363    14.0945629181
Ni      5.7700339963     2.7732614568    14.0829596169
Ni      7.0036985389     4.8981411606    14.0906943635
Ni      6.9990841408     0.6406744258    14.0905066873
Ni      8.2324573471     2.7684826275    14.0837792600
Ni      9.4606533551     4.8938433555    14.0729337116
Ni      0.0860990342    -0.1494316497    16.2617320832
Ni      1.2898643076     1.9777629965    16.2296897703
Ni      2.5299034125     4.1310458632    16.2241687471
Ni      2.5341359906    -0.1813846702    16.2232417047
Ni      3.7941525597     2.0456901863    16.2318945257
Ni      5.0226266605     4.1426911506    16.2162413915
Ni      5.0281660206    -0.1989295361    16.2037725901
Ni      6.2724684611     1.9689774635    16.2156346990
Ni      7.4589396480     4.1090614926    16.2618198220
O       4.3334336416     0.6363721557    20.3966416679
O       3.7535764126     1.9553101407    18.1766429809
O       3.8183661704     2.0136832123    22.8973124503
C       3.8899977510     2.0107192196    20.5008210851
C       4.3301975906     2.7525287470    19.2399005070
C       4.3365672289     2.7195636522    21.7594000179
H       2.7923234931     1.9372399707    20.4699214671
H       5.4413539827     2.7920212759    19.1765968827
H       3.9318069493     3.7772772798    19.1158474150
H       3.9913949432     3.7825655210    21.7170006206
H       5.4522020600     2.7358333489    21.7201512334
H       5.3125473083     0.6832714073    20.4559880159
H       4.1650840654     1.0487237479    18.1723956432
H       4.1668302689     2.4628962039    23.6759899167
