50
Step 1 | ATOMIC_POSITIONS (angstrom) | Cartesian Angstrom
Ni      0.0000000000     0.0000000000    10.0000000187
Ni      1.2286496544     2.1280836261    10.0000000187
Ni      2.4572993456     4.2561673160    10.0000000187
Ni      2.4572993088     0.0000000000    10.0000000187
Ni      3.6859489631     2.1280836261    10.0000000187
Ni      4.9145986544     4.2561673160    10.0000000187
Ni      4.9145986912     0.0000000000    10.0000000187
Ni      6.1432483456     2.1280836261    10.0000000187
Ni      7.3718980369     4.2561673160    10.0000000187
Ni      1.6381995392     1.4187224174    12.0063764263
Ni      2.8668492304     3.5468061073    12.0063764263
Ni      4.0954988848     5.6748897334    12.0063764263
Ni      4.0954988479     1.4187224174    12.0063764263
Ni      5.3241485392     3.5468061073    12.0063764263
Ni      6.5527981936     5.6748897334    12.0063764263
Ni      6.5527982304     1.4187224174    12.0063764263
Ni      7.7814479217     3.5468061073    12.0063764263
Ni      9.0100975760     5.6748897334    12.0063764263
Ni      2.2516038664     0.3562485209    14.0176456028
Ni      3.4802476365     2.4843745586    14.0183791162
Ni      4.7089381109     4.6123818264    14.0169952596
Ni      4.7088899085     0.3562448836    14.0174492137
Ni      5.9375765867     2.4843175622    14.0172270338
Ni      7.1661917015     4.6124553567    14.0183791162
Ni      7.1661864210     0.3563029066    14.0178601745
Ni      8.3948849266     2.4843550995    14.0174492137
Ni      9.6235247977     4.6124290550    14.0176456028
Ni      0.9478440963    -0.3944841671    15.9367605009
Ni      2.2357129678     1.7776333279    16.0228993696
Ni      3.4875680959     3.8636321674    15.9416303692
Ni      3.5171276003    -0.3859262292    15.9412262352
Ni      4.6271339857     1.7256728692    15.9265613823
Ni      5.9327131394     3.9294115815    16.1867177040
Ni      5.9296837891    -0.3196626362    16.0147051605
Ni      7.2064137722     1.7260691701    15.9320129850
Ni      8.3402162584     3.8487400656    15.9309116315
O       6.9754142246     2.9276040795    20.6320782149
O       5.9202202439     3.6966265162    18.1871993548
O       6.7382475005     5.0237155713    22.7286050237
C       6.4801886166     4.2704880072    20.4664721130
C       6.6054097516     4.6814803747    19.0030364239
C       7.1443687040     5.2830731673    21.3853739511
H       5.4124548715     4.2018693672    20.7312986674
H       7.6589450840     4.7566076355    18.6757067322
H       6.1107763948     5.6351083837    18.7771865998
H       6.8489423073     6.2974890904    21.0636072710
H       8.2436671883     5.2059825837    21.2736930923
H       7.9478742084     2.9621102027    20.6898788879
H       6.3137909149     2.8182585433    18.3843467439
H       7.2774327180     5.5630919462    23.3324275406
50
Step 2 | ATOMIC_POSITIONS (angstrom) | Cartesian Angstrom
Ni      0.0000000000     0.0000000000    10.0000000187
Ni      1.2286496544     2.1280836261    10.0000000187
Ni      2.4572993456     4.2561673160    10.0000000187
Ni      2.4572993088     0.0000000000    10.0000000187
Ni      3.6859489631     2.1280836261    10.0000000187
Ni      4.9145986544     4.2561673160    10.0000000187
Ni      4.9145986912     0.0000000000    10.0000000187
Ni      6.1432483456     2.1280836261    10.0000000187
Ni      7.3718980369     4.2561673160    10.0000000187
Ni      1.6381995392     1.4187224174    12.0063764263
Ni      2.8668492304     3.5468061073    12.0063764263
Ni      4.0954988848     5.6748897334    12.0063764263
Ni      4.0954988479     1.4187224174    12.0063764263
Ni      5.3241485392     3.5468061073    12.0063764263
Ni      6.5527981936     5.6748897334    12.0063764263
Ni      6.5527982304     1.4187224174    12.0063764263
Ni      7.7814479217     3.5468061073    12.0063764263
Ni      9.0100975760     5.6748897334    12.0063764263
Ni      2.2516038664     0.3562485209    14.0176456028
Ni      3.4802476365     2.4843745586    14.0183791162
Ni      4.7089381109     4.6123818264    14.0169952596
Ni      4.7088899085     0.3562448836    14.0174492137
Ni      5.9375765867     2.4843175622    14.0172270338
Ni      7.1661917015     4.6124553567    14.0183791162
Ni      7.1661864210     0.3563029066    14.0178601745
Ni      8.3948849266     2.4843550995    14.0174492137
Ni      9.6235247977     4.6124290550    14.0176456028
Ni      0.9477789552    -0.3943763031    15.9349765530
Ni      2.2343951581     1.7736372820    16.0214943447
Ni      3.4894508886     3.8637955106    15.9413287222
Ni      3.5162622957    -0.3857664439    15.9428313868
Ni      4.6288715200     1.7266241473    15.9263326193
Ni      5.9357584746     3.9269806075    16.1856983057
Ni      5.9303963004    -0.3230353782    16.0126974277
Ni      7.2030936320     1.7278858859    15.9314158881
Ni      8.3436942222     3.8499990649    15.9296749244
O       6.9781845624     2.9328954215    20.6268707202
O       5.9187577416     3.7006461251    18.1866050682
O       6.7485278163     5.0278095520    22.7220388050
C       6.4831326853     4.2758529543    20.4623106745
C       6.6058850818     4.6851548800    18.9993768786
C       7.1508801954     5.2890682340    21.3772124664
H       5.4172709752     4.2093092698    20.7344059931
H       7.6598048111     4.7598894084    18.6727534078
H       6.1111729025     5.6387638478    18.7748865880
H       6.8525215352     6.3038554619    21.0572547961
H       8.2499683559     5.2138277653    21.2599003363
H       7.9501556664     2.9673786497    20.6836028620
H       6.3079434232     2.8213472968    18.3861474711
H       7.2903163708     5.5632973859    23.3223043279
50
Step 3 | ATOMIC_POSITIONS (angstrom) | Cartesian Angstrom
Ni      0.0000000000     0.0000000000    10.0000000187
Ni      1.2286496544     2.1280836261    10.0000000187
Ni      2.4572993456     4.2561673160    10.0000000187
Ni      2.4572993088     0.0000000000    10.0000000187
Ni      3.6859489631     2.1280836261    10.0000000187
Ni      4.9145986544     4.2561673160    10.0000000187
Ni      4.9145986912     0.0000000000    10.0000000187
Ni      6.1432483456     2.1280836261    10.0000000187
Ni      7.3718980369     4.2561673160    10.0000000187
Ni      1.6381995392     1.4187224174    12.0063764263
Ni      2.8668492304     3.5468061073    12.0063764263
Ni      4.0954988848     5.6748897334    12.0063764263
Ni      4.0954988479     1.4187224174    12.0063764263
Ni      5.3241485392     3.5468061073    12.0063764263
Ni      6.5527981936     5.6748897334    12.0063764263
Ni      6.5527982304     1.4187224174    12.0063764263
Ni      7.7814479217     3.5468061073    12.0063764263
Ni      9.0100975760     5.6748897334    12.0063764263
Ni      2.2516038664     0.3562485209    14.0176456028
Ni      3.4802476365     2.4843745586    14.0183791162
Ni      4.7089381109     4.6123818264    14.0169952596
Ni      4.7088899085     0.3562448836    14.0174492137
Ni      5.9375765867     2.4843175622    14.0172270338
Ni      7.1661917015     4.6124553567    14.0183791162
Ni      7.1661864210     0.3563029066    14.0178601745
Ni      8.3948849266     2.4843550995    14.0174492137
Ni      9.6235247977     4.6124290550    14.0176456028
Ni      0.9472256294    -0.3942798949    15.9341019423
Ni      2.2338964803     1.7723661586    16.0210404343
Ni      3.4905913653     3.8638035489    15.9405838777
Ni      3.5144226895    -0.3849137627    15.9431355495
Ni      4.6300802243     1.7269089648    15.9266913385
Ni      5.9379797486     3.9253693273    16.1847845949
Ni      5.9298599591    -0.3255696982    16.0110183231
Ni      7.2010180905     1.7288540598    15.9307157088
Ni      8.3458419080     3.8525058649    15.9287730644
O       6.9867848362     2.9440911590    20.6225026985
O       5.9177762795     3.7050909807    18.1844205018
O       6.7686600397     5.0438367673    22.7120248609
C       6.4914347889     4.2864517583    20.4557878060
C       6.6090580948     4.6906289573    18.9919795375
C       7.1641008011     5.3031536837    21.3636551000
H       5.4271886817     4.2222890305    20.7348417604
H       7.6625423369     4.7630542998    18.6630322178
H       6.1154868877     5.6446049675    18.7669797852
H       6.8622418193     6.3175208117    21.0432501962
H       8.2629303705     5.2298490966    21.2396925517
H       7.9589711460     2.9793183767    20.6729781354
H       6.3055532852     2.8255561773    18.3857950214
H       7.3243192170     5.5706637724    23.3081493767
50
Step 4 | ATOMIC_POSITIONS (angstrom) | Cartesian Angstrom
Ni      0.0000000000     0.0000000000    10.0000000187
Ni      1.2286496544     2.1280836261    10.0000000187
Ni      2.4572993456     4.2561673160    10.0000000187
Ni      2.4572993088     0.0000000000    10.0000000187
Ni      3.6859489631     2.1280836261    10.0000000187
Ni      4.9145986544     4.2561673160    10.0000000187
Ni      4.9145986912     0.0000000000    10.0000000187
Ni      6.1432483456     2.1280836261    10.0000000187
Ni      7.3718980369     4.2561673160    10.0000000187
Ni      1.6381995392     1.4187224174    12.0063764263
Ni      2.8668492304     3.5468061073    12.0063764263
Ni      4.0954988848     5.6748897334    12.0063764263
Ni      4.0954988479     1.4187224174    12.0063764263
Ni      5.3241485392     3.5468061073    12.0063764263
Ni      6.5527981936     5.6748897334    12.0063764263
Ni      6.5527982304     1.4187224174    12.0063764263
Ni      7.7814479217     3.5468061073    12.0063764263
Ni      9.0100975760     5.6748897334    12.0063764263
Ni      2.2516038664     0.3562485209    14.0176456028
Ni      3.4802476365     2.4843745586    14.0183791162
Ni      4.7089381109     4.6123818264    14.0169952596
Ni      4.7088899085     0.3562448836    14.0174492137
Ni      5.9375765867     2.4843175622    14.0172270338
Ni      7.1661917015     4.6124553567    14.0183791162
Ni      7.1661864210     0.3563029066    14.0178601745
Ni      8.3948849266     2.4843550995    14.0174492137
Ni      9.6235247977     4.6124290550    14.0176456028
Ni      0.9459530714    -0.3944052458    15.9337186784
Ni      2.2337298322     1.7724818608    16.0210949327
Ni      3.4920305938     3.8641118449    15.9393073593
Ni      3.5118956204    -0.3836748323    15.9435131137
Ni      4.6310985640     1.7267600286    15.9279098553
Ni      5.9404101739     3.9242122403    16.1843850128
Ni      5.9289061348    -0.3274258184    16.0095558724
Ni      7.1996837499     1.7296069185    15.9305880114
Ni      8.3477371817     3.8558834466    15.9274716521
O       7.0071366186     2.9641361216    20.6195236538
O       5.9218644097     3.7120569707    18.1827137788
O       6.8031594006     5.0728117872    22.6981228196
C       6.5110750153     4.3056335864    20.4481175113
C       6.6203311826     4.7005431502    18.9817649842
C       7.1897523903     5.3280637025    21.3457531492
H       5.4490377594     4.2445206023    20.7359123950
H       7.6727732188     4.7687803485    18.6474090164
H       6.1287411263     5.6549589989    18.7548277338
H       6.8840562100     6.3414602908    21.0239721190
H       8.2879737974     5.2568898845    21.2139045835
H       7.9795177423     3.0008372903    20.6632339150
H       6.3096092655     2.8329584871    18.3858592153
H       7.3732322221     5.5907578033    23.2887047756
50
Step 5 | ATOMIC_POSITIONS (angstrom) | Cartesian Angstrom
Ni      0.0000000000     0.0000000000    10.0000000187
Ni      1.2286496544     2.1280836261    10.0000000187
Ni      2.4572993456     4.2561673160    10.0000000187
Ni      2.4572993088     0.0000000000    10.0000000187
Ni      3.6859489631     2.1280836261    10.0000000187
Ni      4.9145986544     4.2561673160    10.0000000187
Ni      4.9145986912     0.0000000000    10.0000000187
Ni      6.1432483456     2.1280836261    10.0000000187
Ni      7.3718980369     4.2561673160    10.0000000187
Ni      1.6381995392     1.4187224174    12.0063764263
Ni      2.8668492304     3.5468061073    12.0063764263
Ni      4.0954988848     5.6748897334    12.0063764263
Ni      4.0954988479     1.4187224174    12.0063764263
Ni      5.3241485392     3.5468061073    12.0063764263
Ni      6.5527981936     5.6748897334    12.0063764263
Ni      6.5527982304     1.4187224174    12.0063764263
Ni      7.7814479217     3.5468061073    12.0063764263
Ni      9.0100975760     5.6748897334    12.0063764263
Ni      2.2516038664     0.3562485209    14.0176456028
Ni      3.4802476365     2.4843745586    14.0183791162
Ni      4.7089381109     4.6123818264    14.0169952596
Ni      4.7088899085     0.3562448836    14.0174492137
Ni      5.9375765867     2.4843175622    14.0172270338
Ni      7.1661917015     4.6124553567    14.0183791162
Ni      7.1661864210     0.3563029066    14.0178601745
Ni      8.3948849266     2.4843550995    14.0174492137
Ni      9.6235247977     4.6124290550    14.0176456028
Ni      0.9439243514    -0.3934066573    15.9338740550
Ni      2.2344465684     1.7773676195    16.0209185074
Ni      3.4930470235     3.8650193908    15.9357775662
Ni      3.5062631987    -0.3812744887    15.9445254548
Ni      4.6311600958     1.7247339579    15.9310349802
Ni      5.9425150199     3.9241477607    16.1887757407
Ni      5.9254741328    -0.3281195569    16.0071876134
Ni      7.1979461947     1.7310573482    15.9312426992
Ni      8.3481413658     3.8630919889    15.9258321898
O       7.0232642119     2.9827447043    20.6162103954
O       5.9201083645     3.7225049300    18.1819771224
O       6.8274998148     5.0918715982    22.6854317553
C       6.5261872739     4.3230489666    20.4419754396
C       6.6274989290     4.7106507487    18.9751133479
C       7.2083825316     5.3482223004    21.3327842507
H       5.4661196095     4.2655239970    20.7349647515
H       7.6788035549     4.7713635057    18.6361065353
H       6.1413255774     5.6677147670    18.7491823816
H       6.8992852109     6.3617509854    21.0138398124
H       8.3058838152     5.2799254801    21.1963990902
H       7.9966203760     3.0218121702    20.6464684004
H       6.3054148090     2.8427641283    18.3864708233
H       7.4109424834     5.5976536218    23.2728753336
50
Step 6 | ATOMIC_POSITIONS (angstrom) | Cartesian Angstrom
Ni      0.0000000000     0.0000000000    10.0000000187
Ni      1.2286496544     2.1280836261    10.0000000187
Ni      2.4572993456     4.2561673160    10.0000000187
Ni      2.4572993088     0.0000000000    10.0000000187
Ni      3.6859489631     2.1280836261    10.0000000187
Ni      4.9145986544     4.2561673160    10.0000000187
Ni      4.9145986912     0.0000000000    10.0000000187
Ni      6.1432483456     2.1280836261    10.0000000187
Ni      7.3718980369     4.2561673160    10.0000000187
Ni      1.6381995392     1.4187224174    12.0063764263
Ni      2.8668492304     3.5468061073    12.0063764263
Ni      4.0954988848     5.6748897334    12.0063764263
Ni      4.0954988479     1.4187224174    12.0063764263
Ni      5.3241485392     3.5468061073    12.0063764263
Ni      6.5527981936     5.6748897334    12.0063764263
Ni      6.5527982304     1.4187224174    12.0063764263
Ni      7.7814479217     3.5468061073    12.0063764263
Ni      9.0100975760     5.6748897334    12.0063764263
Ni      2.2516038664     0.3562485209    14.0176456028
Ni      3.4802476365     2.4843745586    14.0183791162
Ni      4.7089381109     4.6123818264    14.0169952596
Ni      4.7088899085     0.3562448836    14.0174492137
Ni      5.9375765867     2.4843175622    14.0172270338
Ni      7.1661917015     4.6124553567    14.0183791162
Ni      7.1661864210     0.3563029066    14.0178601745
Ni      8.3948849266     2.4843550995    14.0174492137
Ni      9.6235247977     4.6124290550    14.0176456028
Ni      0.9439940770    -0.3923237869    15.9342931294
Ni      2.2343782646     1.7815381996    16.0209012045
Ni      3.4931614762     3.8649740084    15.9345525332
Ni      3.5034685533    -0.3817702747    15.9442758071
Ni      4.6290975409     1.7231285581    15.9329373443
Ni      5.9414504401     3.9220202462    16.1921995210
Ni      5.9231350493    -0.3267984328    16.0071237232
Ni      7.1979787809     1.7307952532    15.9310989385
Ni      8.3478341112     3.8668088338    15.9255552239
O       7.0429423698     2.9972524525    20.6195589552
O       5.9237268985     3.7247703296    18.1841560500
O       6.8645637877     5.1238932106    22.6774553675
C       6.5453747682     4.3364662522    20.4397762547
C       6.6357942531     4.7159872812    18.9696894569
C       7.2349990943     5.3702505067    21.3185655878
H       5.4866278323     4.2807766835    20.7403781572
H       7.6845020078     4.7745571731    18.6238047745
H       6.1491601629     5.6726469704    18.7429491985
H       6.9232074406     6.3814560679    20.9930659670
H       8.3323956236     5.3043221387    21.1746278597
H       8.0166934886     3.0359821298    20.6442143911
H       6.3089868942     2.8458964756    18.3894604596
H       7.4540209230     5.6313797579    23.2571099970
50
Step 7 | ATOMIC_POSITIONS (angstrom) | Cartesian Angstrom
Ni      0.0000000000     0.0000000000    10.0000000187
Ni      1.2286496544     2.1280836261    10.0000000187
Ni      2.4572993456     4.2561673160    10.0000000187
Ni      2.4572993088     0.0000000000    10.0000000187
Ni      3.6859489631     2.1280836261    10.0000000187
Ni      4.9145986544     4.2561673160    10.0000000187
Ni      4.9145986912     0.0000000000    10.0000000187
Ni      6.1432483456     2.1280836261    10.0000000187
Ni      7.3718980369     4.2561673160    10.0000000187
Ni      1.6381995392     1.4187224174    12.0063764263
Ni      2.8668492304     3.5468061073    12.0063764263
Ni      4.0954988848     5.6748897334    12.0063764263
Ni      4.0954988479     1.4187224174    12.0063764263
Ni      5.3241485392     3.5468061073    12.0063764263
Ni      6.5527981936     5.6748897334    12.0063764263
Ni      6.5527982304     1.4187224174    12.0063764263
Ni      7.7814479217     3.5468061073    12.0063764263
Ni      9.0100975760     5.6748897334    12.0063764263
Ni      2.2516038664     0.3562485209    14.0176456028
Ni      3.4802476365     2.4843745586    14.0183791162
Ni      4.7089381109     4.6123818264    14.0169952596
Ni      4.7088899085     0.3562448836    14.0174492137
Ni      5.9375765867     2.4843175622    14.0172270338
Ni      7.1661917015     4.6124553567    14.0183791162
Ni      7.1661864210     0.3563029066    14.0178601745
Ni      8.3948849266     2.4843550995    14.0174492137
Ni      9.6235247977     4.6124290550    14.0176456028
Ni      0.9437212405    -0.3906635254    15.9346448970
Ni      2.2351629187     1.7856558743    16.0202491925
Ni      3.4929289652     3.8646328416    15.9334377905
Ni      3.5040202293    -0.3812676598    15.9446934422
Ni      4.6257596199     1.7214684575    15.9344302576
Ni      5.9394346658     3.9228524773    16.1960815713
Ni      5.9218004359    -0.3236936513    16.0080166618
Ni      7.1985897975     1.7311325254    15.9322198054
Ni      8.3458663423     3.8678915589    15.9256859100
O       7.0581492269     3.0079422514    20.6223778195
O       5.9237745861     3.7313298134    18.1883238033
O       6.8840000154     5.1411037684    22.6723526729
C       6.5590043613     4.3461759458    20.4402402108
C       6.6421402399     4.7220590788    18.9693244022
C       7.2506276440     5.3831162782    21.3130721226
H       5.5009050603     4.2901530943    20.7425882602
H       7.6885605442     4.7759537876    18.6171635137
H       6.1566013739     5.6796973741    18.7436992642
H       6.9378658046     6.3925911516    20.9848851224
H       8.3475616728     5.3184557291    21.1676492277
H       8.0318657087     3.0457854959    20.6439615245
H       6.3070702067     2.8512978127    18.3931481566
H       7.4748832920     5.6491522241    23.2498759378
50
Step 8 | ATOMIC_POSITIONS (angstrom) | Cartesian Angstrom
Ni      0.0000000000     0.0000000000    10.0000000187
Ni      1.2286496544     2.1280836261    10.0000000187
Ni      2.4572993456     4.2561673160    10.0000000187
Ni      2.4572993088     0.0000000000    10.0000000187
Ni      3.6859489631     2.1280836261    10.0000000187
Ni      4.9145986544     4.2561673160    10.0000000187
Ni      4.9145986912     0.0000000000    10.0000000187
Ni      6.1432483456     2.1280836261    10.0000000187
Ni      7.3718980369     4.2561673160    10.0000000187
Ni      1.6381995392     1.4187224174    12.0063764263
Ni      2.8668492304     3.5468061073    12.0063764263
Ni      4.0954988848     5.6748897334    12.0063764263
Ni      4.0954988479     1.4187224174    12.0063764263
Ni      5.3241485392     3.5468061073    12.0063764263
Ni      6.5527981936     5.6748897334    12.0063764263
Ni      6.5527982304     1.4187224174    12.0063764263
Ni      7.7814479217     3.5468061073    12.0063764263
Ni      9.0100975760     5.6748897334    12.0063764263
Ni      2.2516038664     0.3562485209    14.0176456028
Ni      3.4802476365     2.4843745586    14.0183791162
Ni      4.7089381109     4.6123818264    14.0169952596
Ni      4.7088899085     0.3562448836    14.0174492137
Ni      5.9375765867     2.4843175622    14.0172270338
Ni      7.1661917015     4.6124553567    14.0183791162
Ni      7.1661864210     0.3563029066    14.0178601745
Ni      8.3948849266     2.4843550995    14.0174492137
Ni      9.6235247977     4.6124290550    14.0176456028
Ni      0.9441135963    -0.3898214453    15.9345450889
Ni      2.2349335997     1.7862568489    16.0194905281
Ni      3.4925538258     3.8641243768    15.9333541556
Ni      3.5054394585    -0.3813986439    15.9449243747
Ni      4.6233272062     1.7209305630    15.9347127751
Ni      5.9379641580     3.9226038160    16.1976361904
Ni      5.9214386504    -0.3221981787    16.0088702993
Ni      7.1987392042     1.7313065419    15.9329079137
Ni      8.3451860281     3.8668593724    15.9257384662
O       7.0715892457     3.0181528957    20.6242777251
O       5.9257046320     3.7353813905    18.1912673799
O       6.9057181645     5.1583420013    22.6662484282
C       6.5716825343     4.3558115182    20.4392636603
C       6.6482936227     4.7272525726    18.9668199706
C       7.2665501780     5.3958965258    21.3053472764
H       5.5143387280     4.2999316046    20.7452021738
H       7.6928169049     4.7784625546    18.6095787648
H       6.1623063447     5.6848474683    18.7405311031
H       6.9522650846     6.4035032422    20.9744814619
H       8.3630496813     5.3318366125    21.1564485562
H       8.0453809393     3.0549808270    20.6441108583
H       6.3082854212     2.8549724687    18.3966156830
H       7.4978564737     5.6682472254    23.2409448188
50
Step 9 | ATOMIC_POSITIONS (angstrom) | Cartesian Angstrom
Ni      0.0000000000     0.0000000000    10.0000000187
Ni      1.2286496544     2.1280836261    10.0000000187
Ni      2.4572993456     4.2561673160    10.0000000187
Ni      2.4572993088     0.0000000000    10.0000000187
Ni      3.6859489631     2.1280836261    10.0000000187
Ni      4.9145986544     4.2561673160    10.0000000187
Ni      4.9145986912     0.0000000000    10.0000000187
Ni      6.1432483456     2.1280836261    10.0000000187
Ni      7.3718980369     4.2561673160    10.0000000187
Ni      1.6381995392     1.4187224174    12.0063764263
Ni      2.8668492304     3.5468061073    12.0063764263
Ni      4.0954988848     5.6748897334    12.0063764263
Ni      4.0954988479     1.4187224174    12.0063764263
Ni      5.3241485392     3.5468061073    12.0063764263
Ni      6.5527981936     5.6748897334    12.0063764263
Ni      6.5527982304     1.4187224174    12.0063764263
Ni      7.7814479217     3.5468061073    12.0063764263
Ni      9.0100975760     5.6748897334    12.0063764263
Ni      2.2516038664     0.3562485209    14.0176456028
Ni      3.4802476365     2.4843745586    14.0183791162
Ni      4.7089381109     4.6123818264    14.0169952596
Ni      4.7088899085     0.3562448836    14.0174492137
Ni      5.9375765867     2.4843175622    14.0172270338
Ni      7.1661917015     4.6124553567    14.0183791162
Ni      7.1661864210     0.3563029066    14.0178601745
Ni      8.3948849266     2.4843550995    14.0174492137
Ni      9.6235247977     4.6124290550    14.0176456028
Ni      0.9450028844    -0.3886592296    15.9343111504
Ni      2.2342827751     1.7859462129    16.0184813313
Ni      3.4923187817     3.8635998771    15.9332830194
Ni      3.5070483803    -0.3814978003    15.9450527651
Ni      4.6209359604     1.7207196691    15.9348653208
Ni      5.9365517036     3.9219063279    16.1988763978
Ni      5.9213342746    -0.3210837799    16.0097708037
Ni      7.1985937412     1.7316435967    15.9336472365
Ni      8.3451322048     3.8654442357    15.9257647865
O       7.0900452097     3.0332364843    20.6254955417
O       5.9288370125     3.7407253566    18.1945949156
O       6.9388591340     5.1825344192    22.6565288564
C       6.5893702511     4.3701248417    20.4365658591
C       6.6567588637     4.7348557161    18.9620066664
C       7.2899290493     5.4143090220    21.2926209167
H       5.5335046924     4.3152372395    20.7485569069
H       7.6989430414     4.7829289135    18.5980050737
H       6.1696874147     5.6918314619    18.7341927861
H       6.9730107579     6.4196344454    20.9588154812
H       8.3855381575     5.3507629157    21.1373206410
H       8.0638068209     3.0686430563    20.6437333653
H       6.3116061187     2.8603472735    18.4008435244
H       7.5324942742     5.6960247449    23.2262488324
50
Step 10 | ATOMIC_POSITIONS (angstrom) | Cartesian Angstrom
Ni      0.0000000000     0.0000000000    10.0000000187
Ni      1.2286496544     2.1280836261    10.0000000187
Ni      2.4572993456     4.2561673160    10.0000000187
Ni      2.4572993088     0.0000000000    10.0000000187
Ni      3.6859489631     2.1280836261    10.0000000187
Ni      4.9145986544     4.2561673160    10.0000000187
Ni      4.9145986912     0.0000000000    10.0000000187
Ni      6.1432483456     2.1280836261    10.0000000187
Ni      7.3718980369     4.2561673160    10.0000000187
Ni      1.6381995392     1.4187224174    12.0063764263
Ni      2.8668492304     3.5468061073    12.0063764263
Ni      4.0954988848     5.6748897334    12.0063764263
Ni      4.0954988479     1.4187224174    12.0063764263
Ni      5.3241485392     3.5468061073    12.0063764263
Ni      6.5527981936     5.6748897334    12.0063764263
Ni      6.5527982304     1.4187224174    12.0063764263
Ni      7.7814479217     3.5468061073    12.0063764263
Ni      9.0100975760     5.6748897334    12.0063764263
Ni      2.2516038664     0.3562485209    14.0176456028
Ni      3.4802476365     2.4843745586    14.0183791162
Ni      4.7089381109     4.6123818264    14.0169952596
Ni      4.7088899085     0.3562448836    14.0174492137
Ni      5.9375765867     2.4843175622    14.0172270338
Ni      7.1661917015     4.6124553567    14.0183791162
Ni      7.1661864210     0.3563029066    14.0178601745
Ni      8.3948849266     2.4843550995    14.0174492137
Ni      9.6235247977     4.6124290550    14.0176456028
Ni      0.9467353781    -0.3869646524    15.9339245606
Ni      2.2331444151     1.7846598778    16.0171683600
Ni      3.4918902281     3.8629859764    15.9331405219
Ni      3.5083534481    -0.3816154107    15.9448776782
Ni      4.6185425420     1.7208142400    15.9348915870
Ni      5.9350216012     3.9203265788    16.1998617215
Ni      5.9214218126    -0.3205083722    16.0106245516
Ni      7.1978009281     1.7321505913    15.9344305135
Ni      8.3457468007     3.8638833484    15.9257635680
O       7.1145558999     3.0552478588    20.6253334501
O       5.9324630118     3.7479626657    18.1982346360
O       6.9885593277     5.2163950847    22.6407262865
C       6.6133302248     4.3911828282    20.4310061522
C       6.6673736698     4.7458718944    18.9535634845
C       7.3232671528     5.4407800670    21.2718959218
H       5.5599543689     4.3387813954    20.7527139728
H       7.7062792333     4.7899913203    18.5804545802
H       6.1784876833     5.7016416907    18.7231089432
H       7.0018133825     6.4431236693    20.9349861598
H       8.4173805549     5.3777872973    21.1054352536
H       8.0884394611     3.0888376514    20.6400417950
H       6.3160320701     2.8681860974    18.4064381228
H       7.5859500949     5.7346831630    23.2023842862
50
Step 11 | ATOMIC_POSITIONS (angstrom) | Cartesian Angstrom
Ni      0.0000000000     0.0000000000    10.0000000187
Ni      1.2286496544     2.1280836261    10.0000000187
Ni      2.4572993456     4.2561673160    10.0000000187
Ni      2.4572993088     0.0000000000    10.0000000187
Ni      3.6859489631     2.1280836261    10.0000000187
Ni      4.9145986544     4.2561673160    10.0000000187
Ni      4.9145986912     0.0000000000    10.0000000187
Ni      6.1432483456     2.1280836261    10.0000000187
Ni      7.3718980369     4.2561673160    10.0000000187
Ni      1.6381995392     1.4187224174    12.0063764263
Ni      2.8668492304     3.5468061073    12.0063764263
Ni      4.0954988848     5.6748897334    12.0063764263
Ni      4.0954988479     1.4187224174    12.0063764263
Ni      5.3241485392     3.5468061073    12.0063764263
Ni      6.5527981936     5.6748897334    12.0063764263
Ni      6.5527982304     1.4187224174    12.0063764263
Ni      7.7814479217     3.5468061073    12.0063764263
Ni      9.0100975760     5.6748897334    12.0063764263
Ni      2.2516038664     0.3562485209    14.0176456028
Ni      3.4802476365     2.4843745586    14.0183791162
Ni      4.7089381109     4.6123818264    14.0169952596
Ni      4.7088899085     0.3562448836    14.0174492137
Ni      5.9375765867     2.4843175622    14.0172270338
Ni      7.1661917015     4.6124553567    14.0183791162
Ni      7.1661864210     0.3563029066    14.0178601745
Ni      8.3948849266     2.4843550995    14.0174492137
Ni      9.6235247977     4.6124290550    14.0176456028
Ni      0.9488502854    -0.3846933858    15.9334476585
Ni      2.2318755139     1.7833971707    16.0155726043
Ni      3.4919750528     3.8625957586    15.9327921237
Ni      3.5093356777    -0.3812982556    15.9442228062
Ni      4.6163707101     1.7214110888    15.9354162565
Ni      5.9339277727     3.9187451997    16.2012514707