50
Step 1 | ATOMIC_POSITIONS (angstrom) | Cartesian Angstrom
Ni      0.0000000000     0.0000000000    10.0000000190
Ni      1.2286496540     2.1280836260    10.0000000190
Ni      2.4572993460     4.2561673160    10.0000000190
Ni      2.4572993090     0.0000000000    10.0000000190
Ni      3.6859489630     2.1280836260    10.0000000190
Ni      4.9145986540     4.2561673160    10.0000000190
Ni      4.9145986910     0.0000000000    10.0000000190
Ni      6.1432483460     2.1280836260    10.0000000190
Ni      7.3718980370     4.2561673160    10.0000000190
Ni      1.6381995390     1.4187224170    12.0063764260
Ni      2.8668492300     3.5468061070    12.0063764260
Ni      4.0954988850     5.6748897330    12.0063764260
Ni      4.0954988480     1.4187224170    12.0063764260
Ni      5.3241485390     3.5468061070    12.0063764260
Ni      6.5527981940     5.6748897330    12.0063764260
Ni      6.5527982300     1.4187224170    12.0063764260
Ni      7.7814479220     3.5468061070    12.0063764260
Ni      9.0100975760     5.6748897330    12.0063764260
Ni      2.2526607090     0.3544164850    14.0514648330
Ni      3.4812894600     2.4825637640    14.0526087570
Ni      4.7099590720     4.6106134710    14.0523267490
Ni      4.7099891290     0.3544111210    14.0515386850
Ni      5.9386213600     2.4825079610    14.0522053980
Ni      7.1672389840     4.6106477140    14.0526087570
Ni      7.1672161130     0.3545194280    14.0534552210
Ni      8.3959234010     2.4824862650    14.0515386850
Ni      9.6245829660     4.6105977840    14.0514648330
Ni      0.4121430325    -0.7141897863    16.0545397399
Ni      1.6421808656     1.4103175329    16.0607944065
Ni      2.8652881197     3.5407992188    16.0552042510
Ni      2.8733452270    -0.7093872381    16.0528059833
Ni      4.0990998880     1.4038531072    16.0554474698
Ni      5.3305538499     3.5468821442    16.0538190307
Ni      5.3290951797    -0.7170940374    16.0602300192
Ni      6.5589412140     1.4076770340    16.0539814480
Ni      7.7933881631     3.5360658133    16.0536734017
O       5.9209299959     2.2557411467    20.3422115381
O       5.4270117192     3.6088970867    17.9912130141
O       5.4333638378     3.6022456395    22.7896264823
C       5.4430479476     3.6042923300    20.3773877505
C       5.9100779713     4.3278452608    19.1211679804
C       5.9154926402     4.2997682682    21.6401529462
H       4.3279833971     3.5208581545    20.3741220354
H       7.0145217686     4.3392661817    19.0670100507
H       5.5381137308     5.3446657188    19.0644045203
H       5.5715957336     5.3392568361    21.6725737122
H       7.0247808190     4.2874001470    21.6727104321
H       6.9014102425     2.3140002019    20.3507047049
H       5.7778867315     2.6870637389    18.0366652177
H       5.7776682774     4.0789443011    23.5620423188
50
Step 2 | ATOMIC_POSITIONS (angstrom) | Cartesian Angstrom
Ni      0.0000000000     0.0000000000    10.0000000190
Ni      1.2286496540     2.1280836260    10.0000000190
Ni      2.4572993460     4.2561673160    10.0000000190
Ni      2.4572993090     0.0000000000    10.0000000190
Ni      3.6859489630     2.1280836260    10.0000000190
Ni      4.9145986540     4.2561673160    10.0000000190
Ni      4.9145986910     0.0000000000    10.0000000190
Ni      6.1432483460     2.1280836260    10.0000000190
Ni      7.3718980370     4.2561673160    10.0000000190
Ni      1.6381995390     1.4187224170    12.0063764260
Ni      2.8668492300     3.5468061070    12.0063764260
Ni      4.0954988850     5.6748897330    12.0063764260
Ni      4.0954988480     1.4187224170    12.0063764260
Ni      5.3241485390     3.5468061070    12.0063764260
Ni      6.5527981940     5.6748897330    12.0063764260
Ni      6.5527982300     1.4187224170    12.0063764260
Ni      7.7814479220     3.5468061070    12.0063764260
Ni      9.0100975760     5.6748897330    12.0063764260
Ni      2.2526607090     0.3544164850    14.0514648330
Ni      3.4812894600     2.4825637640    14.0526087570
Ni      4.7099590720     4.6106134710    14.0523267490
Ni      4.7099891290     0.3544111210    14.0515386850
Ni      5.9386213600     2.4825079610    14.0522053980
Ni      7.1672389840     4.6106477140    14.0526087570
Ni      7.1672161130     0.3545194280    14.0534552210
Ni      8.3959234010     2.4824862650    14.0515386850
Ni      9.6245829660     4.6105977840    14.0514648330
Ni      0.4062148550    -0.7050884508    16.0400721434
Ni      1.6407057298     1.4105212928    16.0644681016
Ni      2.8529597469     3.5426232769    16.0444095035
Ni      2.8791165473    -0.6937774300    16.0368537097
Ni      4.0956327779     1.3911461057    16.0454128833
Ni      5.3353206903     3.5661889168    16.0444576461
Ni      5.3293525047    -0.7156762500    16.0626281310
Ni      6.5632315666     1.3991283767    16.0380563148
Ni      7.8082858421     3.5320634515    16.0399996697
O       5.9239921048     2.2379920995    20.3311119396
O       5.3984345323     3.5837611896    18.0279581191
O       5.4212082300     3.5938952404    22.7967280096
C       5.4526461269     3.6015308184    20.3904425331
C       5.9185712309     4.3377605867    19.1328669124
C       5.9172469420     4.3025460380    21.6548811634
H       4.3410222485     3.5224419241    20.3744497304
H       7.0224492165     4.3483804103    19.0741519909
H       5.5321106235     5.3586487191    19.0544391047
H       5.5712189114     5.3564622704    21.6609313251
H       7.0324100692     4.2951788894    21.6571365252
H       6.8957782859     2.3077549999    20.3536298522
H       5.7760302458     2.6692066308    18.0527674243
H       5.7737695511     4.0742879208    23.5641708285
50
Step 3 | ATOMIC_POSITIONS (angstrom) | Cartesian Angstrom
Ni      0.0000000000     0.0000000000    10.0000000190
Ni      1.2286496540     2.1280836260    10.0000000190
Ni      2.4572993460     4.2561673160    10.0000000190
Ni      2.4572993090     0.0000000000    10.0000000190
Ni      3.6859489630     2.1280836260    10.0000000190
Ni      4.9145986540     4.2561673160    10.0000000190
Ni      4.9145986910     0.0000000000    10.0000000190
Ni      6.1432483460     2.1280836260    10.0000000190
Ni      7.3718980370     4.2561673160    10.0000000190
Ni      1.6381995390     1.4187224170    12.0063764260
Ni      2.8668492300     3.5468061070    12.0063764260
Ni      4.0954988850     5.6748897330    12.0063764260
Ni      4.0954988480     1.4187224170    12.0063764260
Ni      5.3241485390     3.5468061070    12.0063764260
Ni      6.5527981940     5.6748897330    12.0063764260
Ni      6.5527982300     1.4187224170    12.0063764260
Ni      7.7814479220     3.5468061070    12.0063764260
Ni      9.0100975760     5.6748897330    12.0063764260
Ni      2.2526607090     0.3544164850    14.0514648330
Ni      3.4812894600     2.4825637640    14.0526087570
Ni      4.7099590720     4.6106134710    14.0523267490
Ni      4.7099891290     0.3544111210    14.0515386850
Ni      5.9386213600     2.4825079610    14.0522053980
Ni      7.1672389840     4.6106477140    14.0526087570
Ni      7.1672161130     0.3545194280    14.0534552210
Ni      8.3959234010     2.4824862650    14.0515386850
Ni      9.6245829660     4.6105977840    14.0514648330
Ni      0.4016050521    -0.6991414377    16.0275368392
Ni      1.6395492329     1.4119423714    16.0695001763
Ni      2.8429737059     3.5438970178    16.0350965729
Ni      2.8841581527    -0.6801484622    16.0236256941
Ni      4.0936550818     1.3804033111    16.0365926232
Ni      5.3414279360     3.5849855699    16.0462314696
Ni      5.3296399979    -0.7133262197    16.0665448344
Ni      6.5655170229     1.3936079911    16.0238627758
Ni      7.8207653045     3.5273159271    16.0286746550
O       5.9204032720     2.2358703456    20.3233263803
O       5.3748615259     3.5610812527    18.0525332078
O       5.4169959065     3.5964407847    22.8005609410
C       5.4565957130     3.6005611174    20.4001681338
C       5.9198146175     4.3372307676    19.1427719295
C       5.9200538334     4.3031341554    21.6621176520
H       4.3561873127     3.5239551912    20.3758292767
H       7.0285560940     4.3582692886    19.0783690121
H       5.5287435639     5.3650834781    19.0460708423
H       5.5732825253     5.3617169224    21.6520033082
H       7.0340107557     4.3030006821    21.6484472107
H       6.8992560086     2.2978979765    20.3569638592
H       5.7723131758     2.6573937791    18.0719138935
H       5.7679985146     4.0670305314    23.5693629487
50
Step 4 | ATOMIC_POSITIONS (angstrom) | Cartesian Angstrom
Ni      0.0000000000     0.0000000000    10.0000000190
Ni      1.2286496540     2.1280836260    10.0000000190
Ni      2.4572993460     4.2561673160    10.0000000190
Ni      2.4572993090     0.0000000000    10.0000000190
Ni      3.6859489630     2.1280836260    10.0000000190
Ni      4.9145986540     4.2561673160    10.0000000190
Ni      4.9145986910     0.0000000000    10.0000000190
Ni      6.1432483460     2.1280836260    10.0000000190
Ni      7.3718980370     4.2561673160    10.0000000190
Ni      1.6381995390     1.4187224170    12.0063764260
Ni      2.8668492300     3.5468061070    12.0063764260
Ni      4.0954988850     5.6748897330    12.0063764260
Ni      4.0954988480     1.4187224170    12.0063764260
Ni      5.3241485390     3.5468061070    12.0063764260
Ni      6.5527981940     5.6748897330    12.0063764260
Ni      6.5527982300     1.4187224170    12.0063764260
Ni      7.7814479220     3.5468061070    12.0063764260
Ni      9.0100975760     5.6748897330    12.0063764260
Ni      2.2526607090     0.3544164850    14.0514648330
Ni      3.4812894600     2.4825637640    14.0526087570
Ni      4.7099590720     4.6106134710    14.0523267490
Ni      4.7099891290     0.3544111210    14.0515386850
Ni      5.9386213600     2.4825079610    14.0522053980
Ni      7.1672389840     4.6106477140    14.0526087570
Ni      7.1672161130     0.3545194280    14.0534552210
Ni      8.3959234010     2.4824862650    14.0515386850
Ni      9.6245829660     4.6105977840    14.0514648330
Ni      0.3981028854    -0.6965441695    16.0159877450
Ni      1.6388043215     1.4149881324    16.0765169158
Ni      2.8349375625     3.5448009612    16.0264179364
Ni      2.8886408047    -0.6674883706    16.0122744374
Ni      4.0931976216     1.3708809483    16.0281264796
Ni      5.3494976968     3.6054829106    16.0576895547
Ni      5.3301488357    -0.7096254994    16.0725112751
Ni      6.5657079076     1.3910003053    16.0102336730
Ni      7.8314880260     3.5211202325    16.0188888374
O       5.9275376391     2.2405035254    20.3189662346
O       5.3543351283     3.5421340450    18.0712444677
O       5.4151676331     3.6023741938    22.7984308400
C       5.4618848755     3.6030813857    20.4075556342
C       5.9178961055     4.3345324382    19.1479383634
C       5.9233573075     4.3042319710    21.6647585150
H       4.3675955634     3.5256494887    20.3789524991
H       7.0286101966     4.3681221647    19.0803634401
H       5.5274842903     5.3622218812    19.0386283727
H       5.5770265303     5.3595448766    21.6442813546
H       7.0333886496     4.3112542411    21.6446817020
H       6.8955833463     2.2837047897    20.3607565809
H       5.7669892437     2.6459897174    18.0958676179
H       5.7628883107     4.0607558189    23.5821589097
50
Step 5 | ATOMIC_POSITIONS (angstrom) | Cartesian Angstrom
Ni      0.0000000000     0.0000000000    10.0000000190
Ni      1.2286496540     2.1280836260    10.0000000190
Ni      2.4572993460     4.2561673160    10.0000000190
Ni      2.4572993090     0.0000000000    10.0000000190
Ni      3.6859489630     2.1280836260    10.0000000190
Ni      4.9145986540     4.2561673160    10.0000000190
Ni      4.9145986910     0.0000000000    10.0000000190
Ni      6.1432483460     2.1280836260    10.0000000190
Ni      7.3718980370     4.2561673160    10.0000000190
Ni      1.6381995390     1.4187224170    12.0063764260
Ni      2.8668492300     3.5468061070    12.0063764260
Ni      4.0954988850     5.6748897330    12.0063764260
Ni      4.0954988480     1.4187224170    12.0063764260
Ni      5.3241485390     3.5468061070    12.0063764260
Ni      6.5527981940     5.6748897330    12.0063764260
Ni      6.5527982300     1.4187224170    12.0063764260
Ni      7.7814479220     3.5468061070    12.0063764260
Ni      9.0100975760     5.6748897330    12.0063764260
Ni      2.2526607090     0.3544164850    14.0514648330
Ni      3.4812894600     2.4825637640    14.0526087570
Ni      4.7099590720     4.6106134710    14.0523267490
Ni      4.7099891290     0.3544111210    14.0515386850
Ni      5.9386213600     2.4825079610    14.0522053980
Ni      7.1672389840     4.6106477140    14.0526087570
Ni      7.1672161130     0.3545194280    14.0534552210
Ni      8.3959234010     2.4824862650    14.0515386850
Ni      9.6245829660     4.6105977840    14.0514648330
Ni      0.3962104841    -0.6989910132    16.0060171409
Ni      1.6388467205     1.4203278149    16.0860322750
Ni      2.8301304732     3.5453623638    16.0186892707
Ni      2.8920154321    -0.6565075419    16.0037558326
Ni      4.0949319140     1.3633860508    16.0202885840
Ni      5.3603946883     3.6283422140    16.0804608080
Ni      5.3311829969    -0.7040182234    16.0810676173
Ni      6.5629044709     1.3926393104    15.9978626348
Ni      7.8391249409     3.5128979004    16.0114645543
O       5.9274012947     2.2493707673    20.3180306460
O       5.3393250080     3.5250006297    18.0835600672
O       5.4175541349     3.6140515963    22.8001449908
C       5.4669467056     3.6073728960    20.4104377729
C       5.9152180211     4.3280117900    19.1478382384
C       5.9299181695     4.3059219661    21.6638815126
H       4.3761701231     3.5271520829    20.3847023802
H       7.0208626447     4.3771184293    19.0788377768
H       5.5261142057     5.3525314684    19.0318261488
H       5.5812624057     5.3535753312    21.6375519243
H       7.0322305852     4.3201660986    21.6466049608
H       6.9021415613     2.2666033700    20.3662930690
H       5.7580017864     2.6364120671    18.1257384400
H       5.7553458833     4.0514518105    23.5948326314
