50
Step 1 | ATOMIC_POSITIONS (angstrom) | Cartesian Angstrom
Ni      0.0000000000     0.0000000000    10.0000000187
Ni      1.2286496544     2.1280836261    10.0000000187
Ni      2.4572993456     4.2561673160    10.0000000187
Ni      2.4572993088     0.0000000000    10.0000000187
Ni      3.6859489631     2.1280836261    10.0000000187
Ni      4.9145986544     4.2561673160    10.0000000187
Ni      4.9145986912     0.0000000000    10.0000000187
Ni      6.1432483456     2.1280836261    10.0000000187
Ni      7.3718980369     4.2561673160    10.0000000187
Ni      1.6360504136     1.4224065639    12.0067657897
Ni      2.8645201009     3.5507647336    12.0053748930
Ni      4.0933294771     5.6786864478    12.0069522301
Ni      4.0934099794     1.4223324897    12.0070236938
Ni      5.3220537831     3.5504354093    12.0067272578
Ni      6.5508151615     5.6783733619    12.0067090277
Ni      6.5507276470     1.4221558731    12.0067297712
Ni      7.7793518086     3.5506121208    12.0068583863
Ni      9.0079968170     5.6784577141    12.0068053863
Ni      2.0500047945     0.7061485464    14.0125171566
Ni      3.2787167393     2.8325589669    14.0140404499
Ni      4.5069848781     4.9617671632    14.0122324728
Ni      4.5061693907     0.7073775360    14.0124939463
Ni      5.7354873115     2.8342227326    14.0119437727
Ni      6.9644223352     4.9621163806    14.0122661486
Ni      6.9641142612     0.7059753307    14.0122648277
Ni      8.1932795882     2.8337553960    14.0124540686
Ni      9.4218736855     4.9616416919    14.0119973592
Ni      0.0072043430    -0.0130087824    16.0451859621
Ni      1.2327209915     2.1155217960    16.0421055594
Ni      2.4630893148     4.2462060762    16.0415926927
Ni      2.4629653746    -0.0169000352    16.0418981782
Ni      3.6949272017     2.1220063907    16.0442185466
Ni      4.9236239335     4.2471661941    16.0406767092
Ni      4.9253158338    -0.0188929022    16.0397501734
Ni      6.1552586177     2.1144693985    16.0410721544
Ni      7.3793681887     4.2435888604    16.0451619994
O       4.3335435288     0.6669682484    20.4304985896
O       3.8401803116     2.0244574239    18.0650414941
O       3.8451286538     2.0140633034    22.8785814260
C       3.8550428458     2.0176523190    20.4667370773
C       4.3205610943     2.7354677691    19.2079690744
C       4.3274515126     2.7105127264    21.7281500498
H       2.7403642893     1.9326991630    20.4621431754
H       5.4262522756     2.7513102829    19.1559361568
H       3.9495805361     3.7566171839    19.1528965719
H       3.9833435645     3.7511862705    21.7606775411
H       5.4362249000     2.6993733945    21.7609756526
H       5.3125910612     0.7259468776    20.4392026004
H       4.1887781728     1.1017454129    18.1210975450
H       4.1894399250     2.4907077327    23.6503470100
50
Step 2 | ATOMIC_POSITIONS (angstrom) | Cartesian Angstrom
Ni      0.0000000000     0.0000000000    10.0000000187
Ni      1.2286496544     2.1280836261    10.0000000187
Ni      2.4572993456     4.2561673160    10.0000000187
Ni      2.4572993088     0.0000000000    10.0000000187
Ni      3.6859489631     2.1280836261    10.0000000187
Ni      4.9145986544     4.2561673160    10.0000000187
Ni      4.9145986912     0.0000000000    10.0000000187
Ni      6.1432483456     2.1280836261    10.0000000187
Ni      7.3718980369     4.2561673160    10.0000000187
Ni      1.6334602243     1.4268887606    12.0078401393
Ni      2.8618490667     3.5553543326    12.0053668123
Ni      4.0907171224     5.6833159267    12.0082185378
Ni      4.0908331781     1.4267871029    12.0082567842
Ni      5.3194670588     3.5548521689    12.0076689101
Ni      6.5483868297     5.6826255083    12.0076695591
Ni      6.5482000008     1.4263538682    12.0076943754
Ni      7.7767748193     3.5552014697    12.0080684833
Ni      9.0054208168     5.6828376687    12.0079031933
Ni      2.0533612531     0.7010864976    14.0161948534
Ni      3.2819597305     2.8257890915    14.0187183692
Ni      4.5098892586     4.9561123083    14.0150886359
Ni      4.5082454152     0.7037587954    14.0164606101
Ni      5.7383342649     2.8291437734    14.0149349978
Ni      6.9676980915     4.9567186860    14.0158268056
Ni      6.9669895350     0.7005696314    14.0158349891
Ni      8.1967027441     2.8281823929    14.0157440085
Ni      9.4252256349     4.9557966121    14.0144935771
Ni      0.0156405754    -0.0280716958    16.0731876585
Ni      1.2377393299     2.1007042949    16.0666891114
Ni      2.4699283744     4.2344034281    16.0656509645
Ni      2.4698396975    -0.0362722208    16.0660331067
Ni      3.7056216108     2.1147532034    16.0704208462
Ni      4.9343575021     4.2365038510    16.0637191261
Ni      4.9375363867    -0.0404422398    16.0615538835
Ni      6.1691130388     2.0985420790    16.0642942761
Ni      7.3880320479     4.2289430746    16.0731495008
O       4.3350964994     0.6578322394    20.4251616761
O       3.8289496359     2.0155599635    18.0749153076
O       3.8387922765     2.0096064682    22.8822888887
C       3.8590033504     2.0155253548    20.4725597885
C       4.3234322693     2.7394401519    19.2108817215
C       4.3287707031     2.7121129199    21.7359752904
H       2.7478665057     1.9336020366    20.4623408437
H       5.4294879424     2.7558243964    19.1600344765
H       3.9466987641     3.7623664606    19.1481786106
H       3.9833070045     3.7596233858    21.7546394616
H       5.4397556448     2.7035319379    21.7531611785
H       5.3098585972     0.7229396341    20.4409727569
H       4.1863913722     1.0959707180    18.1244227478
H       4.1876500979     2.4885980696    23.6518291801
50
Step 3 | ATOMIC_POSITIONS (angstrom) | Cartesian Angstrom
Ni      0.0000000000     0.0000000000    10.0000000187
Ni      1.2286496544     2.1280836261    10.0000000187
Ni      2.4572993456     4.2561673160    10.0000000187
Ni      2.4572993088     0.0000000000    10.0000000187
Ni      3.6859489631     2.1280836261    10.0000000187
Ni      4.9145986544     4.2561673160    10.0000000187
Ni      4.9145986912     0.0000000000    10.0000000187
Ni      6.1432483456     2.1280836261    10.0000000187
Ni      7.3718980369     4.2561673160    10.0000000187
Ni      1.6294064180     1.4340076933    12.0119351309
Ni      2.8577784295     3.5624281116    12.0084774646
Ni      4.0865597830     5.6907065783    12.0124393287
Ni      4.0866976204     1.4338856091    12.0124260833
Ni      5.3153071838     3.5618751849    12.0113914570
Ni      6.5445623959     5.6893533767    12.0115905421
Ni      6.5442084851     1.4329805831    12.0115855886
Ni      7.7726857306     3.5624792770    12.0123501820
Ni      9.0012820848     5.6898425340    12.0118858464
Ni      2.0597243617     0.6910332601    14.0276740556
Ni      3.2878747642     2.8134965608    14.0306806176
Ni      4.5154923307     4.9451619712    14.0247063660
Ni      4.5127742742     0.6959074683    14.0288292160
Ni      5.7440076961     2.8191099499    14.0253693041
Ni      6.9742071073     4.9460742465    14.0274280238
Ni      6.9727662556     0.6897910095    14.0274603201
Ni      8.2033046689     2.8174062579    14.0262680077
Ni      9.4316848301     4.9445014971    14.0233747725
Ni      0.0293116863    -0.0521209220    16.1142394568
Ni      1.2466382942     2.0766353630    16.1025074903
Ni      2.4812078278     4.2148853391    16.1006664179
Ni      2.4815603110    -0.0664493545    16.1008120118
Ni      3.7230692785     2.1023902877    16.1074261113
Ni      4.9518267273     4.2188673356    16.0972794068
Ni      4.9564940692    -0.0738310021    16.0927822520
Ni      6.1907836001     2.0729006581    16.0977041609
Ni      7.4019585473     4.2054002393    16.1142091719
O       4.3327319854     0.6498753188    20.4178095740
O       3.8122956693     2.0038527653    18.0949238939
O       3.8327517651     2.0080422530    22.8874005786
C       3.8669890983     2.0128057991    20.4792119657
C       4.3247605197     2.7432705356    19.2163477047
C       4.3291124478     2.7138103809    21.7435968071
H       2.7583245951     1.9345563670    20.4632507062
H       5.4340022344     2.7632831773    19.1649486202
H       3.9431283174     3.7682509551    19.1408058664
H       3.9845250851     3.7677490076    21.7460952250
H       5.4438495888     2.7102082261    21.7435552948
H       5.3106328742     0.7165710715    20.4438985947
H       4.1827020318     1.0856296214    18.1315819428
H       4.1834633540     2.4833842690    23.6549152865
50
Step 4 | ATOMIC_POSITIONS (angstrom) | Cartesian Angstrom
Ni      0.0000000000     0.0000000000    10.0000000187
Ni      1.2286496544     2.1280836261    10.0000000187
Ni      2.4572993456     4.2561673160    10.0000000187
Ni      2.4572993088     0.0000000000    10.0000000187
Ni      3.6859489631     2.1280836261    10.0000000187
Ni      4.9145986544     4.2561673160    10.0000000187
Ni      4.9145986912     0.0000000000    10.0000000187
Ni      6.1432483456     2.1280836261    10.0000000187
Ni      7.3718980369     4.2561673160    10.0000000187
Ni      1.6234678779     1.4445148473    12.0227607956
Ni      2.8518661752     3.5728789689    12.0182198797
Ni      4.0803790089     5.7017637812    12.0231431398
Ni      4.0806031841     1.4443479527    12.0233268745
Ni      5.3091196049     3.5722395337    12.0214995927
Ni      6.5389220001     5.6992794755    12.0223024315
Ni      6.5383137723     1.4427340229    12.0222213309
Ni      7.7665694814     3.5732553815    12.0233509824
Ni      8.9950488904     5.7004099905    12.0222521024
Ni      2.0703577200     0.6736213585    14.0498469046
Ni      3.2977100421     2.7931787169    14.0526844913
Ni      4.5251247737     4.9264215325    14.0437536691
Ni      4.5209679697     0.6818196413    14.0526629291
Ni      5.7537820459     2.8018357619    14.0460254444
Ni      6.9853686548     4.9279087309    14.0501690208
Ni      6.9826972158     0.6712540934    14.0501752055
Ni      8.2144527752     2.7989427690    14.0469026364
Ni      9.4426818795     4.9252823861    14.0410734090
Ni      0.0511705929    -0.0899830561    16.1742586625
Ni      1.2623139855     2.0383393671    16.1545128042
Ni      2.4996516640     4.1830292147    16.1513377169
Ni      2.5012387439    -0.1123035791    16.1510077770
Ni      3.7507509247     2.0813880924    16.1595769778
Ni      4.9794320777     4.1899996900    16.1459561580
Ni      4.9851782188    -0.1241254121    16.1380322526
Ni      6.2235799980     2.0324338544    16.1459529999
Ni      7.4240259137     4.1680865794    16.1742562964
O       4.3362600007     0.6420051806    20.4083288985
O       3.7879782046     1.9847402102    18.1269805152
O       3.8248576206     2.0074746018    22.8899024628
C       3.8774554476     2.0115622656    20.4887341832
C       4.3268057148     2.7486521813    19.2257501101
C       4.3308419187     2.7160706871    21.7514031546
H       2.7723677875     1.9358244305    20.4653674898
H       5.4383593930     2.7747931184    19.1707255282
H       3.9385765602     3.7731679907    19.1303266423
H       3.9871151932     3.7755554330    21.7339521820
H       5.4480184281     2.7204410172    21.7321935445
H       5.3072680740     0.7041337909    20.4484140175
H       4.1761719110     1.0706119070    18.1455993247
H       4.1779524224     2.4766612098    23.6644916068
50
Step 5 | ATOMIC_POSITIONS (angstrom) | Cartesian Angstrom
Ni      0.0000000000     0.0000000000    10.0000000187
Ni      1.2286496544     2.1280836261    10.0000000187
Ni      2.4572993456     4.2561673160    10.0000000187
Ni      2.4572993088     0.0000000000    10.0000000187
Ni      3.6859489631     2.1280836261    10.0000000187
Ni      4.9145986544     4.2561673160    10.0000000187
Ni      4.9145986912     0.0000000000    10.0000000187
Ni      6.1432483456     2.1280836261    10.0000000187
Ni      7.3718980369     4.2561673160    10.0000000187
Ni      1.6148460238     1.4598500089    12.0455892983
Ni      2.8432763098     3.5883224289    12.0396871658
Ni      4.0713400481     5.7179899051    12.0454927712
Ni      4.0717417852     1.4595805432    12.0463045675
Ni      5.3000877640     3.5873589201    12.0431121232
Ni      6.5306519210     5.7136822628    12.0452877138
Ni      6.5297881314     1.4569661863    12.0450389096
Ni      7.7575795378     3.5889483205    12.0464199766
Ni      8.9858315742     5.7160508753    12.0441349728
Ni      2.0873891208     0.6445223566    14.0888902064
Ni      3.3136079416     2.7606717121    14.0904749060
Ni      4.5411505113     4.8956261030    14.0779341397
Ni      4.5351603171     0.6575356363    14.0945629181
Ni      5.7700339963     2.7732614568    14.0829596169
Ni      7.0036985389     4.8981411606    14.0906943635
Ni      6.9990841408     0.6406744258    14.0905066873
Ni      8.2324573471     2.7684826275    14.0837792600
Ni      9.4606533551     4.8938433555    14.0729337116
Ni      0.0860990342    -0.1494316497    16.2617320832
Ni      1.2898643076     1.9777629965    16.2296897703
Ni      2.5299034125     4.1310458632    16.2241687471
Ni      2.5341359906    -0.1813846702    16.2232417047
Ni      3.7941525597     2.0456901863    16.2318945257
Ni      5.0226266605     4.1426911506    16.2162413915
Ni      5.0281660206    -0.1989295361    16.2037725901
Ni      6.2724684611     1.9689774635    16.2156346990
Ni      7.4589396480     4.1090614926    16.2618198220
O       4.3334336416     0.6363721557    20.3966416679
O       3.7535764126     1.9553101407    18.1766429809
O       3.8183661704     2.0136832123    22.8973124503
C       3.8899977510     2.0107192196    20.5008210851
C       4.3301975906     2.7525287470    19.2399005070
C       4.3365672289     2.7195636522    21.7594000179
H       2.7923234931     1.9372399707    20.4699214671
H       5.4413539827     2.7920212759    19.1765968827
H       3.9318069493     3.7772772798    19.1158474150
H       3.9913949432     3.7825655210    21.7170006206
H       5.4522020600     2.7358333489    21.7201512334
H       5.3125473083     0.6832714073    20.4559880159
H       4.1650840654     1.0487237479    18.1723956432
H       4.1668302689     2.4628962039    23.6759899167
50
Step 6 | ATOMIC_POSITIONS (angstrom) | Cartesian Angstrom
Ni      0.0000000000     0.0000000000    10.0000000187
Ni      1.2286496544     2.1280836261    10.0000000187
Ni      2.4572993456     4.2561673160    10.0000000187
Ni      2.4572993088     0.0000000000    10.0000000187
Ni      3.6859489631     2.1280836261    10.0000000187
Ni      4.9145986544     4.2561673160    10.0000000187
Ni      4.9145986912     0.0000000000    10.0000000187
Ni      6.1432483456     2.1280836261    10.0000000187
Ni      7.3718980369     4.2561673160    10.0000000187
Ni      1.6031206359     1.4811760817    12.0886417183
Ni      2.8313533798     3.6100935084    12.0809401980
Ni      4.0587748625     5.7404959729    12.0876531418
Ni      4.0594870481     1.4807328131    12.0897270213
Ni      5.2875171306     3.6081805055    12.0843079528
Ni      6.5190882021     5.7337044217    12.0892251074
Ni      6.5179670171     1.4768267068    12.0886249054
Ni      7.7450642146     3.6106133637    12.0899932310
Ni      8.9727855397     5.7382511160    12.0857512809
Ni      2.1134142589     0.5976785021    14.1543908581
Ni      3.3383263211     2.7111814167    14.1524621881
Ni      4.5667408916     4.8473040982    14.1366414340
Ni      4.5589699544     0.6169155796    14.1646402028
Ni      5.7959367621     2.7278171278    14.1458744744
Ni      7.0325233592     4.8515857669    14.1595941578
Ni      7.0248281713     0.5923255785    14.1587787286
Ni      8.2600317817     2.7204095747    14.1469359708
Ni      9.4885676176     4.8449018893    14.1277301669
Ni      0.1408807041    -0.2407837966    16.3836083287
Ni      1.3381251830     1.8843292867    16.3331214960
Ni      2.5790052174     4.0474899066    16.3233692854
Ni      2.5884970258    -0.2812247685    16.3222665731
Ni      3.8597965127     1.9848585510    16.3248358652
Ni      5.0880431366     4.0660679577    16.3127976809
Ni      5.0898747877    -0.3048593015    16.2952855758
Ni      6.3416409897     1.8722147331    16.3119163875
Ni      7.5132121619     4.0175965368    16.3839556589
O       4.3489241448     0.6350163465    20.3872576687
O       3.7093516021     1.9143664135    18.2467779972
O       3.8095201118     2.0219246508    22.8910999278
C       3.9073808632     2.0136200977    20.5183828087
C       4.3285583271     2.7561578576    19.2592719863
C       4.3444379297     2.7250494714    21.7687257849
H       2.8139628671     1.9395745466    20.4792930300
H       5.4422304294     2.8149527373    19.1795861349
H       3.9232776583     3.7737965423    19.0982514649
H       3.9983205779     3.7854383840    21.6950749374
H       5.4590701951     2.7574985397    21.7119766098
H       5.3068693027     0.6481766841    20.4669733939
H       4.1471265573     1.0157601873    18.2225631429
H       4.1558669787     2.4499192214    23.7065261754
50
Step 7 | ATOMIC_POSITIONS (angstrom) | Cartesian Angstrom
Ni      0.0000000000     0.0000000000    10.0000000187
Ni      1.2286496544     2.1280836261    10.0000000187
Ni      2.4572993456     4.2561673160    10.0000000187
Ni      2.4572993088     0.0000000000    10.0000000187
Ni      3.6859489631     2.1280836261    10.0000000187
Ni      4.9145986544     4.2561673160    10.0000000187
Ni      4.9145986912     0.0000000000    10.0000000187
Ni      6.1432483456     2.1280836261    10.0000000187
Ni      7.3718980369     4.2561673160    10.0000000187
Ni      1.5980491444     1.4909853259    12.1194632923
Ni      2.8258502775     3.6202703727    12.1107167013
Ni      4.0530773283     5.7506500171    12.1180778736
Ni      4.0539179380     1.4904289952    12.1209215759
Ni      5.2818169343     3.6175217982    12.1140725910
Ni      6.5135883427     5.7429338709    12.1212121657
Ni      6.5126614689     1.4861557573    12.1202862371
Ni      7.7393580190     3.6203203470    12.1214905410
Ni      8.9665687643     5.7488145514    12.1160650405
Ni      2.1277942654     0.5691821350    14.1970686462
Ni      3.3524630120     2.6841925783    14.1913505959
Ni      4.5821354812     4.8194661322    14.1764553477
Ni      4.5743955703     0.5905045414    14.2099267261
Ni      5.8114214628     2.7007312048    14.1878852477
Ni      7.0492690148     4.8246180934    14.2054851653
Ni      7.0398591164     0.5638599660    14.2038532943
Ni      8.2751134486     2.6922599281    14.1896633445
Ni      9.5042552574     4.8171146423    14.1649234848
Ni      0.1739894735    -0.2939731075    16.4411265015
Ni      1.3724141199     1.8298608623    16.3803874782
Ni      2.6103312476     3.9953130076    16.3672482019
Ni      2.6241249674    -0.3323331676    16.3672828740
Ni      3.8962015818     1.9420129538    16.3593824571
Ni      5.1249412092     4.0173144528    16.3566715478
Ni      5.1210819908    -0.3565281975    16.3388097941
Ni      6.3752741433     1.8171885399    16.3568067949
Ni      7.5456586480     3.9636013829    16.4417743888
O       4.3417707099     0.6415122005    20.3890176714
O       3.6947177642     1.8926764345    18.2767087721
O       3.8152123850     2.0375365510    22.9050129746
C       3.9112497507     2.0156546492    20.5258251380
C       4.3289737052     2.7515657749    19.2674744305
C       4.3549238200     2.7291014603    21.7686629565
H       2.8221717043     1.9400452457    20.4882047048
H       5.4345595359     2.8235327026    19.1751191836
H       3.9172750722     3.7665590760    19.0931720813
H       4.0012743368     3.7827864532    21.6871451949
H       5.4617602453     2.7679172831    21.7183712165
H       5.3230260835     0.6278576306    20.4756905388
H       4.1341907396     1.0004373870    18.2615696464
H       4.1438175584     2.4357444556    23.7084276278
50
Step 8 | ATOMIC_POSITIONS (angstrom) | Cartesian Angstrom
Ni      0.0000000000     0.0000000000    10.0000000187
Ni      1.2286496544     2.1280836261    10.0000000187
Ni      2.4572993456     4.2561673160    10.0000000187
Ni      2.4572993088     0.0000000000    10.0000000187
Ni      3.6859489631     2.1280836261    10.0000000187
Ni      4.9145986544     4.2561673160    10.0000000187
Ni      4.9145986912     0.0000000000    10.0000000187
Ni      6.1432483456     2.1280836261    10.0000000187
Ni      7.3718980369     4.2561673160    10.0000000187
Ni      1.5943271300     1.4991579079    12.1636409014
Ni      2.8212107538     3.6290473598    12.1532779924
Ni      4.0484522963     5.7587623229    12.1620274854
Ni      4.0494805309     1.4983982103    12.1657031624
Ni      5.2772741931     3.6248974410    12.1569597071
Ni      6.5087003212     5.7505874404    12.1676134575
Ni      6.5085233851     1.4942503777    12.1661136924
Ni      7.7346785886     3.6280140186    12.1670964019
Ni      8.9610523359     5.7581780728    12.1599737541
Ni      2.1441378888     0.5334016047    14.2549642031
Ni      3.3690325383     2.6542260760    14.2415683658
Ni      4.6012440385     4.7864656632    14.2326495080
Ni      4.5948491358     0.5551682663    14.2704913498
Ni      5.8304705178     2.6672529688    14.2461719553
Ni      7.0693787729     4.7919890228    14.2692563224
Ni      7.0581442680     0.5289390048    14.2659594166
Ni      8.2918098155     2.6582373313    14.2499305175
Ni      9.5222925920     4.7846550543    14.2174683257
Ni      0.2162619673    -0.3592289155    16.4917229161
Ni      1.4221344965     1.7630261428    16.4196732967
Ni      2.6521366779     3.9276730772    16.4006624305
Ni      2.6729893118    -0.3861021216    16.4045180118
Ni      3.9383952370     1.8779493948    16.3749744824
Ni      5.1689227579     3.9522698185    16.3926555056
Ni      5.1536778336    -0.4071124053    16.3783390490
Ni      6.4083171456     1.7516903845    16.3960196493
Ni      7.5869021844     3.8965291502    16.4930169301
O       4.3525981983     0.6515845066    20.4052851469
O       3.6904739318     1.8764510163    18.2964405055
O       3.8203455799     2.0502060669    22.8953517195
C       3.9139434351     2.0203477621    20.5350572202
C       4.3213271458     2.7408324501    19.2720399552
C       4.3657192257     2.7335574595    21.7719524010
H       2.8219384481     1.9408488796    20.5043200256
H       5.4202952570     2.8262652066    19.1610466239
H       3.9090050703     3.7484747003    19.0942340968
H       4.0040853562     3.7750805083    21.6839453675
H       5.4688349773     2.7774327540    21.7402878481
H       5.3292754870     0.6046097622    20.4861556905
H       4.1175440976     0.9797255680    18.3236010405
H       4.1405179356     2.4327160521    23.7295638962
50
Step 9 | ATOMIC_POSITIONS (angstrom) | Cartesian Angstrom
Ni      0.0000000000     0.0000000000    10.0000000187
Ni      1.2286496544     2.1280836261    10.0000000187
Ni      2.4572993456     4.2561673160    10.0000000187
Ni      2.4572993088     0.0000000000    10.0000000187
Ni      3.6859489631     2.1280836261    10.0000000187
Ni      4.9145986544     4.2561673160    10.0000000187
Ni      4.9145986912     0.0000000000    10.0000000187
Ni      6.1432483456     2.1280836261    10.0000000187
Ni      7.3718980369     4.2561673160    10.0000000187
Ni      1.5958193281     1.4986311905    12.2060170296
Ni      2.8213759915     3.6291096014    12.1931747357
Ni      4.0490675499     5.7573741970    12.2046557159
Ni      4.0503836353     1.4973630501    12.2084781512
Ni      5.2781354592     3.6233317899    12.1982887038
Ni      6.5083889556     5.7497772012    12.2128717008
Ni      6.5097219640     1.4942602151    12.2106816450
Ni      7.7352586060     3.6265870408    12.2116712077
Ni      8.9607414453     5.7586314866    12.2023960972
Ni      2.1543114111     0.5063260702    14.3062559851
Ni      3.3794667804     2.6372093143    14.2801891389
Ni      4.6153578129     4.7641521212    14.2863667851
Ni      4.6116348989     0.5251095390    14.3217462806
Ni      5.8443019190     2.6421085920    14.2998183126
Ni      7.0835813010     4.7678628147    14.3287158415
Ni      7.0717004302     0.5026714122    14.3230627621
Ni      8.3011267509     2.6340986160    14.3076659748
Ni      9.5335531959     4.7631567189    14.2676438740
Ni      0.2513216450    -0.4091983672    16.4946035452
Ni      1.4704682334     1.7119494719    16.4176200001
Ni      2.6888140936     3.8724897072    16.3903674809
Ni      2.7179378975    -0.4148680746    16.4030184153
Ni      3.9675513518     1.8082707727    16.3456207751
Ni      5.2014760120     3.8950590274    16.3897421125
Ni      5.1714587376    -0.4276887486    16.3859530421
Ni      6.4228148675     1.7050158367    16.3995922888
Ni      7.6214399726     3.8441761133    16.4970685127
O       4.3681837100     0.6593314469    20.4377339631
O       3.7106291605     1.8702512904    18.2809213052
O       3.8338652995     2.0642171648    22.9037652735
C       3.9114690816     2.0242742389    20.5411346267
C       4.3093437897     2.7251871043    19.2674320747
C       4.3768902575     2.7385363651    21.7716071938
H       2.8117454506     1.9410059281    20.5265971100
H       5.4009847220     2.8147957860    19.1369984045
H       3.8975140604     3.7249856952    19.1068820170
H       4.0040747099     3.7681926679    21.6926261709
H       5.4788023913     2.7793520130    21.7791773280
H       5.3323032240     0.5935016817    20.4967365723
H       4.0994786125     0.9660667742    18.3949094122
H       4.1389549582     2.4325188267    23.7306371487
50
Step 10 | ATOMIC_POSITIONS (angstrom) | Cartesian Angstrom
Ni      0.0000000000     0.0000000000    10.0000000187
Ni      1.2286496544     2.1280836261    10.0000000187
Ni      2.4572993456     4.2561673160    10.0000000187
Ni      2.4572993088     0.0000000000    10.0000000187
Ni      3.6859489631     2.1280836261    10.0000000187
Ni      4.9145986544     4.2561673160    10.0000000187
Ni      4.9145986912     0.0000000000    10.0000000187
Ni      6.1432483456     2.1280836261    10.0000000187
Ni      7.3718980369     4.2561673160    10.0000000187
Ni      1.5996556647     1.4928395271    12.2198639263
Ni      2.8244548878     3.6236855579    12.2043816262
Ni      4.0526763734     5.7508132049    12.2188331586
Ni      4.0544183309     1.4908166014    12.2215826836
Ni      5.2820154299     3.6169163076    12.2118217193
Ni      6.5114465041     5.7435873663    12.2280784789
Ni      6.5138522685     1.4886819318    12.2256033892
Ni      7.7388843201     3.6203040463    12.2269801137
Ni      8.9642134778     5.7526684855    12.2157691337
Ni      2.1543839965     0.5025698269    14.3179431098
Ni      3.3788173544     2.6389730820    14.2818884549
Ni      4.6169088327     4.7628644159    14.3027397645
Ni      4.6145023841     0.5182917153    14.3294775407
Ni      5.8458090704     2.6380435296    14.3136704550
Ni      7.0850818004     4.7631452041    14.3457889467
Ni      7.0740714629     0.4978590866    14.3389601532
Ni      8.2997260388     2.6316389226    14.3256111308
Ni      9.5333125555     4.7619058913    14.2825765023
Ni      0.2615567877    -0.4208457481    16.4655433934
Ni      1.4862840082     1.7004805225    16.3930905176
Ni      2.7002732089     3.8597851646    16.3600318035
Ni      2.7323555466    -0.4158553070    16.3814434305
Ni      3.9734900955     1.7760667378    16.3136159890
Ni      5.2092563894     3.8776737598    16.3665535669
Ni      5.1735971024    -0.4233308386    16.3722384074
Ni      6.4218984001     1.6970975024    16.3815982908
Ni      7.6323391859     3.8317812881    16.4691316949
O       4.3574448312     0.6582426671    20.4573607221
O       3.7314291301     1.8671707035    18.2566795351
O       3.8335369672     2.0580191123    22.8940781130
C       3.9095350040     2.0198789622    20.5423929704
C       4.3058118017     2.7167381929    19.2605854677
C       4.3810641533     2.7400140475    21.7779174621
H       2.8074355935     1.9398905443    20.5403987503
H       5.3930763546     2.8019199774    19.1230654063
H       3.8872153952     3.7178111927    19.1176891484
H       4.0026817868     3.7711150689    21.7033060376
H       5.4838569451     2.7759779524    21.8021318126
H       5.3460219670     0.5996853892    20.5028766640
H       4.0889349062     0.9641751129    18.4290117630
H       4.1493651979     2.4462772493    23.7391555201
50
Step 11 | ATOMIC_POSITIONS (angstrom) | Cartesian Angstrom
Ni      0.0000000000     0.0000000000    10.0000000187
Ni      1.2286496544     2.1280836261    10.0000000187
Ni      2.4572993456     4.2561673160    10.0000000187
Ni      2.4572993088     0.0000000000    10.0000000187
Ni      3.6859489631     2.1280836261    10.0000000187
Ni      4.9145986544     4.2561673160    10.0000000187
Ni      4.9145986912     0.0000000000    10.0000000187
Ni      6.1432483456     2.1280836261    10.0000000187
Ni      7.3718980369     4.2561673160    10.0000000187
Ni      1.6025032201     1.4880428822    12.2191799814
Ni      2.8269702781     3.6192187920    12.2010040308
Ni      4.0556593829     5.7455782089    12.2183601462
Ni      4.0578364057     1.4851854835    12.2193001907
Ni      5.2851462440     3.6117660397    12.2111723430
Ni      6.5143576620     5.7381099373    12.2277739056
Ni      6.5173170837     1.4835387400    12.2252738732
Ni      7.7418958926     3.6153225581    12.2271319910
Ni      8.9675179718     5.7470665972    12.2140506254
Ni      2.1519427724     0.5072212925    14.3107875465
Ni      3.3752246461     2.6445920039    14.2688943103
Ni      4.6139941376     4.7679220311    14.2995948411
Ni      4.6116800425     0.5211261138    14.3173275776
Ni      5.8429476754     2.6412290821    14.3077001366
Ni      7.0822749733     4.7650360332    14.3413521282
Ni      7.0724464001     0.5007150743    14.3342985520
Ni      8.2958371348     2.6362165420    14.3226789477
Ni      9.5297805212     4.7666922874    14.2789157829
Ni      0.2625504922    -0.4197409676    16.4406285317
Ni      1.4862418913     1.7022559018    16.3752449586
Ni      2.7016892518     3.8627618736    16.3385478481
Ni      2.7328121669    -0.4140574501    16.3665671405
Ni      3.9733009169     1.7657700054    16.2998274506
Ni      5.2094131957     3.8768405495    16.3501475007