50
Step 1 | ATOMIC_POSITIONS (angstrom) | Cartesian Angstrom
Ni      0.0000000000     0.0000000000    10.0000000187
Ni      1.2286496544     2.1280836261    10.0000000187
Ni      2.4572993456     4.2561673160    10.0000000187
Ni      2.4572993088     0.0000000000    10.0000000187
Ni      3.6859489631     2.1280836261    10.0000000187
Ni      4.9145986544     4.2561673160    10.0000000187
Ni      4.9145986912     0.0000000000    10.0000000187
Ni      6.1432483456     2.1280836261    10.0000000187
Ni      7.3718980369     4.2561673160    10.0000000187
Ni      1.6381995392     1.4187224174    12.0063764263
Ni      2.8668492304     3.5468061073    12.0063764263
Ni      4.0954988848     5.6748897334    12.0063764263
Ni      4.0954988479     1.4187224174    12.0063764263
Ni      5.3241485392     3.5468061073    12.0063764263
Ni      6.5527981936     5.6748897334    12.0063764263
Ni      6.5527982304     1.4187224174    12.0063764263
Ni      7.7814479217     3.5468061073    12.0063764263
Ni      9.0100975760     5.6748897334    12.0063764263
Ni      2.2516038664     0.3562485209    14.0176456028
Ni      3.4802476365     2.4843745586    14.0183791162
Ni      4.7089381109     4.6123818264    14.0169952596
Ni      4.7088899085     0.3562448836    14.0174492137
Ni      5.9375765867     2.4843175622    14.0172270338
Ni      7.1661917015     4.6124553567    14.0183791162
Ni      7.1661864210     0.3563029066    14.0178601745
Ni      8.3948849266     2.4843550995    14.0174492137
Ni      9.6235247977     4.6124290550    14.0176456028
Ni      0.4109679877    -0.7121197728    16.0096900244
Ni      1.6409294032     1.4128966764    16.0175209558
Ni      2.8645368409     3.5423294344    16.0122099614
Ni      2.8723654078    -0.7080799885    16.0099654176
Ni      4.0978342894     1.4064273315    16.0123996162
Ni      5.3295538768     3.5487306103    16.0155518537
Ni      5.3274955631    -0.7147057269    16.0170041949
Ni      6.5579033382     1.4095050926    16.0092121853
Ni      7.7916969995     3.5384530492    16.0107707442
O       5.9209689276     2.2556547385    20.3422106439
O       5.4271507048     3.6088239443    17.9830559935
O       5.4333830526     3.6022795539    22.7897363274
C       5.4432485651     3.6045958524    20.3775632294
C       5.9098873884     4.3270330894    19.1204349627
C       5.9154440620     4.2996249841    21.6401450788
H       4.3279975879     3.5208651003    20.3740788980
H       7.0145286364     4.3393215438    19.0672388256
H       5.5380850936     5.3446045053    19.0644708560
H       5.5715942219     5.3392537799    21.6725532153
H       7.0247837479     4.2874031268    21.6726991180
H       6.9013936296     2.3140512801    20.3507576467
H       5.7775403980     2.6882936659    18.0357674249
H       5.7776658057     4.0789431934    23.5620502992
50
Step 2 | ATOMIC_POSITIONS (angstrom) | Cartesian Angstrom
Ni      0.0000000000     0.0000000000    10.0000000187
Ni      1.2286496544     2.1280836261    10.0000000187
Ni      2.4572993456     4.2561673160    10.0000000187
Ni      2.4572993088     0.0000000000    10.0000000187
Ni      3.6859489631     2.1280836261    10.0000000187
Ni      4.9145986544     4.2561673160    10.0000000187
Ni      4.9145986912     0.0000000000    10.0000000187
Ni      6.1432483456     2.1280836261    10.0000000187
Ni      7.3718980369     4.2561673160    10.0000000187
Ni      1.6381995392     1.4187224174    12.0063764263
Ni      2.8668492304     3.5468061073    12.0063764263
Ni      4.0954988848     5.6748897334    12.0063764263
Ni      4.0954988479     1.4187224174    12.0063764263
Ni      5.3241485392     3.5468061073    12.0063764263
Ni      6.5527981936     5.6748897334    12.0063764263
Ni      6.5527982304     1.4187224174    12.0063764263
Ni      7.7814479217     3.5468061073    12.0063764263
Ni      9.0100975760     5.6748897334    12.0063764263
Ni      2.2516038664     0.3562485209    14.0176456028
Ni      3.4802476365     2.4843745586    14.0183791162
Ni      4.7089381109     4.6123818264    14.0169952596
Ni      4.7088899085     0.3562448836    14.0174492137
Ni      5.9375765867     2.4843175622    14.0172270338
Ni      7.1661917015     4.6124553567    14.0183791162
Ni      7.1661864210     0.3563029066    14.0178601745
Ni      8.3948849266     2.4843550995    14.0174492137
Ni      9.6235247977     4.6124290550    14.0176456028
Ni      0.4055480362    -0.7037669195    16.0001157115
Ni      1.6395814655     1.4130880137    16.0247390970
Ni      2.8532881978     3.5438907391    16.0062698841
Ni      2.8777180874    -0.6938661944    15.9993215872
Ni      4.0946148061     1.3948128431    16.0071040159
Ni      5.3348199735     3.5662548170    16.0215197442
Ni      5.3277030763    -0.7133584403    16.0230739001
Ni      6.5617761263     1.4017222947    15.9980647271
Ni      7.8052622664     3.5348245741    16.0022037442
O       5.9237580523     2.2382418298    20.3315478973
O       5.4014787858     3.5867463816    18.0090529272
O       5.4215127117     3.5940520220    22.7966075233
C       5.4526691438     3.6013822190    20.3889454744
C       5.9165552744     4.3357578344    19.1277866576
C       5.9170685259     4.3026669364    21.6544837112
H       4.3405516462     3.5223915720    20.3744085387
H       7.0219703846     4.3479155725    19.0742305091
H       5.5323788491     5.3572882075    19.0547055869
H       5.5712739447     5.3558688462    21.6612059842
H       7.0323047835     4.2949285454    21.6575153747
H       6.8961030544     2.3081261593    20.3536642194
H       5.7751500247     2.6721479116    18.0490354777
H       5.7739440507     4.0745154544    23.5641533618
50
Step 3 | ATOMIC_POSITIONS (angstrom) | Cartesian Angstrom
Ni      0.0000000000     0.0000000000    10.0000000187
Ni      1.2286496544     2.1280836261    10.0000000187
Ni      2.4572993456     4.2561673160    10.0000000187
Ni      2.4572993088     0.0000000000    10.0000000187
Ni      3.6859489631     2.1280836261    10.0000000187
Ni      4.9145986544     4.2561673160    10.0000000187
Ni      4.9145986912     0.0000000000    10.0000000187
Ni      6.1432483456     2.1280836261    10.0000000187
Ni      7.3718980369     4.2561673160    10.0000000187
Ni      1.6381995392     1.4187224174    12.0063764263
Ni      2.8668492304     3.5468061073    12.0063764263
Ni      4.0954988848     5.6748897334    12.0063764263
Ni      4.0954988479     1.4187224174    12.0063764263
Ni      5.3241485392     3.5468061073    12.0063764263
Ni      6.5527981936     5.6748897334    12.0063764263
Ni      6.5527982304     1.4187224174    12.0063764263
Ni      7.7814479217     3.5468061073    12.0063764263
Ni      9.0100975760     5.6748897334    12.0063764263
Ni      2.2516038664     0.3562485209    14.0176456028
Ni      3.4802476365     2.4843745586    14.0183791162
Ni      4.7089381109     4.6123818264    14.0169952596
Ni      4.7088899085     0.3562448836    14.0174492137
Ni      5.9375765867     2.4843175622    14.0172270338
Ni      7.1661917015     4.6124553567    14.0183791162
Ni      7.1661864210     0.3563029066    14.0178601745
Ni      8.3948849266     2.4843550995    14.0174492137
Ni      9.6235247977     4.6124290550    14.0176456028
Ni      0.4003737091    -0.6969638891    15.9898923737
Ni      1.6383608285     1.4145028007    16.0340800310
Ni      2.8422154422     3.5451937338    15.9997597625
Ni      2.8833563566    -0.6788206631    15.9884486719
Ni      4.0921965923     1.3829357228    16.0011326158
Ni      5.3421244936     3.5871250077    16.0335071520
Ni      5.3280759171    -0.7108703052    16.0311857978
Ni      6.5644135145     1.3953427531    15.9858799834
Ni      7.8191454201     3.5297702892    15.9934392276
O       5.9204595106     2.2336234403    20.3220284920
O       5.3772926683     3.5631866326    18.0375012761
O       5.4157119085     3.5957266536    22.8011784437
C       5.4572267213     3.5991823125    20.3973762615
C       5.9183949335     4.3360682720    19.1355157288
C       5.9202660829     4.3037378038    21.6625495565
H       4.3575525514     3.5239169963    20.3759374559
H       7.0279192259     4.3587194154    19.0788548327
H       5.5279464145     5.3649726168    19.0441873218
H       5.5733442101     5.3634966623    21.6505601226
H       7.0349151705     4.3039671318    21.6466136084
H       6.8989376106     2.2972260783    20.3574458741
H       5.7701912716     2.6582517529    18.0675354560
H       5.7674685244     4.0663956591    23.5695753570
50
Step 4 | ATOMIC_POSITIONS (angstrom) | Cartesian Angstrom
Ni      0.0000000000     0.0000000000    10.0000000187
Ni      1.2286496544     2.1280836261    10.0000000187
Ni      2.4572993456     4.2561673160    10.0000000187
Ni      2.4572993088     0.0000000000    10.0000000187
Ni      3.6859489631     2.1280836261    10.0000000187
Ni      4.9145986544     4.2561673160    10.0000000187
Ni      4.9145986912     0.0000000000    10.0000000187
Ni      6.1432483456     2.1280836261    10.0000000187
Ni      7.3718980369     4.2561673160    10.0000000187
Ni      1.6381995392     1.4187224174    12.0063764263
Ni      2.8668492304     3.5468061073    12.0063764263
Ni      4.0954988848     5.6748897334    12.0063764263
Ni      4.0954988479     1.4187224174    12.0063764263
Ni      5.3241485392     3.5468061073    12.0063764263
Ni      6.5527981936     5.6748897334    12.0063764263
Ni      6.5527982304     1.4187224174    12.0063764263
Ni      7.7814479217     3.5468061073    12.0063764263
Ni      9.0100975760     5.6748897334    12.0063764263
Ni      2.2516038664     0.3562485209    14.0176456028
Ni      3.4802476365     2.4843745586    14.0183791162
Ni      4.7089381109     4.6123818264    14.0169952596
Ni      4.7088899085     0.3562448836    14.0174492137
Ni      5.9375765867     2.4843175622    14.0172270338
Ni      7.1661917015     4.6124553567    14.0183791162
Ni      7.1661864210     0.3563029066    14.0178601745
Ni      8.3948849266     2.4843550995    14.0174492137
Ni      9.6235247977     4.6124290550    14.0176456028
Ni      0.3967855396    -0.6942714469    15.9810675804
Ni      1.6377119468     1.4174402119    16.0443486728
Ni      2.8342169395     3.5459608323    15.9938768801
Ni      2.8879055938    -0.6660984179    15.9797739952
Ni      4.0915408727     1.3734243343    15.9955226706
Ni      5.3506768575     3.6085176037    16.0507367215
Ni      5.3287554317    -0.7071994562    16.0403652773
Ni      6.5646115297     1.3924637516    15.9749857767
Ni      7.8300302671     3.5236828159    15.9863810754
O       5.9275285924     2.2371466366    20.3163021147
O       5.3579595317     3.5440740950    18.0604291283
O       5.4133580929     3.6014980242    22.7982178102
C       5.4628636949     3.6014329111    20.4033063764
C       5.9172800538     4.3343461028    19.1408164607
C       5.9234882474     4.3047268303    21.6637111102
H       4.3690694799     3.5252205849    20.3788357623
H       7.0276876435     4.3688034848    19.0802549660
H       5.5258956065     5.3627172241    19.0350025337
H       5.5771073604     5.3621814213    21.6420700631
H       7.0345080386     4.3127123986    21.6418415818
H       6.8950468715     2.2825349229    20.3613838190
H       5.7638649350     2.6458229655    18.0894755708
H       5.7620733815     4.0597779544    23.5822830173
50
Step 5 | ATOMIC_POSITIONS (angstrom) | Cartesian Angstrom
Ni      0.0000000000     0.0000000000    10.0000000187
Ni      1.2286496544     2.1280836261    10.0000000187
Ni      2.4572993456     4.2561673160    10.0000000187
Ni      2.4572993088     0.0000000000    10.0000000187
Ni      3.6859489631     2.1280836261    10.0000000187
Ni      4.9145986544     4.2561673160    10.0000000187
Ni      4.9145986912     0.0000000000    10.0000000187
Ni      6.1432483456     2.1280836261    10.0000000187
Ni      7.3718980369     4.2561673160    10.0000000187
Ni      1.6381995392     1.4187224174    12.0063764263
Ni      2.8668492304     3.5468061073    12.0063764263
Ni      4.0954988848     5.6748897334    12.0063764263
Ni      4.0954988479     1.4187224174    12.0063764263
Ni      5.3241485392     3.5468061073    12.0063764263
Ni      6.5527981936     5.6748897334    12.0063764263
Ni      6.5527982304     1.4187224174    12.0063764263
Ni      7.7814479217     3.5468061073    12.0063764263
Ni      9.0100975760     5.6748897334    12.0063764263
Ni      2.2516038664     0.3562485209    14.0176456028
Ni      3.4802476365     2.4843745586    14.0183791162
Ni      4.7089381109     4.6123818264    14.0169952596
Ni      4.7088899085     0.3562448836    14.0174492137
Ni      5.9375765867     2.4843175622    14.0172270338
Ni      7.1661917015     4.6124553567    14.0183791162
Ni      7.1661864210     0.3563029066    14.0178601745
Ni      8.3948849266     2.4843550995    14.0174492137
Ni      9.6235247977     4.6124290550    14.0176456028
Ni      0.3948034706    -0.6968106378    15.9732191346
Ni      1.6379593502     1.4227780138    16.0566870191
Ni      2.8296199309     3.5462913036    15.9881543310
Ni      2.8913407896    -0.6550544926    15.9731486431
Ni      4.0930770645     1.3660005279    15.9897830251
Ni      5.3619741474     3.6331421740    16.0758141200
Ni      5.3300946920    -0.7015204333    16.0516706133
Ni      6.5617019265     1.3938237763    15.9648591135
Ni      7.8378188117     3.5154915445    15.9809044916
O       5.9274448676     2.2462397094    20.3135354871
O       5.3429133043     3.5263253099    18.0786504070
O       5.4159744656     3.6140808480    22.7981878976
C       5.4679404634     3.6059912039    20.4059047069
C       5.9154765995     4.3287539850    19.1429664705
C       5.9300657233     4.3064029978    21.6608023478
H       4.3776629763     3.5261727989    20.3840010592
H       7.0202916131     4.3784696056    19.0775934511
H       5.5237900135     5.3532054798    19.0260970543
H       5.5816281074     5.3557885274    21.6343335981
H       7.0329346584     4.3221561056    21.6429615605
H       6.9015186939     2.2642986973    20.3671509753
H       5.7542257261     2.6343267105    18.1181803984
H       5.7538866645     4.0496920209    23.5943367523
50
Step 6 | ATOMIC_POSITIONS (angstrom) | Cartesian Angstrom
Ni      0.0000000000     0.0000000000    10.0000000187
Ni      1.2286496544     2.1280836261    10.0000000187
Ni      2.4572993456     4.2561673160    10.0000000187
Ni      2.4572993088     0.0000000000    10.0000000187
Ni      3.6859489631     2.1280836261    10.0000000187
Ni      4.9145986544     4.2561673160    10.0000000187
Ni      4.9145986912     0.0000000000    10.0000000187
Ni      6.1432483456     2.1280836261    10.0000000187
Ni      7.3718980369     4.2561673160    10.0000000187
Ni      1.6381995392     1.4187224174    12.0063764263
Ni      2.8668492304     3.5468061073    12.0063764263
Ni      4.0954988848     5.6748897334    12.0063764263
Ni      4.0954988479     1.4187224174    12.0063764263
Ni      5.3241485392     3.5468061073    12.0063764263
Ni      6.5527981936     5.6748897334    12.0063764263
Ni      6.5527982304     1.4187224174    12.0063764263
Ni      7.7814479217     3.5468061073    12.0063764263
Ni      9.0100975760     5.6748897334    12.0063764263
Ni      2.2516038664     0.3562485209    14.0176456028
Ni      3.4802476365     2.4843745586    14.0183791162
Ni      4.7089381109     4.6123818264    14.0169952596
Ni      4.7088899085     0.3562448836    14.0174492137
Ni      5.9375765867     2.4843175622    14.0172270338
Ni      7.1661917015     4.6124553567    14.0183791162
Ni      7.1661864210     0.3563029066    14.0178601745
Ni      8.3948849266     2.4843550995    14.0174492137
Ni      9.6235247977     4.6124290550    14.0176456028
Ni      0.3953537437    -0.7054307978    15.9695712563
Ni      1.6396285218     1.4295838506    16.0671419302
Ni      2.8313763279     3.5462654858    15.9847018263
Ni      2.8919204634    -0.6498604199    15.9717817555
Ni      4.0968891737     1.3638721793    15.9859569831
Ni      5.3734439336     3.6535914547    16.1015904237
Ni      5.3322398806    -0.6949164657    16.0615030760
Ni      6.5558776403     1.4002252608    15.9596287412
Ni      7.8383685216     3.5071634152    15.9796467027
O       5.9324474787     2.2531861605    20.3158086305
O       5.3380665588     3.5181110851    18.0843624667
O       5.4187551295     3.6233678675    22.7940993204
C       5.4718181540     3.6107469345    20.4057241078
C       5.9087505936     4.3228572935    19.1402008856
C       5.9349410395     4.3088322391    21.6589585360
H       4.3792227029     3.5272186897    20.3905498993
H       7.0113482074     4.3832811461    19.0699615792
H       5.5207276391     5.3399649558    19.0200306478
H       5.5848050284     5.3500077528    21.6293302768
H       7.0359364126     4.3291803685    21.6501534074
H       6.9050987869     2.2484769321    20.3730101899
H       5.7439227455     2.6240605621    18.1462113673
H       5.7491417637     4.0441750065    23.6069138376
50
Step 7 | ATOMIC_POSITIONS (angstrom) | Cartesian Angstrom
Ni      0.0000000000     0.0000000000    10.0000000187
Ni      1.2286496544     2.1280836261    10.0000000187
Ni      2.4572993456     4.2561673160    10.0000000187
Ni      2.4572993088     0.0000000000    10.0000000187
Ni      3.6859489631     2.1280836261    10.0000000187
Ni      4.9145986544     4.2561673160    10.0000000187
Ni      4.9145986912     0.0000000000    10.0000000187
Ni      6.1432483456     2.1280836261    10.0000000187
Ni      7.3718980369     4.2561673160    10.0000000187
Ni      1.6381995392     1.4187224174    12.0063764263
Ni      2.8668492304     3.5468061073    12.0063764263
Ni      4.0954988848     5.6748897334    12.0063764263
Ni      4.0954988479     1.4187224174    12.0063764263
Ni      5.3241485392     3.5468061073    12.0063764263
Ni      6.5527981936     5.6748897334    12.0063764263
Ni      6.5527982304     1.4187224174    12.0063764263
Ni      7.7814479217     3.5468061073    12.0063764263
Ni      9.0100975760     5.6748897334    12.0063764263
Ni      2.2516038664     0.3562485209    14.0176456028
Ni      3.4802476365     2.4843745586    14.0183791162
Ni      4.7089381109     4.6123818264    14.0169952596
Ni      4.7088899085     0.3562448836    14.0174492137
Ni      5.9375765867     2.4843175622    14.0172270338
Ni      7.1661917015     4.6124553567    14.0183791162
Ni      7.1661864210     0.3563029066    14.0178601745
Ni      8.3948849266     2.4843550995    14.0174492137
Ni      9.6235247977     4.6124290550    14.0176456028
Ni      0.3969123654    -0.7201431538    15.9678664934
Ni      1.6434553157     1.4395880506    16.0785545084
Ni      2.8376065028     3.5465719876    15.9818192642
Ni      2.8908600737    -0.6459864800    15.9736518333
Ni      4.1027001073     1.3639903913    15.9823820352
Ni      5.3891469416     3.6768295892    16.1325655540
Ni      5.3362400932    -0.6853389357    16.0723391763
Ni      6.5470145874     1.4113420805    15.9567481693
Ni      7.8342504405     3.4960528542    15.9809761120
O       5.9378840124     2.2547595466    20.3209181353
O       5.3381504013     3.5089038361    18.0839213618
O       5.4212538029     3.6312202468    22.7963956179
C       5.4771631295     3.6135714692    20.4070922293
C       5.9017966897     4.3173391018    19.1349228793
C       5.9423301085     4.3132659830    21.6580702961
H       4.3782495499     3.5284755408    20.4004742812
H       6.9997205371     4.3852896422    19.0566612007
H       5.5122799701     5.3266048428    19.0131224423
H       5.5867162677     5.3497391226    21.6241637504
H       7.0443823434     4.3366324848    21.6620720126
H       6.9098473279     2.2323586996    20.3813252939
H       5.7281809194     2.6112884850    18.1819480748
H       5.7435543074     4.0379563607    23.6147031924
50
Step 8 | ATOMIC_POSITIONS (angstrom) | Cartesian Angstrom
Ni      0.0000000000     0.0000000000    10.0000000187
Ni      1.2286496544     2.1280836261    10.0000000187
Ni      2.4572993456     4.2561673160    10.0000000187
Ni      2.4572993088     0.0000000000    10.0000000187
Ni      3.6859489631     2.1280836261    10.0000000187
Ni      4.9145986544     4.2561673160    10.0000000187
Ni      4.9145986912     0.0000000000    10.0000000187
Ni      6.1432483456     2.1280836261    10.0000000187
Ni      7.3718980369     4.2561673160    10.0000000187
Ni      1.6381995392     1.4187224174    12.0063764263
Ni      2.8668492304     3.5468061073    12.0063764263
Ni      4.0954988848     5.6748897334    12.0063764263
Ni      4.0954988479     1.4187224174    12.0063764263
Ni      5.3241485392     3.5468061073    12.0063764263
Ni      6.5527981936     5.6748897334    12.0063764263
Ni      6.5527982304     1.4187224174    12.0063764263
Ni      7.7814479217     3.5468061073    12.0063764263
Ni      9.0100975760     5.6748897334    12.0063764263
Ni      2.2516038664     0.3562485209    14.0176456028
Ni      3.4802476365     2.4843745586    14.0183791162
Ni      4.7089381109     4.6123818264    14.0169952596
Ni      4.7088899085     0.3562448836    14.0174492137
Ni      5.9375765867     2.4843175622    14.0172270338
Ni      7.1661917015     4.6124553567    14.0183791162
Ni      7.1661864210     0.3563029066    14.0178601745
Ni      8.3948849266     2.4843550995    14.0174492137
Ni      9.6235247977     4.6124290550    14.0176456028
Ni      0.3977328829    -0.7372099183    15.9682288923
Ni      1.6498327109     1.4514065948    16.0884639082
Ni      2.8459871765     3.5478714360    15.9799270778
Ni      2.8890116647    -0.6416452065    15.9779888455
Ni      4.1083259688     1.3647226459    15.9795898306
Ni      5.4075198134     3.6987142263    16.1600453617
Ni      5.3422840749    -0.6737639544    16.0816977084
Ni      6.5375858245     1.4243164741    15.9568279787
Ni      7.8273204398     3.4836027739    15.9842891087
O       5.9395705483     2.2490605760    20.3270448951
O       5.3410297228     3.4984861219    18.0830517043
O       5.4195761008     3.6323011032    22.7945738652
C       5.4824654719     3.6115729809    20.4104746464
C       5.8953494180     4.3133667151    19.1303288160
C       5.9503628902     4.3190862317    21.6630759428
H       4.3792744439     3.5296187285    20.4127909207
H       6.9907379866     4.3846174501    19.0398726916
H       5.4976016733     5.3184720102    19.0054534308
H       5.5876720883     5.3562707433    21.6192646857
H       7.0563851787     4.3437582333    21.6756240212
H       6.9163365035     2.2196499281    20.3913456078
H       5.7087331377     2.5948351910    18.2202273918
H       5.7415251169     4.0365445658    23.6228655735
50
Step 9 | ATOMIC_POSITIONS (angstrom) | Cartesian Angstrom
Ni      0.0000000000     0.0000000000    10.0000000187
Ni      1.2286496544     2.1280836261    10.0000000187
Ni      2.4572993456     4.2561673160    10.0000000187
Ni      2.4572993088     0.0000000000    10.0000000187
Ni      3.6859489631     2.1280836261    10.0000000187
Ni      4.9145986544     4.2561673160    10.0000000187
Ni      4.9145986912     0.0000000000    10.0000000187
Ni      6.1432483456     2.1280836261    10.0000000187
Ni      7.3718980369     4.2561673160    10.0000000187
Ni      1.6381995392     1.4187224174    12.0063764263
Ni      2.8668492304     3.5468061073    12.0063764263
Ni      4.0954988848     5.6748897334    12.0063764263
Ni      4.0954988479     1.4187224174    12.0063764263
Ni      5.3241485392     3.5468061073    12.0063764263
Ni      6.5527981936     5.6748897334    12.0063764263
Ni      6.5527982304     1.4187224174    12.0063764263
Ni      7.7814479217     3.5468061073    12.0063764263
Ni      9.0100975760     5.6748897334    12.0063764263
Ni      2.2516038664     0.3562485209    14.0176456028
Ni      3.4802476365     2.4843745586    14.0183791162
Ni      4.7089381109     4.6123818264    14.0169952596
Ni      4.7088899085     0.3562448836    14.0174492137
Ni      5.9375765867     2.4843175622    14.0172270338
Ni      7.1661917015     4.6124553567    14.0183791162
Ni      7.1661864210     0.3563029066    14.0178601745
Ni      8.3948849266     2.4843550995    14.0174492137
Ni      9.6235247977     4.6124290550    14.0176456028
Ni      0.3966524234    -0.7503535900    15.9714345025
Ni      1.6580399740     1.4611068989    16.0921367083
Ni      2.8537049408     3.5503019686    15.9803606379
Ni      2.8871052251    -0.6374619234    15.9840184647
Ni      4.1108594097     1.3657563136    15.9791578465
Ni      5.4226299233     3.7091136682    16.1707497724
Ni      5.3492027066    -0.6638385262    16.0850407915
Ni      6.5314295839     1.4347662355    15.9612202177
Ni      7.8196738759     3.4743204094    15.9889501061
O       5.9434157342     2.2382473783    20.3332136361
O       5.3464994646     3.4888715625    18.0837226244
O       5.4186641196     3.6313945070    22.8004435401
C       5.4872183848     3.6076626288    20.4152765045
C       5.8914695817     4.3130198206    19.1290145747
C       5.9551823926     4.3239148239    21.6678612621
H       4.3820500637     3.5298998733    20.4239896016
H       6.9878748205     4.3813174299    19.0250723295
H       5.4813193114     5.3169594714    19.0003386285
H       5.5883625194     5.3656252617    21.6174898345
H       7.0664618827     4.3478109520    21.6871951686
H       6.9155557849     2.2157256785    20.3993999651
H       5.6907726345     2.5810578407    18.2472932114
H       5.7402091140     4.0360759454    23.6187742548
50
Step 10 | ATOMIC_POSITIONS (angstrom) | Cartesian Angstrom
Ni      0.0000000000     0.0000000000    10.0000000187
Ni      1.2286496544     2.1280836261    10.0000000187
Ni      2.4572993456     4.2561673160    10.0000000187
Ni      2.4572993088     0.0000000000    10.0000000187
Ni      3.6859489631     2.1280836261    10.0000000187
Ni      4.9145986544     4.2561673160    10.0000000187
Ni      4.9145986912     0.0000000000    10.0000000187
Ni      6.1432483456     2.1280836261    10.0000000187
Ni      7.3718980369     4.2561673160    10.0000000187
Ni      1.6381995392     1.4187224174    12.0063764263
Ni      2.8668492304     3.5468061073    12.0063764263
Ni      4.0954988848     5.6748897334    12.0063764263
Ni      4.0954988479     1.4187224174    12.0063764263
Ni      5.3241485392     3.5468061073    12.0063764263
Ni      6.5527981936     5.6748897334    12.0063764263
Ni      6.5527982304     1.4187224174    12.0063764263
Ni      7.7814479217     3.5468061073    12.0063764263
Ni      9.0100975760     5.6748897334    12.0063764263
Ni      2.2516038664     0.3562485209    14.0176456028
Ni      3.4802476365     2.4843745586    14.0183791162
Ni      4.7089381109     4.6123818264    14.0169952596
Ni      4.7088899085     0.3562448836    14.0174492137
Ni      5.9375765867     2.4843175622    14.0172270338
Ni      7.1661917015     4.6124553567    14.0183791162
Ni      7.1661864210     0.3563029066    14.0178601745
Ni      8.3948849266     2.4843550995    14.0174492137
Ni      9.6235247977     4.6124290550    14.0176456028
Ni      0.3930377257    -0.7585839519    15.9761755090
Ni      1.6685372948     1.4687668573    16.0905319201
Ni      2.8590133941     3.5541352362    15.9825257155
Ni      2.8858537034    -0.6315504437    15.9903536753
Ni      4.1096369727     1.3655137801    15.9805236902
Ni      5.4350925971     3.7097678666    16.1671554896
Ni      5.3572405924    -0.6553723087    16.0832033277
Ni      6.5291039115     1.4419269656    15.9682735016
Ni      7.8135886704     3.4677694201    15.9936293620
O       5.9412370747     2.2292018222    20.3384361980
O       5.3501323506     3.4796125310    18.0880116674
O       5.4161211779     3.6275224036    22.7997779806
C       5.4913376671     3.6027966795    20.4216033987
C       5.8923522353     4.3140076203    19.1308249832
C       5.9584193808     4.3261790396    21.6731959428
H       4.3882395641     3.5288053680    20.4342361491
H       6.9880632446     4.3781142386    19.0137888985
H       5.4651580581     5.3182638493    18.9974374951
H       5.5901467019     5.3737565674    21.6183694074
H       7.0710923544     4.3500105859    21.6963700831
H       6.9160147836     2.2174772433    20.4064428234
H       5.6744537353     2.5683912780    18.2659336091
H       5.7427801697     4.0405806319    23.6157013142
50
Step 11 | ATOMIC_POSITIONS (angstrom) | Cartesian Angstrom
Ni      0.0000000000     0.0000000000    10.0000000187
Ni      1.2286496544     2.1280836261    10.0000000187
Ni      2.4572993456     4.2561673160    10.0000000187
Ni      2.4572993088     0.0000000000    10.0000000187
Ni      3.6859489631     2.1280836261    10.0000000187
Ni      4.9145986544     4.2561673160    10.0000000187
Ni      4.9145986912     0.0000000000    10.0000000187
Ni      6.1432483456     2.1280836261    10.0000000187
Ni      7.3718980369     4.2561673160    10.0000000187
Ni      1.6381995392     1.4187224174    12.0063764263
Ni      2.8668492304     3.5468061073    12.0063764263
Ni      4.0954988848     5.6748897334    12.0063764263
Ni      4.0954988479     1.4187224174    12.0063764263
Ni      5.3241485392     3.5468061073    12.0063764263
Ni      6.5527981936     5.6748897334    12.0063764263
Ni      6.5527982304     1.4187224174    12.0063764263
Ni      7.7814479217     3.5468061073    12.0063764263
Ni      9.0100975760     5.6748897334    12.0063764263
Ni      2.2516038664     0.3562485209    14.0176456028
Ni      3.4802476365     2.4843745586    14.0183791162
Ni      4.7089381109     4.6123818264    14.0169952596
Ni      4.7088899085     0.3562448836    14.0174492137
Ni      5.9375765867     2.4843175622    14.0172270338
Ni      7.1661917015     4.6124553567    14.0183791162
Ni      7.1661864210     0.3563029066    14.0178601745
Ni      8.3948849266     2.4843550995    14.0174492137
Ni      9.6235247977     4.6124290550    14.0176456028
Ni      0.3868993295    -0.7651669009    15.9816521782
Ni      1.6835844512     1.4769167274    16.0857005904
Ni      2.8623846578     3.5602609977    15.9858192146
Ni      2.8848073608    -0.6225614029    15.9971214524
Ni      4.1053371509     1.3631527657    15.9829322276
Ni      5.4490196647     3.7059127286    16.1578024964