50
Step 1 | ATOMIC_POSITIONS (angstrom) | Cartesian Angstrom
Ni      0.0000000000     0.0000000000    10.0000000187
Ni      1.2286496544     2.1280836261    10.0000000187
Ni      2.4572993456     4.2561673160    10.0000000187
Ni      2.4572993088     0.0000000000    10.0000000187
Ni      3.6859489631     2.1280836261    10.0000000187
Ni      4.9145986544     4.2561673160    10.0000000187
Ni      4.9145986912     0.0000000000    10.0000000187
Ni      6.1432483456     2.1280836261    10.0000000187
Ni      7.3718980369     4.2561673160    10.0000000187
Ni      1.6381995392     1.4187224174    12.0063764263
Ni      2.8668492304     3.5468061073    12.0063764263
Ni      4.0954988848     5.6748897334    12.0063764263
Ni      4.0954988479     1.4187224174    12.0063764263
Ni      5.3241485392     3.5468061073    12.0063764263
Ni      6.5527981936     5.6748897334    12.0063764263
Ni      6.5527982304     1.4187224174    12.0063764263
Ni      7.7814479217     3.5468061073    12.0063764263
Ni      9.0100975760     5.6748897334    12.0063764263
Ni      2.2516038664     0.3562485209    14.0176456028
Ni      3.4802476365     2.4843745586    14.0183791162
Ni      4.7089381109     4.6123818264    14.0169952596
Ni      4.7088899085     0.3562448836    14.0174492137
Ni      5.9375765867     2.4843175622    14.0172270338
Ni      7.1661917015     4.6124553567    14.0183791162
Ni      7.1661864210     0.3563029066    14.0178601745
Ni      8.3948849266     2.4843550995    14.0174492137
Ni      9.6235247977     4.6124290550    14.0176456028
Ni      0.4109712776    -0.7121190345    16.0096553150
Ni      1.6409251942     1.4128895618    16.0174841790
Ni      2.8645414319     3.5423351713    16.0121733841
Ni      2.8723464924    -0.7080751830    16.0099368042
Ni      4.0978296220     1.4064366725    16.0123717242
Ni      5.3295443344     3.5487359407    16.0155494164
Ni      5.3275116047    -0.7147088426    16.0169666196
Ni      6.5579097907     1.4095008227    16.0091914367
Ni      7.7917010839     3.5384478282    16.0107443738
O       5.9209905277     2.2556566769    20.3422234328
O       5.4271575456     3.6088035985    17.9830735592
O       5.4333751741     3.6022636388    22.7897437136
C       5.4432365640     3.6045931054    20.3775733760
C       5.9098899700     4.3270357925    19.1204409655
C       5.9154458098     4.2996234644    21.6401476370
H       4.3279926103     3.5208642594    20.3740848587
H       7.0145331422     4.3393222168    19.0672442926
H       5.5380835212     5.3446078055    19.0644758194
H       5.5715908349     5.3392574120    21.6725607886
H       7.0247896851     4.2874013116    21.6727056372
H       6.9013932854     2.3140521455    20.3507635317
H       5.7775422441     2.6882913787    18.0357748248
H       5.7776613923     4.0789373152    23.5620497052
50
Step 2 | ATOMIC_POSITIONS (angstrom) | Cartesian Angstrom
Ni      0.0000000000     0.0000000000    10.0000000187
Ni      1.2286496544     2.1280836261    10.0000000187
Ni      2.4572993456     4.2561673160    10.0000000187
Ni      2.4572993088     0.0000000000    10.0000000187
Ni      3.6859489631     2.1280836261    10.0000000187
Ni      4.9145986544     4.2561673160    10.0000000187
Ni      4.9145986912     0.0000000000    10.0000000187
Ni      6.1432483456     2.1280836261    10.0000000187
Ni      7.3718980369     4.2561673160    10.0000000187
Ni      1.6381995392     1.4187224174    12.0063764263
Ni      2.8668492304     3.5468061073    12.0063764263
Ni      4.0954988848     5.6748897334    12.0063764263
Ni      4.0954988479     1.4187224174    12.0063764263
Ni      5.3241485392     3.5468061073    12.0063764263
Ni      6.5527981936     5.6748897334    12.0063764263
Ni      6.5527982304     1.4187224174    12.0063764263
Ni      7.7814479217     3.5468061073    12.0063764263
Ni      9.0100975760     5.6748897334    12.0063764263
Ni      2.2516038664     0.3562485209    14.0176456028
Ni      3.4802476365     2.4843745586    14.0183791162
Ni      4.7089381109     4.6123818264    14.0169952596
Ni      4.7088899085     0.3562448836    14.0174492137
Ni      5.9375765867     2.4843175622    14.0172270338
Ni      7.1661917015     4.6124553567    14.0183791162
Ni      7.1661864210     0.3563029066    14.0178601745
Ni      8.3948849266     2.4843550995    14.0174492137
Ni      9.6235247977     4.6124290550    14.0176456028
Ni      0.4055420046    -0.7037526281    15.9999941020
Ni      1.6395700974     1.4131001834    16.0246624351
Ni      2.8532590174     3.5439029648    16.0061570179
Ni      2.8777040745    -0.6938178433    15.9991949961
Ni      4.0946127306     1.3947861987    16.0070108572
Ni      5.3348196345     3.5663067340    16.0215076830
Ni      5.3277285403    -0.7133442447    16.0229967445
Ni      6.5617904316     1.4017050259    15.9979648241
Ni      7.8053115341     3.5347851701    16.0020848124
O       5.9237115563     2.2381929277    20.3315477070
O       5.4013707099     3.5866840332    18.0092156068
O       5.4214546792     3.5939745830    22.7966551958
C       5.4527212632     3.6013777362    20.3890240282
C       5.9165770939     4.3357889457    19.1278485757
C       5.9170648570     4.3026681555    21.6545531961
H       4.3405691632     3.5223926900    20.3744432264
H       7.0219932788     4.3479416626    19.0742846878
H       5.5323670055     5.3573201177    19.0547096200
H       5.5712742658     5.3559018940    21.6612132653
H       7.0323227364     4.2949443376    21.6575087515
H       6.8961330448     2.3081206727    20.3537027794
H       5.7751610909     2.6720711065    18.0491154239
H       5.7739259627     4.0744908147    23.5641817193
