50
Step 1 | ATOMIC_POSITIONS (angstrom) | Cartesian Angstrom
Ni      0.0000000000     0.0000000000    10.0000000187
Ni      1.2286496544     2.1280836261    10.0000000187
Ni      2.4572993456     4.2561673160    10.0000000187
Ni      2.4572993088     0.0000000000    10.0000000187
Ni      3.6859489631     2.1280836261    10.0000000187
Ni      4.9145986544     4.2561673160    10.0000000187
Ni      4.9145986912     0.0000000000    10.0000000187
Ni      6.1432483456     2.1280836261    10.0000000187
Ni      7.3718980369     4.2561673160    10.0000000187
Ni      1.6381995392     1.4187224174    12.0063764263
Ni      2.8668492304     3.5468061073    12.0063764263
Ni      4.0954988848     5.6748897334    12.0063764263
Ni      4.0954988479     1.4187224174    12.0063764263
Ni      5.3241485392     3.5468061073    12.0063764263
Ni      6.5527981936     5.6748897334    12.0063764263
Ni      6.5527982304     1.4187224174    12.0063764263
Ni      7.7814479217     3.5468061073    12.0063764263
Ni      9.0100975760     5.6748897334    12.0063764263
Ni      2.2516038664     0.3562485209    14.0176456028
Ni      3.4802476365     2.4843745586    14.0183791162
Ni      4.7089381109     4.6123818264    14.0169952596
Ni      4.7088899085     0.3562448836    14.0174492137
Ni      5.9375765867     2.4843175622    14.0172270338
Ni      7.1661917015     4.6124553567    14.0183791162
Ni      7.1661864210     0.3563029066    14.0178601745
Ni      8.3948849266     2.4843550995    14.0174492137
Ni      9.6235247977     4.6124290550    14.0176456028
Ni      0.4109712776    -0.7121190345    16.0096553150
Ni      1.6409251942     1.4128895618    16.0174841790
Ni      2.8645414319     3.5423351713    16.0121733841
Ni      2.8723464924    -0.7080751830    16.0099368042
Ni      4.0978296220     1.4064366725    16.0123717242
Ni      5.3295443344     3.5487359407    16.0155494164
Ni      5.3275116047    -0.7147088426    16.0169666196
Ni      6.5579097907     1.4095008227    16.0091914367
Ni      7.7917010839     3.5384478282    16.0107443738
O       5.9209905277     2.2556566769    20.3422234328
O       5.4271575456     3.6088035985    17.9830735592
O       5.4333751741     3.6022636388    22.7897437136
C       5.4432365640     3.6045931054    20.3775733760
C       5.9098899700     4.3270357925    19.1204409655
C       5.9154458098     4.2996234644    21.6401476370
H       4.3279926103     3.5208642594    20.3740848587
H       7.0145331422     4.3393222168    19.0672442926
H       5.5380835212     5.3446078055    19.0644758194
H       5.5715908349     5.3392574120    21.6725607886
H       7.0247896851     4.2874013116    21.6727056372
H       6.9013932854     2.3140521455    20.3507635317
H       5.7775422441     2.6882913787    18.0357748248
H       5.7776613923     4.0789373152    23.5620497052
50
Step 2 | ATOMIC_POSITIONS (angstrom) | Cartesian Angstrom
Ni      0.0000000000     0.0000000000    10.0000000187
Ni      1.2286496544     2.1280836261    10.0000000187
Ni      2.4572993456     4.2561673160    10.0000000187
Ni      2.4572993088     0.0000000000    10.0000000187
Ni      3.6859489631     2.1280836261    10.0000000187
Ni      4.9145986544     4.2561673160    10.0000000187
Ni      4.9145986912     0.0000000000    10.0000000187
Ni      6.1432483456     2.1280836261    10.0000000187
Ni      7.3718980369     4.2561673160    10.0000000187
Ni      1.6381995392     1.4187224174    12.0063764263
Ni      2.8668492304     3.5468061073    12.0063764263
Ni      4.0954988848     5.6748897334    12.0063764263
Ni      4.0954988479     1.4187224174    12.0063764263
Ni      5.3241485392     3.5468061073    12.0063764263
Ni      6.5527981936     5.6748897334    12.0063764263
Ni      6.5527982304     1.4187224174    12.0063764263
Ni      7.7814479217     3.5468061073    12.0063764263
Ni      9.0100975760     5.6748897334    12.0063764263
Ni      2.2516038664     0.3562485209    14.0176456028
Ni      3.4802476365     2.4843745586    14.0183791162
Ni      4.7089381109     4.6123818264    14.0169952596
Ni      4.7088899085     0.3562448836    14.0174492137
Ni      5.9375765867     2.4843175622    14.0172270338
Ni      7.1661917015     4.6124553567    14.0183791162
Ni      7.1661864210     0.3563029066    14.0178601745
Ni      8.3948849266     2.4843550995    14.0174492137
Ni      9.6235247977     4.6124290550    14.0176456028
Ni      0.4055420046    -0.7037526281    15.9999941020
Ni      1.6395700974     1.4131001834    16.0246624351
Ni      2.8532590174     3.5439029648    16.0061570179
Ni      2.8777040745    -0.6938178433    15.9991949961
Ni      4.0946127306     1.3947861987    16.0070108572
Ni      5.3348196345     3.5663067340    16.0215076830
Ni      5.3277285403    -0.7133442447    16.0229967445
Ni      6.5617904316     1.4017050259    15.9979648241
Ni      7.8053115341     3.5347851701    16.0020848124
O       5.9237115563     2.2381929277    20.3315477070
O       5.4013707099     3.5866840332    18.0092156068
O       5.4214546792     3.5939745830    22.7966551958
C       5.4527212632     3.6013777362    20.3890240282
C       5.9165770939     4.3357889457    19.1278485757
C       5.9170648570     4.3026681555    21.6545531961
H       4.3405691632     3.5223926900    20.3744432264
H       7.0219932788     4.3479416626    19.0742846878
H       5.5323670055     5.3573201177    19.0547096200
H       5.5712742658     5.3559018940    21.6612132653
H       7.0323227364     4.2949443376    21.6575087515
H       6.8961330448     2.3081206727    20.3537027794
H       5.7751610909     2.6720711065    18.0491154239
H       5.7739259627     4.0744908147    23.5641817193
50
Step 3 | ATOMIC_POSITIONS (angstrom) | Cartesian Angstrom
Ni      0.0000000000     0.0000000000    10.0000000187
Ni      1.2286496544     2.1280836261    10.0000000187
Ni      2.4572993456     4.2561673160    10.0000000187
Ni      2.4572993088     0.0000000000    10.0000000187
Ni      3.6859489631     2.1280836261    10.0000000187
Ni      4.9145986544     4.2561673160    10.0000000187
Ni      4.9145986912     0.0000000000    10.0000000187
Ni      6.1432483456     2.1280836261    10.0000000187
Ni      7.3718980369     4.2561673160    10.0000000187
Ni      1.6381995392     1.4187224174    12.0063764263
Ni      2.8668492304     3.5468061073    12.0063764263
Ni      4.0954988848     5.6748897334    12.0063764263
Ni      4.0954988479     1.4187224174    12.0063764263
Ni      5.3241485392     3.5468061073    12.0063764263
Ni      6.5527981936     5.6748897334    12.0063764263
Ni      6.5527982304     1.4187224174    12.0063764263
Ni      7.7814479217     3.5468061073    12.0063764263
Ni      9.0100975760     5.6748897334    12.0063764263
Ni      2.2516038664     0.3562485209    14.0176456028
Ni      3.4802476365     2.4843745586    14.0183791162
Ni      4.7089381109     4.6123818264    14.0169952596
Ni      4.7088899085     0.3562448836    14.0174492137
Ni      5.9375765867     2.4843175622    14.0172270338
Ni      7.1661917015     4.6124553567    14.0183791162
Ni      7.1661864210     0.3563029066    14.0178601745
Ni      8.3948849266     2.4843550995    14.0174492137
Ni      9.6235247977     4.6124290550    14.0176456028
Ni      0.4004216710    -0.6970347801    15.9898041203
Ni      1.6383617491     1.4145204249    16.0339352299
Ni      2.8422734748     3.5452031804    15.9996572276
Ni      2.8832916199    -0.6788781345    15.9883634942
Ni      4.0922223368     1.3829882729    16.0010525644
Ni      5.3420824311     3.5870668326    16.0334434640
Ni      5.3281054536    -0.7108543838    16.0310427074
Ni      6.5643895305     1.3953892267    15.9858346200
Ni      7.8190971135     3.5297540148    15.9933459111
O       5.9205377434     2.2336490618    20.3221291234
O       5.3773357794     3.5632260994    18.0375033624
O       5.4157384739     3.5957063446    22.8012356448
C       5.4572262002     3.5992112485    20.3974193302
C       5.9183565644     4.3360770782    19.1355741183
C       5.9202230151     4.3037078009    21.6625804436
H       4.3574769674     3.5239141054    20.3760036537
H       7.0279105123     4.3586853265    19.0788994796
H       5.5279788467     5.3649162692    19.0442899292
H       5.5733418339     5.3634280852    21.6506816912
H       7.0349015094     4.3039265394    21.6467393536
H       6.8988907941     2.2972580957    20.3574940741
H       5.7702116879     2.6583016639    18.0675574878
H       5.7674569282     4.0663760430    23.5695889615
50
Step 4 | ATOMIC_POSITIONS (angstrom) | Cartesian Angstrom
Ni      0.0000000000     0.0000000000    10.0000000187
Ni      1.2286496544     2.1280836261    10.0000000187
Ni      2.4572993456     4.2561673160    10.0000000187
Ni      2.4572993088     0.0000000000    10.0000000187
Ni      3.6859489631     2.1280836261    10.0000000187
Ni      4.9145986544     4.2561673160    10.0000000187
Ni      4.9145986912     0.0000000000    10.0000000187
Ni      6.1432483456     2.1280836261    10.0000000187
Ni      7.3718980369     4.2561673160    10.0000000187
Ni      1.6381995392     1.4187224174    12.0063764263
Ni      2.8668492304     3.5468061073    12.0063764263
Ni      4.0954988848     5.6748897334    12.0063764263
Ni      4.0954988479     1.4187224174    12.0063764263
Ni      5.3241485392     3.5468061073    12.0063764263
Ni      6.5527981936     5.6748897334    12.0063764263
Ni      6.5527982304     1.4187224174    12.0063764263
Ni      7.7814479217     3.5468061073    12.0063764263
Ni      9.0100975760     5.6748897334    12.0063764263
Ni      2.2516038664     0.3562485209    14.0176456028
Ni      3.4802476365     2.4843745586    14.0183791162
Ni      4.7089381109     4.6123818264    14.0169952596
Ni      4.7088899085     0.3562448836    14.0174492137
Ni      5.9375765867     2.4843175622    14.0172270338
Ni      7.1661917015     4.6124553567    14.0183791162
Ni      7.1661864210     0.3563029066    14.0178601745
Ni      8.3948849266     2.4843550995    14.0174492137
Ni      9.6235247977     4.6124290550    14.0176456028
Ni      0.3967959625    -0.6943069969    15.9808816524
Ni      1.6377191033     1.4174960471    16.0443103282
Ni      2.8341499932     3.5459827473    15.9937015620
Ni      2.8879005734    -0.6659992783    15.9795884148
Ni      4.0915312701     1.3733344311    15.9953715465
Ni      5.3507262673     3.6087053329    16.0508661669
Ni      5.3287832847    -0.7071497756    16.0403109995
Ni      6.5646020783     1.3924565580    15.9748157891
Ni      7.8301364367     3.5236132427    15.9862002056
O       5.9275420980     2.2371699361    20.3163462167
O       5.3577417269     3.5439207238    18.0607145177
O       5.4133145002     3.6014833036    22.7982316048
C       5.4628965460     3.6014443328    20.4034530447
C       5.9172827241     4.3343084438    19.1409507615
C       5.9235138296     4.3047036684    21.6638330387
H       4.3691626078     3.5252294539    20.3789565030
H       7.0276750576     4.3688779655    19.0803518352
H       5.5258830061     5.3627002298    19.0350241536
H       5.5771289380     5.3621405119    21.6421242689
H       7.0344889179     4.3127602925    21.6419228633
H       6.8950958787     2.2824371832    20.3615043810
H       5.7638292048     2.6457222437    18.0897504838
H       5.7620191927     4.0597080888    23.5824812824
50
Step 5 | ATOMIC_POSITIONS (angstrom) | Cartesian Angstrom
Ni      0.0000000000     0.0000000000    10.0000000187
Ni      1.2286496544     2.1280836261    10.0000000187
Ni      2.4572993456     4.2561673160    10.0000000187
Ni      2.4572993088     0.0000000000    10.0000000187
Ni      3.6859489631     2.1280836261    10.0000000187
Ni      4.9145986544     4.2561673160    10.0000000187
Ni      4.9145986912     0.0000000000    10.0000000187
Ni      6.1432483456     2.1280836261    10.0000000187
Ni      7.3718980369     4.2561673160    10.0000000187
Ni      1.6381995392     1.4187224174    12.0063764263
Ni      2.8668492304     3.5468061073    12.0063764263
Ni      4.0954988848     5.6748897334    12.0063764263
Ni      4.0954988479     1.4187224174    12.0063764263
Ni      5.3241485392     3.5468061073    12.0063764263
Ni      6.5527981936     5.6748897334    12.0063764263
Ni      6.5527982304     1.4187224174    12.0063764263
Ni      7.7814479217     3.5468061073    12.0063764263
Ni      9.0100975760     5.6748897334    12.0063764263
Ni      2.2516038664     0.3562485209    14.0176456028
Ni      3.4802476365     2.4843745586    14.0183791162
Ni      4.7089381109     4.6123818264    14.0169952596
Ni      4.7088899085     0.3562448836    14.0174492137
Ni      5.9375765867     2.4843175622    14.0172270338
Ni      7.1661917015     4.6124553567    14.0183791162
Ni      7.1661864210     0.3563029066    14.0178601745
Ni      8.3948849266     2.4843550995    14.0174492137
Ni      9.6235247977     4.6124290550    14.0176456028
Ni      0.3948612442    -0.6968652461    15.9731838431
Ni      1.6379642945     1.4227938061    16.0565492130
Ni      2.8296335721     3.5463215288    15.9881085655
Ni      2.8912670816    -0.6551235875    15.9731204023
Ni      4.0930752485     1.3660002112    15.9897562175
Ni      5.3619056889     3.6330366876    16.0757202963
Ni      5.3301180807    -0.7015095013    16.0515257469
Ni      6.5617053274     1.3938321997    15.9648661392
Ni      7.8377918375     3.5155035885    15.9808556230
O       5.9274013332     2.2461829916    20.3136700613
O       5.3429500762     3.5264036124    18.0786587509
O       5.4159732812     3.6139975608    22.7983750596
C       5.4679002739     3.6059381172    20.4059975172
C       5.9154702115     4.3287490780    19.1430518197
C       5.9300476831     4.3063682384    21.6609341335
H       4.3776359161     3.5261648108    20.3840986020
H       7.0203217954     4.3784035949    19.0777045911
H       5.5238018282     5.3532602648    19.0262634728
H       5.5815906844     5.3557923042    21.6345267883
H       7.0329285032     4.3220780682    21.6431073140
H       6.9015664779     2.2644170986    20.3672327515
H       5.7542670664     2.6344224775    18.1181469748
H       5.7538710149     4.0496660785    23.5943088104
50
Step 6 | ATOMIC_POSITIONS (angstrom) | Cartesian Angstrom
Ni      0.0000000000     0.0000000000    10.0000000187
Ni      1.2286496544     2.1280836261    10.0000000187
Ni      2.4572993456     4.2561673160    10.0000000187
Ni      2.4572993088     0.0000000000    10.0000000187
Ni      3.6859489631     2.1280836261    10.0000000187
Ni      4.9145986544     4.2561673160    10.0000000187
Ni      4.9145986912     0.0000000000    10.0000000187
Ni      6.1432483456     2.1280836261    10.0000000187
Ni      7.3718980369     4.2561673160    10.0000000187
Ni      1.6381995392     1.4187224174    12.0063764263
Ni      2.8668492304     3.5468061073    12.0063764263
Ni      4.0954988848     5.6748897334    12.0063764263
Ni      4.0954988479     1.4187224174    12.0063764263
Ni      5.3241485392     3.5468061073    12.0063764263
Ni      6.5527981936     5.6748897334    12.0063764263
Ni      6.5527982304     1.4187224174    12.0063764263
Ni      7.7814479217     3.5468061073    12.0063764263
Ni      9.0100975760     5.6748897334    12.0063764263
Ni      2.2516038664     0.3562485209    14.0176456028
Ni      3.4802476365     2.4843745586    14.0183791162
Ni      4.7089381109     4.6123818264    14.0169952596
Ni      4.7088899085     0.3562448836    14.0174492137
Ni      5.9375765867     2.4843175622    14.0172270338
Ni      7.1661917015     4.6124553567    14.0183791162
Ni      7.1661864210     0.3563029066    14.0178601745
Ni      8.3948849266     2.4843550995    14.0174492137
Ni      9.6235247977     4.6124290550    14.0176456028
Ni      0.3953994325    -0.7055293632    15.9695263396
Ni      1.6396398819     1.4296726752    16.0671923721
Ni      2.8313403163     3.5463120360    15.9846814330
Ni      2.8918686706    -0.6498439372    15.9717602733
Ni      4.0969104378     1.3637767455    15.9859504834
Ni      5.3735121537     3.6537252273    16.1017499931
Ni      5.3322821940    -0.6948261252    16.0615337376
Ni      6.5558456564     1.4002544460    15.9596067728
Ni      7.8383961971     3.5070910439    15.9796130364
O       5.9324509791     2.2531899689    20.3159577853
O       5.3379937113     3.5180504817    18.0845031185
O       5.4187452804     3.6233395572    22.7941978271
C       5.4718295573     3.6107352141    20.4058582992
C       5.9087190360     4.3228104233    19.1403065866
C       5.9349684110     4.3087997886    21.6591039600
H       4.3792680323     3.5272166701    20.3907230537
H       7.0112891307     4.3832888660    19.0700421872
H       5.5207120823     5.3399184337    19.0201343734
H       5.5848039995     5.3499584481    21.6294710962
H       7.0359437039     4.3291840805    21.6503403598
H       6.9051857690     2.2484287226    20.3731615841
H       5.7438594379     2.6240489533    18.1464622398
H       5.7490852051     4.0441008387    23.6071147863
