50
Step 1 | ATOMIC_POSITIONS (angstrom) | Cartesian Angstrom
Ni      0.0000000000     0.0000000000    10.0000000187
Ni      1.2286496544     2.1280836261    10.0000000187
Ni      2.4572993456     4.2561673160    10.0000000187
Ni      2.4572993088     0.0000000000    10.0000000187
Ni      3.6859489631     2.1280836261    10.0000000187
Ni      4.9145986544     4.2561673160    10.0000000187
Ni      4.9145986912     0.0000000000    10.0000000187
Ni      6.1432483456     2.1280836261    10.0000000187
Ni      7.3718980369     4.2561673160    10.0000000187
Ni      1.6381995392     1.4187224174    12.0063764263
Ni      2.8668492304     3.5468061073    12.0063764263
Ni      4.0954988848     5.6748897334    12.0063764263
Ni      4.0954988479     1.4187224174    12.0063764263
Ni      5.3241485392     3.5468061073    12.0063764263
Ni      6.5527981936     5.6748897334    12.0063764263
Ni      6.5527982304     1.4187224174    12.0063764263
Ni      7.7814479217     3.5468061073    12.0063764263
Ni      9.0100975760     5.6748897334    12.0063764263
Ni      2.2517163724     0.3560707130    14.0168857868
Ni      3.4809601720     2.4845258091    14.0173521252
Ni      4.7086658287     4.6127561733    14.0153320283
Ni      4.7087755601     0.3559559945    14.0175520105
Ni      5.9370715186     2.4852251559    14.0186093037
Ni      7.1660256884     4.6119401459    14.0162063883
Ni      7.1666915517     0.3553456432    14.0202658734
Ni      8.3949625085     2.4843830663    14.0171969233
Ni      9.6233708158     4.6120623047    14.0175849578
Ni      0.4109712776    -0.7121190345    16.0096553150
Ni      1.6409251942     1.4128895618    16.0174841790
Ni      2.8645414319     3.5423351713    16.0121733841
Ni      2.8723464924    -0.7080751830    16.0099368042
Ni      4.0978296220     1.4064366725    16.0123717242
Ni      5.3295443344     3.5487359407    16.0155494164
Ni      5.3275116047    -0.7147088426    16.0169666196
Ni      6.5579097907     1.4095008227    16.0091914367
Ni      7.7917010839     3.5384478282    16.0107443738
O       5.9209905277     2.2556566769    20.3422234328
O       5.4271575456     3.6088035985    17.9830735592
O       5.4333751741     3.6022636388    22.7897437136
C       5.4432365640     3.6045931054    20.3775733760
C       5.9098899700     4.3270357925    19.1204409655
C       5.9154458098     4.2996234644    21.6401476370
H       4.3279926103     3.5208642594    20.3740848587
H       7.0145331422     4.3393222168    19.0672442926
H       5.5380835212     5.3446078055    19.0644758194
H       5.5715908349     5.3392574120    21.6725607886
H       7.0247896851     4.2874013116    21.6727056372
H       6.9013932854     2.3140521455    20.3507635317
H       5.7775422441     2.6882913787    18.0357748248
H       5.7776613923     4.0789373152    23.5620497052
50
Step 2 | ATOMIC_POSITIONS (angstrom) | Cartesian Angstrom
Ni      0.0000000000     0.0000000000    10.0000000187
Ni      1.2286496544     2.1280836261    10.0000000187
Ni      2.4572993456     4.2561673160    10.0000000187
Ni      2.4572993088     0.0000000000    10.0000000187
Ni      3.6859489631     2.1280836261    10.0000000187
Ni      4.9145986544     4.2561673160    10.0000000187
Ni      4.9145986912     0.0000000000    10.0000000187
Ni      6.1432483456     2.1280836261    10.0000000187
Ni      7.3718980369     4.2561673160    10.0000000187
Ni      1.6381995392     1.4187224174    12.0063764263
Ni      2.8668492304     3.5468061073    12.0063764263
Ni      4.0954988848     5.6748897334    12.0063764263
Ni      4.0954988479     1.4187224174    12.0063764263
Ni      5.3241485392     3.5468061073    12.0063764263
Ni      6.5527981936     5.6748897334    12.0063764263
Ni      6.5527982304     1.4187224174    12.0063764263
Ni      7.7814479217     3.5468061073    12.0063764263
Ni      9.0100975760     5.6748897334    12.0063764263
Ni      2.2517164481     0.3562069634    14.0147052066
Ni      3.4827126419     2.4848376919    14.0152301382
Ni      4.7080871863     4.6133343172    14.0116163093
Ni      4.7087296915     0.3552067197    14.0174181679
Ni      5.9356671580     2.4875749504    14.0220800922
Ni      7.1656050973     4.6106332421    14.0113672688
Ni      7.1677366051     0.3532967880    14.0241859111
Ni      8.3952540672     2.4840275994    14.0160573780
Ni      9.6228224253     4.6115071060    14.0172080988
Ni      0.4056404244    -0.7038979262    16.0000932994
Ni      1.6396046973     1.4130679098    16.0245496462
Ni      2.8531767980     3.5438382819    16.0060497056
Ni      2.8778225168    -0.6937920301    15.9988940244
Ni      4.0945191259     1.3947140391    16.0068913694
Ni      5.3347894754     3.5665773939    16.0216220269
Ni      5.3277075353    -0.7133782531    16.0229959571
Ni      6.5618072071     1.4017020996    15.9980014025
Ni      7.8053918344     3.5348729559    16.0018338567
O       5.9237045431     2.2380441208    20.3314699487
O       5.4011636833     3.5865821302    18.0093862571
O       5.4213665130     3.5939068154    22.7967122461
C       5.4528262866     3.6013601179    20.3891101871
C       5.9166001466     4.3358738069    19.1279128880
C       5.9170578349     4.3026955870    21.6546534617
H       4.3406369494     3.5224006434    20.3744465628
H       7.0220560083     4.3479993527    19.0743329980
H       5.5323331089     5.3574002435    19.0546435271
H       5.5712736035     5.3560203101    21.6611343092
H       7.0323883703     4.2949958562    21.6574006560
H       6.8961011532     2.3080832553    20.3537238935
H       5.7751479303     2.6719498245    18.0491990827
H       5.7738992794     4.0744583610    23.5641934657
50
Step 3 | ATOMIC_POSITIONS (angstrom) | Cartesian Angstrom
Ni      0.0000000000     0.0000000000    10.0000000187
Ni      1.2286496544     2.1280836261    10.0000000187
Ni      2.4572993456     4.2561673160    10.0000000187
Ni      2.4572993088     0.0000000000    10.0000000187
Ni      3.6859489631     2.1280836261    10.0000000187
Ni      4.9145986544     4.2561673160    10.0000000187
Ni      4.9145986912     0.0000000000    10.0000000187
Ni      6.1432483456     2.1280836261    10.0000000187
Ni      7.3718980369     4.2561673160    10.0000000187
Ni      1.6381995392     1.4187224174    12.0063764263
Ni      2.8668492304     3.5468061073    12.0063764263
Ni      4.0954988848     5.6748897334    12.0063764263
Ni      4.0954988479     1.4187224174    12.0063764263
Ni      5.3241485392     3.5468061073    12.0063764263
Ni      6.5527981936     5.6748897334    12.0063764263
Ni      6.5527982304     1.4187224174    12.0063764263
Ni      7.7814479217     3.5468061073    12.0063764263
Ni      9.0100975760     5.6748897334    12.0063764263
Ni      2.2510212695     0.3577858612    14.0110637675
Ni      3.4850479189     2.4851368803    14.0133589119
Ni      4.7076431641     4.6130527448    14.0079770231
Ni      4.7092338886     0.3541222127    14.0162356134
Ni      5.9333634069     2.4910644686    14.0268366879
Ni      7.1649767574     4.6088304706    14.0062911298
Ni      7.1685802517     0.3514211024    14.0246844729
Ni      8.3958776466     2.4825435081    14.0132605226
Ni      9.6216733388     4.6116356028    14.0162145016
Ni      0.4010062109    -0.6979338086    15.9904014992
Ni      1.6385416442     1.4144067197    16.0332188572
Ni      2.8421879328     3.5448668745    15.9992218519
Ni      2.8836851229    -0.6790755041    15.9870367273
Ni      4.0919336757     1.3829290394    16.0005432797
Ni      5.3418208251     3.5879424269    16.0338832906
Ni      5.3279951547    -0.7110111980    16.0308945880
Ni      6.5643635753     1.3955640413    15.9861319937
Ni      7.8191279859     3.5301519667    15.9922268272
O       5.9205167634     2.2334075892    20.3219775912
O       5.3769393959     3.5630984407    18.0378224258
O       5.4155859902     3.5955974645    22.8013375412
C       5.4574271297     3.5991714320    20.3975720966
C       5.9183795472     4.3362459700    19.1357115258
C       5.9202019347     4.3037565860    21.6627501643
H       4.3575991762     3.5239280357    20.3760087888
H       7.0280195458     4.3587921074    19.0789749487
H       5.5279245752     5.3650599087    19.0441719912
H       5.5733438674     5.3636347669    21.6505322759
H       7.0350203245     4.3040230915    21.6465398102
H       6.8988474425     2.2971814605    20.3575271334
H       5.7701613734     2.6581255500    18.0676802881
H       5.7674031816     4.0663105282    23.5696101473
50
Step 4 | ATOMIC_POSITIONS (angstrom) | Cartesian Angstrom
Ni      0.0000000000     0.0000000000    10.0000000187
Ni      1.2286496544     2.1280836261    10.0000000187
Ni      2.4572993456     4.2561673160    10.0000000187
Ni      2.4572993088     0.0000000000    10.0000000187
Ni      3.6859489631     2.1280836261    10.0000000187
Ni      4.9145986544     4.2561673160    10.0000000187
Ni      4.9145986912     0.0000000000    10.0000000187
Ni      6.1432483456     2.1280836261    10.0000000187
Ni      7.3718980369     4.2561673160    10.0000000187
Ni      1.6381995392     1.4187224174    12.0063764263
Ni      2.8668492304     3.5468061073    12.0063764263
Ni      4.0954988848     5.6748897334    12.0063764263
Ni      4.0954988479     1.4187224174    12.0063764263
Ni      5.3241485392     3.5468061073    12.0063764263
Ni      6.5527981936     5.6748897334    12.0063764263
Ni      6.5527982304     1.4187224174    12.0063764263
Ni      7.7814479217     3.5468061073    12.0063764263
Ni      9.0100975760     5.6748897334    12.0063764263
Ni      2.2493068540     0.3613010426    14.0060490696
Ni      3.4879084098     2.4854047283    14.0120394626
Ni      4.7075768721     4.6113485343    14.0051779304
Ni      4.7105704564     0.3524440643    14.0138150158
Ni      5.9298023036     2.4962378344    14.0332660178
Ni      7.1641153540     4.6065640358    14.0015785438
Ni      7.1690562514     0.3499178217    14.0207159221
Ni      8.3969306535     2.4794949690    14.0085279519
Ni      9.6196433213     4.6129245120    14.0147801921
Ni      0.3977719920    -0.6959360682    15.9813651110
Ni      1.6379901090     1.4173983529    16.0431358644
Ni      2.8331953115     3.5452861270    15.9919813294
Ni      2.8891974250    -0.6653150225    15.9750524286
Ni      4.0908091639     1.3722553111    15.9935002075
Ni      5.3506094423     3.6124876950    16.0532090797
Ni      5.3285796670    -0.7072188864    16.0405386073
Ni      6.5648549328     1.3921852317    15.9743818442
Ni      7.8312209311     3.5239761747    15.9823936593
O       5.9276119247     2.2365908174    20.3153974937
O       5.3551392443     3.5419216785    18.0635409163
O       5.4126481317     3.6015364452    22.7985515796
C       5.4636931579     3.6013413558    20.4043715509
C       5.9173981783     4.3346255413    19.1417912564
C       5.9237488527     4.3048934990    21.6646016844
H       4.3706223489     3.5253741407    20.3791463419
H       7.0281537386     4.3699547858    19.0807775765
H       5.5254929034     5.3633009463    19.0339911813
H       5.5773582811     5.3628786198    21.6410285825
H       7.0348318277     4.3136866864    21.6408390328
H       6.8950065985     2.2812557251    20.3618853339
H       5.7632379030     2.6443412602    18.0915910509
H       5.7614194837     4.0589654842    23.5832282935
50
Step 5 | ATOMIC_POSITIONS (angstrom) | Cartesian Angstrom
Ni      0.0000000000     0.0000000000    10.0000000187
Ni      1.2286496544     2.1280836261    10.0000000187
Ni      2.4572993456     4.2561673160    10.0000000187
Ni      2.4572993088     0.0000000000    10.0000000187
Ni      3.6859489631     2.1280836261    10.0000000187
Ni      4.9145986544     4.2561673160    10.0000000187
Ni      4.9145986912     0.0000000000    10.0000000187
Ni      6.1432483456     2.1280836261    10.0000000187
Ni      7.3718980369     4.2561673160    10.0000000187
Ni      1.6381995392     1.4187224174    12.0063764263
Ni      2.8668492304     3.5468061073    12.0063764263
Ni      4.0954988848     5.6748897334    12.0063764263
Ni      4.0954988479     1.4187224174    12.0063764263
Ni      5.3241485392     3.5468061073    12.0063764263
Ni      6.5527981936     5.6748897334    12.0063764263
Ni      6.5527982304     1.4187224174    12.0063764263
Ni      7.7814479217     3.5468061073    12.0063764263
Ni      9.0100975760     5.6748897334    12.0063764263
Ni      2.2459893919     0.3677062804    13.9994457224
Ni      3.4915108023     2.4856371635    14.0114114841
Ni      4.7082197313     4.6072570204    14.0039417534
Ni      4.7132731834     0.3496331040    14.0097345583
Ni      5.9240526417     2.5045253193    14.0426299956
Ni      7.1628832977     4.6036177480    13.9974574418
Ni      7.1690260577     0.3487640424    14.0111423493
Ni      8.3986013546     2.4740412028    14.0010938162
Ni      9.6161156734     4.6161600071    14.0131646772
Ni      0.3962256235    -0.6995908596    15.9726959419
Ni      1.6382514490     1.4230768028    16.0548337022
Ni      2.8273648314     3.5451088622    15.9838034791
Ni      2.8939284904    -0.6526680803    15.9623218608
Ni      4.0920014494     1.3629628210    15.9851197935
Ni      5.3623937856     3.6424908215    16.0826902194
Ni      5.3298859177    -0.7009791079    16.0527493808
Ni      6.5626084081     1.3923579530    15.9623994679
Ni      7.8406915555     3.5151061964    15.9717392909
O       5.9276476873     2.2458618147    20.3116100917
O       5.3367736599     3.5210924593    18.0857683376
O       5.4149086358     3.6151549592    22.7989688180
C       5.4698426082     3.6061119541    20.4080008362
C       5.9155344208     4.3288872418    19.1448819656
C       5.9310539443     4.3068755725    21.6621725661
H       4.3811717519     3.5265220899    20.3848938312
H       7.0206601161     4.3812865138    19.0783524765
H       5.5228892750     5.3536980081    19.0235841462
H       5.5824139665     5.3566561712    21.6317936193
H       7.0334180426     4.3246502182    21.6410976200
H       6.9018310495     2.2606200119    20.3684478495
H       5.7522812914     2.6309316940    18.1239668907
H       5.7520391559     4.0474036338    23.5967746167
50
Step 6 | ATOMIC_POSITIONS (angstrom) | Cartesian Angstrom
Ni      0.0000000000     0.0000000000    10.0000000187
Ni      1.2286496544     2.1280836261    10.0000000187
Ni      2.4572993456     4.2561673160    10.0000000187
Ni      2.4572993088     0.0000000000    10.0000000187
Ni      3.6859489631     2.1280836261    10.0000000187
Ni      4.9145986544     4.2561673160    10.0000000187
Ni      4.9145986912     0.0000000000    10.0000000187
Ni      6.1432483456     2.1280836261    10.0000000187
Ni      7.3718980369     4.2561673160    10.0000000187
Ni      1.6381995392     1.4187224174    12.0063764263
Ni      2.8668492304     3.5468061073    12.0063764263
Ni      4.0954988848     5.6748897334    12.0063764263
Ni      4.0954988479     1.4187224174    12.0063764263
Ni      5.3241485392     3.5468061073    12.0063764263
Ni      6.5527981936     5.6748897334    12.0063764263
Ni      6.5527982304     1.4187224174    12.0063764263
Ni      7.7814479217     3.5468061073    12.0063764263
Ni      9.0100975760     5.6748897334    12.0063764263
Ni      2.2416301812     0.3756143617    13.9940132883
Ni      3.4945058679     2.4856511298    14.0117622605
Ni      4.7098120967     4.6010860437    14.0058684167
Ni      4.7170039178     0.3460226147    14.0051546565
Ni      5.9171526985     2.5146354781    14.0527381875
Ni      7.1616517947     4.6009550626    13.9959271190
Ni      7.1683308720     0.3482573279    13.9990565080
Ni      8.4003785211     2.4673413305    13.9931042206
Ni      9.6116009698     4.6212005958    14.0126865239
Ni      0.3969719439    -0.7092647194    15.9674604414
Ni      1.6397860199     1.4306100740    16.0640783495
Ni      2.8287771958     3.5445978334    15.9773441781
Ni      2.8953408125    -0.6462451933    15.9532069037
Ni      4.0961033302     1.3592291346    15.9779530355
Ni      5.3742714188     3.6684182341    16.1144982168
Ni      5.3320993108    -0.6933541040    16.0635435500
Ni      6.5579933563     1.3966858205    15.9546697084
Ni      7.8422282403     3.5053917470    15.9637739559
O       5.9336860623     2.2536061008    20.3136328561
O       5.3298953912     3.5110368037    18.0941702837
O       5.4177111270     3.6257787524    22.7944168841
C       5.4746954428     3.6114522676    20.4084143066
C       5.9081570531     4.3225104935    19.1424623407
C       5.9366598931     4.3096720945    21.6604141867
H       4.3837608646     3.5277488392    20.3923677313
H       7.0107677598     4.3873691239    19.0702139439
H       5.5193781799     5.3391511343    19.0163323660
H       5.5861850048     5.3502998615    21.6255980789
H       7.0367535533     4.3331110761    21.6484998539
H       6.9054770908     2.2420784451    20.3752227931
H       5.7403057872     2.6189493558    18.1561814624
H       5.7463378485     4.0407131454    23.6115513778
50
Step 7 | ATOMIC_POSITIONS (angstrom) | Cartesian Angstrom
Ni      0.0000000000     0.0000000000    10.0000000187
Ni      1.2286496544     2.1280836261    10.0000000187
Ni      2.4572993456     4.2561673160    10.0000000187
Ni      2.4572993088     0.0000000000    10.0000000187
Ni      3.6859489631     2.1280836261    10.0000000187
Ni      4.9145986544     4.2561673160    10.0000000187
Ni      4.9145986912     0.0000000000    10.0000000187
Ni      6.1432483456     2.1280836261    10.0000000187
Ni      7.3718980369     4.2561673160    10.0000000187
Ni      1.6381995392     1.4187224174    12.0063764263
Ni      2.8668492304     3.5468061073    12.0063764263
Ni      4.0954988848     5.6748897334    12.0063764263
Ni      4.0954988479     1.4187224174    12.0063764263
Ni      5.3241485392     3.5468061073    12.0063764263
Ni      6.5527981936     5.6748897334    12.0063764263
Ni      6.5527982304     1.4187224174    12.0063764263
Ni      7.7814479217     3.5468061073    12.0063764263
Ni      9.0100975760     5.6748897334    12.0063764263
Ni      2.2361387131     0.3849741400    13.9904708321
Ni      3.4967386212     2.4852730886    14.0122885231
Ni      4.7124634565     4.5925364170    14.0109489759
Ni      4.7219454551     0.3412797931    14.0002997364
Ni      5.9085167897     2.5276577010    14.0644755365
Ni      7.1604473348     4.5984816995    13.9963121473
Ni      7.1671357014     0.3476920054    13.9868337134
Ni      8.4020369700     2.4594558105    13.9847568722
Ni      9.6056795360     4.6283614873    14.0142983609
Ni      0.3981442847    -0.7232136809    15.9639661751
Ni      1.6430283778     1.4407473447    16.0714703036
Ni      2.8361715488     3.5444002254    15.9715490927
Ni      2.8941681284    -0.6430448878    15.9458050318
Ni      4.1025824990     1.3590694240    15.9709161839
Ni      5.3879595595     3.6925353166    16.1489308115
Ni      5.3357894973    -0.6833454950    16.0736466310
Ni      6.5522767744     1.4032669991    15.9497653745
Ni      7.8375111353     3.4935113599    15.9568500032
O       5.9392626118     2.2552607891    20.3192629278
O       5.3314286212     3.5036354433    18.0925843690
O       5.4205112524     3.6337165615    22.7971841945
C       5.4798900755     3.6143036158    20.4096145047
C       5.9011814039     4.3171334557    19.1369926425
C       5.9441265130     4.3141674013    21.6592874090
H       4.3819895860     3.5288961118    20.4025298265
H       6.9985652224     4.3887846814    19.0565340259
H       5.5109069749     5.3254540763    19.0100502286
H       5.5879534989     5.3499090669    21.6208310356
H       7.0453841721     4.3403195834    21.6611271611
H       6.9102908130     2.2262019131    20.3836068137
H       5.7242685417     2.6070539851    18.1912455137
H       5.7408343874     4.0345749627    23.6187411991
50
Step 8 | ATOMIC_POSITIONS (angstrom) | Cartesian Angstrom
Ni      0.0000000000     0.0000000000    10.0000000187
Ni      1.2286496544     2.1280836261    10.0000000187
Ni      2.4572993456     4.2561673160    10.0000000187
Ni      2.4572993088     0.0000000000    10.0000000187
Ni      3.6859489631     2.1280836261    10.0000000187
Ni      4.9145986544     4.2561673160    10.0000000187
Ni      4.9145986912     0.0000000000    10.0000000187
Ni      6.1432483456     2.1280836261    10.0000000187
Ni      7.3718980369     4.2561673160    10.0000000187
Ni      1.6381995392     1.4187224174    12.0063764263
Ni      2.8668492304     3.5468061073    12.0063764263
Ni      4.0954988848     5.6748897334    12.0063764263
Ni      4.0954988479     1.4187224174    12.0063764263
Ni      5.3241485392     3.5468061073    12.0063764263
Ni      6.5527981936     5.6748897334    12.0063764263
Ni      6.5527982304     1.4187224174    12.0063764263
Ni      7.7814479217     3.5468061073    12.0063764263
Ni      9.0100975760     5.6748897334    12.0063764263
Ni      2.2311901298     0.3926227668    13.9905726818
Ni      3.4970748702     2.4842929168    14.0118084365
Ni      4.7152970588     4.5842799367    14.0175327771
Ni      4.7266084444     0.3368962781    13.9968167304
Ni      5.9005606693     2.5399950101    14.0747960041
Ni      7.1597531871     4.5969843192    13.9977850829
Ni      7.1659458415     0.3465871927    13.9801678966
Ni      8.4026486781     2.4531512895    13.9787961586
Ni      9.5999294328     4.6355330553    14.0183967961
Ni      0.3975165868    -0.7355624319    15.9624776063
Ni      1.6478385282     1.4512136582    16.0750890829
Ni      2.8461978750     3.5450678853    15.9675640953
Ni      2.8916435225    -0.6412035660    15.9411809796
Ni      4.1086478035     1.3608352536    15.9653993207
Ni      5.4007233229     3.7085181294    16.1738999317
Ni      5.3403538434    -0.6730219948    16.0805183474
Ni      6.5484924488     1.4085041095    15.9485418825
Ni      7.8294853558     3.4821366802    15.9519316683
O       5.9398168949     2.2490652837    20.3257442104
O       5.3379987066     3.4983238628    18.0882223501
O       5.4188664932     3.6328590740    22.7950629810
C       5.4836324317     3.6117777457    20.4120123444
C       5.8957846485     4.3143967569    19.1325887032
C       5.9505709857     4.3191806773    21.6640764267
H       4.3810236213     3.5296019438    20.4132506036
H       6.9909930137     4.3861086029    19.0412578675
H       5.4977813914     5.3192924846    19.0051875666
H       5.5880518550     5.3564556165    21.6180955095
H       7.0563905717     4.3450641049    21.6741905118
H       6.9162414201     2.2177934950    20.3919900149
H       5.7076686289     2.5950184986    18.2209115389
H       5.7406139598     4.0352246579    23.6243338730
50
Step 9 | ATOMIC_POSITIONS (angstrom) | Cartesian Angstrom
Ni      0.0000000000     0.0000000000    10.0000000187
Ni      1.2286496544     2.1280836261    10.0000000187
Ni      2.4572993456     4.2561673160    10.0000000187
Ni      2.4572993088     0.0000000000    10.0000000187
Ni      3.6859489631     2.1280836261    10.0000000187
Ni      4.9145986544     4.2561673160    10.0000000187
Ni      4.9145986912     0.0000000000    10.0000000187
Ni      6.1432483456     2.1280836261    10.0000000187
Ni      7.3718980369     4.2561673160    10.0000000187
Ni      1.6381995392     1.4187224174    12.0063764263
Ni      2.8668492304     3.5468061073    12.0063764263
Ni      4.0954988848     5.6748897334    12.0063764263
Ni      4.0954988479     1.4187224174    12.0063764263
Ni      5.3241485392     3.5468061073    12.0063764263
Ni      6.5527981936     5.6748897334    12.0063764263
Ni      6.5527982304     1.4187224174    12.0063764263
Ni      7.7814479217     3.5468061073    12.0063764263
Ni      9.0100975760     5.6748897334    12.0063764263
Ni      2.2277331444     0.3966982167    13.9944213479
Ni      3.4949465183     2.4825923443    14.0095877030
Ni      4.7174522187     4.5784370286    14.0240547893
Ni      4.7299323526     0.3341310044    13.9952586082
Ni      5.8950357813     2.5486994209    14.0818799560
Ni      7.1598198176     4.5968791491    13.9995361747
Ni      7.1651080152     0.3448073386    13.9810187127
Ni      8.4016704596     2.4500340321    13.9762454291
Ni      9.5955071072     4.6410712262    14.0245687020
Ni      0.3941160228    -0.7430825845    15.9634716739
Ni      1.6542510072     1.4605280814    16.0744093225
Ni      2.8564040585     3.5465921995    15.9660828927
Ni      2.8889284893    -0.6395578187    15.9400464114
Ni      4.1123401707     1.3634224947    15.9622784687
Ni      5.4107628208     3.7133800361    16.1831155348
Ni      5.3451662438    -0.6638286993    16.0832133420
Ni      6.5482705085     1.4106637544    15.9513996103
Ni      7.8205242660     3.4732597852    15.9496406007
O       5.9429183981     2.2376164552    20.3323719947
O       5.3467423187     3.4933627727    18.0859289762
O       5.4180354065     3.6301384348    22.8010421578
C       5.4869374683     3.6074131191    20.4159501907
C       5.8928731683     4.3152322693    19.1314155427
C       5.9540743563     4.3234130358    21.6685729576
H       4.3818883146     3.5295423508    20.4231024040
H       6.9894979199     4.3809887377    19.0276867859
H       5.4828004105     5.3196229257    19.0027038794
H       5.5879200330     5.3659523121    21.6183058017
H       7.0657310854     4.3469352664    21.6855812108
H       6.9148266691     2.2177652305    20.3986070023
H       5.6923960362     2.5847453302    18.2405994362
H       5.7408839540     4.0365898971    23.6177341329
50
Step 10 | ATOMIC_POSITIONS (angstrom) | Cartesian Angstrom
Ni      0.0000000000     0.0000000000    10.0000000187
Ni      1.2286496544     2.1280836261    10.0000000187
Ni      2.4572993456     4.2561673160    10.0000000187
Ni      2.4572993088     0.0000000000    10.0000000187
Ni      3.6859489631     2.1280836261    10.0000000187
Ni      4.9145986544     4.2561673160    10.0000000187
Ni      4.9145986912     0.0000000000    10.0000000187
Ni      6.1432483456     2.1280836261    10.0000000187
Ni      7.3718980369     4.2561673160    10.0000000187
Ni      1.6381995392     1.4187224174    12.0063764263
Ni      2.8668492304     3.5468061073    12.0063764263
Ni      4.0954988848     5.6748897334    12.0063764263
Ni      4.0954988479     1.4187224174    12.0063764263
Ni      5.3241485392     3.5468061073    12.0063764263
Ni      6.5527981936     5.6748897334    12.0063764263
Ni      6.5527982304     1.4187224174    12.0063764263
Ni      7.7814479217     3.5468061073    12.0063764263
Ni      9.0100975760     5.6748897334    12.0063764263
Ni      2.2255018489     0.3976425900    13.9997065098
Ni      3.4910644972     2.4803250811    14.0054642143
Ni      4.7183456623     4.5756494354    14.0289480576
Ni      4.7317753979     0.3333454246    13.9947191019
Ni      5.8919734302     2.5531023609    14.0865159878
Ni      7.1604139961     4.5977345363    14.0002709625
Ni      7.1648145762     0.3424093937    13.9871086315
Ni      8.3993452600     2.4495971049    13.9755788844
Ni      9.5925491851     4.6443863135    14.0314347355
Ni      0.3879736338    -0.7455230394    15.9657204039
Ni      1.6621749368     1.4687567419    16.0718800297
Ni      2.8641420722     3.5485670212    15.9658527015
Ni      2.8876061733    -0.6358705761    15.9405020414
Ni      4.1127607821     1.3645251175    15.9604349888
Ni      5.4188170653     3.7123035424    16.1815045891
Ni      5.3497694365    -0.6557069492    16.0839160884
Ni      6.5517116252     1.4094183678    15.9559711530
Ni      7.8140121459     3.4666536560    15.9483153681
O       5.9401238177     2.2295746178    20.3372289589
O       5.3508820773     3.4865865710    18.0899262579
O       5.4157802605     3.6259030641    22.8001276988
C       5.4900274209     3.6028460207    20.4215302218
C       5.8944660722     4.3168153287    19.1336015031
C       5.9565083331     4.3250327570    21.6733460685
H       4.3870136338     3.5283921171    20.4318730847
H       6.9905422812     4.3776389552    19.0182967796
H       5.4688370803     5.3217889332    19.0014940326
H       5.5892848796     5.3731935069    21.6200296406
H       7.0692941611     4.3480278031    21.6938784853
H       6.9154031708     2.2210009935    20.4044697994
H       5.6789082446     2.5744592132    18.2544925499
H       5.7439929437     4.0415927199    23.6142968175
50
Step 11 | ATOMIC_POSITIONS (angstrom) | Cartesian Angstrom
Ni      0.0000000000     0.0000000000    10.0000000187
Ni      1.2286496544     2.1280836261    10.0000000187
Ni      2.4572993456     4.2561673160    10.0000000187
Ni      2.4572993088     0.0000000000    10.0000000187
Ni      3.6859489631     2.1280836261    10.0000000187
Ni      4.9145986544     4.2561673160    10.0000000187
Ni      4.9145986912     0.0000000000    10.0000000187
Ni      6.1432483456     2.1280836261    10.0000000187
Ni      7.3718980369     4.2561673160    10.0000000187
Ni      1.6381995392     1.4187224174    12.0063764263
Ni      2.8668492304     3.5468061073    12.0063764263
Ni      4.0954988848     5.6748897334    12.0063764263
Ni      4.0954988479     1.4187224174    12.0063764263
Ni      5.3241485392     3.5468061073    12.0063764263
Ni      6.5527981936     5.6748897334    12.0063764263
Ni      6.5527982304     1.4187224174    12.0063764263
Ni      7.7814479217     3.5468061073    12.0063764263
Ni      9.0100975760     5.6748897334    12.0063764263
Ni      2.2222868548     0.3978781990    14.0060146912
Ni      3.4847939505     2.4767585038    13.9984293278
Ni      4.7185137029     4.5735471145    14.0342816991
Ni      4.7337432416     0.3336803168    13.9932823247
Ni      5.8887043648     2.5564610034    14.0926258992
Ni      7.1612953982     4.5992422752    14.0002518053
Ni      7.1647470404     0.3388221888    13.9958880353
Ni      8.3953310024     2.4496589630    13.9738391045
Ni      9.5889692838     4.6477002347    14.0406387621
Ni      0.3781010566    -0.7477195801    15.9699492559
Ni      1.6753249527     1.4807375827    16.0687434248
Ni      2.8735606759     3.5512104279    15.9656563932
Ni      2.8871609422    -0.6293870481    15.9416337839
Ni      4.1110280011     1.3647949349    15.9578728185
Ni      5.4299819312     3.7108628212    16.1797676176