50
Step 1 | ATOMIC_POSITIONS (angstrom) | Cartesian Angstrom
Ni      0.0000000000     0.0000000000    10.0000000187
Ni      1.2286496544     2.1280836261    10.0000000187
Ni      2.4572993456     4.2561673160    10.0000000187
Ni      2.4572993088     0.0000000000    10.0000000187
Ni      3.6859489631     2.1280836261    10.0000000187
Ni      4.9145986544     4.2561673160    10.0000000187
Ni      4.9145986912     0.0000000000    10.0000000187
Ni      6.1432483456     2.1280836261    10.0000000187
Ni      7.3718980369     4.2561673160    10.0000000187
Ni      1.6381995392     1.4187224174    12.0063764263
Ni      2.8668492304     3.5468061073    12.0063764263
Ni      4.0954988848     5.6748897334    12.0063764263
Ni      4.0954988479     1.4187224174    12.0063764263
Ni      5.3241485392     3.5468061073    12.0063764263
Ni      6.5527981936     5.6748897334    12.0063764263
Ni      6.5527982304     1.4187224174    12.0063764263
Ni      7.7814479217     3.5468061073    12.0063764263
Ni      9.0100975760     5.6748897334    12.0063764263
Ni      2.2517163724     0.3560707130    14.0168857868
Ni      3.4809601720     2.4845258091    14.0173521252
Ni      4.7086658287     4.6127561733    14.0153320283
Ni      4.7087755601     0.3559559945    14.0175520105
Ni      5.9370715186     2.4852251559    14.0186093037
Ni      7.1660256884     4.6119401459    14.0162063883
Ni      7.1666915517     0.3553456432    14.0202658734
Ni      8.3949625085     2.4843830663    14.0171969233
Ni      9.6233708158     4.6120623047    14.0175849578
Ni      0.4109712776    -0.7121190345    16.0096553150
Ni      1.6409251942     1.4128895618    16.0174841790
Ni      2.8645414319     3.5423351713    16.0121733841
Ni      2.8723464924    -0.7080751830    16.0099368042
Ni      4.0978296220     1.4064366725    16.0123717242
Ni      5.3295443344     3.5487359407    16.0155494164
Ni      5.3275116047    -0.7147088426    16.0169666196
Ni      6.5579097907     1.4095008227    16.0091914367
Ni      7.7917010839     3.5384478282    16.0107443738
O       5.9209905277     2.2556566769    20.3422234328
O       5.4271575456     3.6088035985    17.9830735592
O       5.4333751741     3.6022636388    22.7897437136
C       5.4432365640     3.6045931054    20.3775733760
C       5.9098899700     4.3270357925    19.1204409655
C       5.9154458098     4.2996234644    21.6401476370
H       4.3279926103     3.5208642594    20.3740848587
H       7.0145331422     4.3393222168    19.0672442926
H       5.5380835212     5.3446078055    19.0644758194
H       5.5715908349     5.3392574120    21.6725607886
H       7.0247896851     4.2874013116    21.6727056372
H       6.9013932854     2.3140521455    20.3507635317
H       5.7775422441     2.6882913787    18.0357748248
H       5.7776613923     4.0789373152    23.5620497052
50
Step 2 | ATOMIC_POSITIONS (angstrom) | Cartesian Angstrom
Ni      0.0000000000     0.0000000000    10.0000000187
Ni      1.2286496544     2.1280836261    10.0000000187
Ni      2.4572993456     4.2561673160    10.0000000187
Ni      2.4572993088     0.0000000000    10.0000000187
Ni      3.6859489631     2.1280836261    10.0000000187
Ni      4.9145986544     4.2561673160    10.0000000187
Ni      4.9145986912     0.0000000000    10.0000000187
Ni      6.1432483456     2.1280836261    10.0000000187
Ni      7.3718980369     4.2561673160    10.0000000187
Ni      1.6381995392     1.4187224174    12.0063764263
Ni      2.8668492304     3.5468061073    12.0063764263
Ni      4.0954988848     5.6748897334    12.0063764263
Ni      4.0954988479     1.4187224174    12.0063764263
Ni      5.3241485392     3.5468061073    12.0063764263
Ni      6.5527981936     5.6748897334    12.0063764263
Ni      6.5527982304     1.4187224174    12.0063764263
Ni      7.7814479217     3.5468061073    12.0063764263
Ni      9.0100975760     5.6748897334    12.0063764263
Ni      2.2517164481     0.3562069634    14.0147052066
Ni      3.4827126419     2.4848376919    14.0152301382
Ni      4.7080871863     4.6133343172    14.0116163093
Ni      4.7087296915     0.3552067197    14.0174181679
Ni      5.9356671580     2.4875749504    14.0220800922
Ni      7.1656050973     4.6106332421    14.0113672688
Ni      7.1677366051     0.3532967880    14.0241859111
Ni      8.3952540672     2.4840275994    14.0160573780
Ni      9.6228224253     4.6115071060    14.0172080988
Ni      0.4056404244    -0.7038979262    16.0000932994
Ni      1.6396046973     1.4130679098    16.0245496462
Ni      2.8531767980     3.5438382819    16.0060497056
Ni      2.8778225168    -0.6937920301    15.9988940244
Ni      4.0945191259     1.3947140391    16.0068913694
Ni      5.3347894754     3.5665773939    16.0216220269
Ni      5.3277075353    -0.7133782531    16.0229959571
Ni      6.5618072071     1.4017020996    15.9980014025
Ni      7.8053918344     3.5348729559    16.0018338567
O       5.9237045431     2.2380441208    20.3314699487
O       5.4011636833     3.5865821302    18.0093862571
O       5.4213665130     3.5939068154    22.7967122461
C       5.4528262866     3.6013601179    20.3891101871
C       5.9166001466     4.3358738069    19.1279128880
C       5.9170578349     4.3026955870    21.6546534617
H       4.3406369494     3.5224006434    20.3744465628
H       7.0220560083     4.3479993527    19.0743329980
H       5.5323331089     5.3574002435    19.0546435271
H       5.5712736035     5.3560203101    21.6611343092
H       7.0323883703     4.2949958562    21.6574006560
H       6.8961011532     2.3080832553    20.3537238935
H       5.7751479303     2.6719498245    18.0491990827
H       5.7738992794     4.0744583610    23.5641934657
