50
Step 1 | ATOMIC_POSITIONS (angstrom) | Cartesian Angstrom
Ni      0.0000000000     0.0000000000    10.0000000187
Ni      1.2286496544     2.1280836261    10.0000000187
Ni      2.4572993456     4.2561673160    10.0000000187
Ni      2.4572993088     0.0000000000    10.0000000187
Ni      3.6859489631     2.1280836261    10.0000000187
Ni      4.9145986544     4.2561673160    10.0000000187
Ni      4.9145986912     0.0000000000    10.0000000187
Ni      6.1432483456     2.1280836261    10.0000000187
Ni      7.3718980369     4.2561673160    10.0000000187
Ni      1.6381995392     1.4187224174    12.0063764263
Ni      2.8668492304     3.5468061073    12.0063764263
Ni      4.0954988848     5.6748897334    12.0063764263
Ni      4.0954988479     1.4187224174    12.0063764263
Ni      5.3241485392     3.5468061073    12.0063764263
Ni      6.5527981936     5.6748897334    12.0063764263
Ni      6.5527982304     1.4187224174    12.0063764263
Ni      7.7814479217     3.5468061073    12.0063764263
Ni      9.0100975760     5.6748897334    12.0063764263
Ni      2.2516038664     0.3562485209    14.0176456028
Ni      3.4802476365     2.4843745586    14.0183791162
Ni      4.7089381109     4.6123818264    14.0169952596
Ni      4.7088899085     0.3562448836    14.0174492137
Ni      5.9375765867     2.4843175622    14.0172270338
Ni      7.1661917015     4.6124553567    14.0183791162
Ni      7.1661864210     0.3563029066    14.0178601745
Ni      8.3948849266     2.4843550995    14.0174492137
Ni      9.6235247977     4.6124290550    14.0176456028
Ni      0.4109712776    -0.7121190345    16.0096553150
Ni      1.6409251942     1.4128895618    16.0174841790
Ni      2.8645414319     3.5423351713    16.0121733841
Ni      2.8723464924    -0.7080751830    16.0099368042
Ni      4.0978296220     1.4064366725    16.0123717242
Ni      5.3295443344     3.5487359407    16.0155494164
Ni      5.3275116047    -0.7147088426    16.0169666196
Ni      6.5579097907     1.4095008227    16.0091914367
Ni      7.7917010839     3.5384478282    16.0107443738
O       5.9209905277     2.2556566769    20.3422234328
O       5.4271575456     3.6088035985    17.9830735592
O       5.4333751741     3.6022636388    22.7897437136
C       5.4432365640     3.6045931054    20.3775733760
C       5.9098899700     4.3270357925    19.1204409655
C       5.9154458098     4.2996234644    21.6401476370
H       4.3279926103     3.5208642594    20.3740848587
H       7.0145331422     4.3393222168    19.0672442926
H       5.5380835212     5.3446078055    19.0644758194
H       5.5715908349     5.3392574120    21.6725607886
H       7.0247896851     4.2874013116    21.6727056372
H       6.9013932854     2.3140521455    20.3507635317
H       5.7775422441     2.6882913787    18.0357748248
H       5.7776613923     4.0789373152    23.5620497052
50
Step 2 | ATOMIC_POSITIONS (angstrom) | Cartesian Angstrom
Ni      0.0000000000     0.0000000000    10.0000000187
Ni      1.2286496544     2.1280836261    10.0000000187
Ni      2.4572993456     4.2561673160    10.0000000187
Ni      2.4572993088     0.0000000000    10.0000000187
Ni      3.6859489631     2.1280836261    10.0000000187
Ni      4.9145986544     4.2561673160    10.0000000187
Ni      4.9145986912     0.0000000000    10.0000000187
Ni      6.1432483456     2.1280836261    10.0000000187
Ni      7.3718980369     4.2561673160    10.0000000187
Ni      1.6381995392     1.4187224174    12.0063764263
Ni      2.8668492304     3.5468061073    12.0063764263
Ni      4.0954988848     5.6748897334    12.0063764263
Ni      4.0954988479     1.4187224174    12.0063764263
Ni      5.3241485392     3.5468061073    12.0063764263
Ni      6.5527981936     5.6748897334    12.0063764263
Ni      6.5527982304     1.4187224174    12.0063764263
Ni      7.7814479217     3.5468061073    12.0063764263
Ni      9.0100975760     5.6748897334    12.0063764263
Ni      2.2516038664     0.3562485209    14.0176456028
Ni      3.4802476365     2.4843745586    14.0183791162
Ni      4.7089381109     4.6123818264    14.0169952596
Ni      4.7088899085     0.3562448836    14.0174492137
Ni      5.9375765867     2.4843175622    14.0172270338
Ni      7.1661917015     4.6124553567    14.0183791162
Ni      7.1661864210     0.3563029066    14.0178601745
Ni      8.3948849266     2.4843550995    14.0174492137
Ni      9.6235247977     4.6124290550    14.0176456028
Ni      0.4055420046    -0.7037526281    15.9999941020
Ni      1.6395700974     1.4131001834    16.0246624351
Ni      2.8532590174     3.5439029648    16.0061570179
Ni      2.8777040745    -0.6938178433    15.9991949961
Ni      4.0946127306     1.3947861987    16.0070108572
Ni      5.3348196345     3.5663067340    16.0215076830
Ni      5.3277285403    -0.7133442447    16.0229967445
Ni      6.5617904316     1.4017050259    15.9979648241
Ni      7.8053115341     3.5347851701    16.0020848124
O       5.9237115563     2.2381929277    20.3315477070
O       5.4013707099     3.5866840332    18.0092156068
O       5.4214546792     3.5939745830    22.7966551958
C       5.4527212632     3.6013777362    20.3890240282
C       5.9165770939     4.3357889457    19.1278485757
C       5.9170648570     4.3026681555    21.6545531961
H       4.3405691632     3.5223926900    20.3744432264
H       7.0219932788     4.3479416626    19.0742846878
H       5.5323670055     5.3573201177    19.0547096200
H       5.5712742658     5.3559018940    21.6612132653
H       7.0323227364     4.2949443376    21.6575087515
H       6.8961330448     2.3081206727    20.3537027794
H       5.7751610909     2.6720711065    18.0491154239
H       5.7739259627     4.0744908147    23.5641817193
50
Step 3 | ATOMIC_POSITIONS (angstrom) | Cartesian Angstrom
Ni      0.0000000000     0.0000000000    10.0000000187
Ni      1.2286496544     2.1280836261    10.0000000187
Ni      2.4572993456     4.2561673160    10.0000000187
Ni      2.4572993088     0.0000000000    10.0000000187
Ni      3.6859489631     2.1280836261    10.0000000187
Ni      4.9145986544     4.2561673160    10.0000000187
Ni      4.9145986912     0.0000000000    10.0000000187
Ni      6.1432483456     2.1280836261    10.0000000187
Ni      7.3718980369     4.2561673160    10.0000000187
Ni      1.6381995392     1.4187224174    12.0063764263
Ni      2.8668492304     3.5468061073    12.0063764263
Ni      4.0954988848     5.6748897334    12.0063764263
Ni      4.0954988479     1.4187224174    12.0063764263
Ni      5.3241485392     3.5468061073    12.0063764263
Ni      6.5527981936     5.6748897334    12.0063764263
Ni      6.5527982304     1.4187224174    12.0063764263
Ni      7.7814479217     3.5468061073    12.0063764263
Ni      9.0100975760     5.6748897334    12.0063764263
Ni      2.2516038664     0.3562485209    14.0176456028
Ni      3.4802476365     2.4843745586    14.0183791162
Ni      4.7089381109     4.6123818264    14.0169952596
Ni      4.7088899085     0.3562448836    14.0174492137
Ni      5.9375765867     2.4843175622    14.0172270338
Ni      7.1661917015     4.6124553567    14.0183791162
Ni      7.1661864210     0.3563029066    14.0178601745
Ni      8.3948849266     2.4843550995    14.0174492137
Ni      9.6235247977     4.6124290550    14.0176456028
Ni      0.4004216710    -0.6970347801    15.9898041203
Ni      1.6383617491     1.4145204249    16.0339352299
Ni      2.8422734748     3.5452031804    15.9996572276
Ni      2.8832916199    -0.6788781345    15.9883634942
Ni      4.0922223368     1.3829882729    16.0010525644
Ni      5.3420824311     3.5870668326    16.0334434640
Ni      5.3281054536    -0.7108543838    16.0310427074
Ni      6.5643895305     1.3953892267    15.9858346200
Ni      7.8190971135     3.5297540148    15.9933459111
O       5.9205377434     2.2336490618    20.3221291234
O       5.3773357794     3.5632260994    18.0375033624
O       5.4157384739     3.5957063446    22.8012356448
C       5.4572262002     3.5992112485    20.3974193302
C       5.9183565644     4.3360770782    19.1355741183
C       5.9202230151     4.3037078009    21.6625804436
H       4.3574769674     3.5239141054    20.3760036537
H       7.0279105123     4.3586853265    19.0788994796
H       5.5279788467     5.3649162692    19.0442899292
H       5.5733418339     5.3634280852    21.6506816912
H       7.0349015094     4.3039265394    21.6467393536
H       6.8988907941     2.2972580957    20.3574940741
H       5.7702116879     2.6583016639    18.0675574878
H       5.7674569282     4.0663760430    23.5695889615
50
Step 4 | ATOMIC_POSITIONS (angstrom) | Cartesian Angstrom
Ni      0.0000000000     0.0000000000    10.0000000187
Ni      1.2286496544     2.1280836261    10.0000000187
Ni      2.4572993456     4.2561673160    10.0000000187
Ni      2.4572993088     0.0000000000    10.0000000187
Ni      3.6859489631     2.1280836261    10.0000000187
Ni      4.9145986544     4.2561673160    10.0000000187
Ni      4.9145986912     0.0000000000    10.0000000187
Ni      6.1432483456     2.1280836261    10.0000000187
Ni      7.3718980369     4.2561673160    10.0000000187
Ni      1.6381995392     1.4187224174    12.0063764263
Ni      2.8668492304     3.5468061073    12.0063764263
Ni      4.0954988848     5.6748897334    12.0063764263
Ni      4.0954988479     1.4187224174    12.0063764263
Ni      5.3241485392     3.5468061073    12.0063764263
Ni      6.5527981936     5.6748897334    12.0063764263
Ni      6.5527982304     1.4187224174    12.0063764263
Ni      7.7814479217     3.5468061073    12.0063764263
Ni      9.0100975760     5.6748897334    12.0063764263
Ni      2.2516038664     0.3562485209    14.0176456028
Ni      3.4802476365     2.4843745586    14.0183791162
Ni      4.7089381109     4.6123818264    14.0169952596
Ni      4.7088899085     0.3562448836    14.0174492137
Ni      5.9375765867     2.4843175622    14.0172270338
Ni      7.1661917015     4.6124553567    14.0183791162
Ni      7.1661864210     0.3563029066    14.0178601745
Ni      8.3948849266     2.4843550995    14.0174492137
Ni      9.6235247977     4.6124290550    14.0176456028
Ni      0.3967959625    -0.6943069969    15.9808816524
Ni      1.6377191033     1.4174960471    16.0443103282
Ni      2.8341499932     3.5459827473    15.9937015620
Ni      2.8879005734    -0.6659992783    15.9795884148
Ni      4.0915312701     1.3733344311    15.9953715465
Ni      5.3507262673     3.6087053329    16.0508661669
Ni      5.3287832847    -0.7071497756    16.0403109995
Ni      6.5646020783     1.3924565580    15.9748157891
Ni      7.8301364367     3.5236132427    15.9862002056
O       5.9275420980     2.2371699361    20.3163462167
O       5.3577417269     3.5439207238    18.0607145177
O       5.4133145002     3.6014833036    22.7982316048
C       5.4628965460     3.6014443328    20.4034530447
C       5.9172827241     4.3343084438    19.1409507615
C       5.9235138296     4.3047036684    21.6638330387
H       4.3691626078     3.5252294539    20.3789565030
H       7.0276750576     4.3688779655    19.0803518352
H       5.5258830061     5.3627002298    19.0350241536
H       5.5771289380     5.3621405119    21.6421242689
H       7.0344889179     4.3127602925    21.6419228633
H       6.8950958787     2.2824371832    20.3615043810
H       5.7638292048     2.6457222437    18.0897504838
H       5.7620191927     4.0597080888    23.5824812824
50
Step 5 | ATOMIC_POSITIONS (angstrom) | Cartesian Angstrom
Ni      0.0000000000     0.0000000000    10.0000000187
Ni      1.2286496544     2.1280836261    10.0000000187
Ni      2.4572993456     4.2561673160    10.0000000187
Ni      2.4572993088     0.0000000000    10.0000000187
Ni      3.6859489631     2.1280836261    10.0000000187
Ni      4.9145986544     4.2561673160    10.0000000187
Ni      4.9145986912     0.0000000000    10.0000000187
Ni      6.1432483456     2.1280836261    10.0000000187
Ni      7.3718980369     4.2561673160    10.0000000187
Ni      1.6381995392     1.4187224174    12.0063764263
Ni      2.8668492304     3.5468061073    12.0063764263
Ni      4.0954988848     5.6748897334    12.0063764263
Ni      4.0954988479     1.4187224174    12.0063764263
Ni      5.3241485392     3.5468061073    12.0063764263
Ni      6.5527981936     5.6748897334    12.0063764263
Ni      6.5527982304     1.4187224174    12.0063764263
Ni      7.7814479217     3.5468061073    12.0063764263
Ni      9.0100975760     5.6748897334    12.0063764263
Ni      2.2516038664     0.3562485209    14.0176456028
Ni      3.4802476365     2.4843745586    14.0183791162
Ni      4.7089381109     4.6123818264    14.0169952596
Ni      4.7088899085     0.3562448836    14.0174492137
Ni      5.9375765867     2.4843175622    14.0172270338
Ni      7.1661917015     4.6124553567    14.0183791162
Ni      7.1661864210     0.3563029066    14.0178601745
Ni      8.3948849266     2.4843550995    14.0174492137
Ni      9.6235247977     4.6124290550    14.0176456028
Ni      0.3948612442    -0.6968652461    15.9731838431
Ni      1.6379642945     1.4227938061    16.0565492130
Ni      2.8296335721     3.5463215288    15.9881085655
Ni      2.8912670816    -0.6551235875    15.9731204023
Ni      4.0930752485     1.3660002112    15.9897562175
Ni      5.3619056889     3.6330366876    16.0757202963
Ni      5.3301180807    -0.7015095013    16.0515257469
Ni      6.5617053274     1.3938321997    15.9648661392
Ni      7.8377918375     3.5155035885    15.9808556230
O       5.9274013332     2.2461829916    20.3136700613
O       5.3429500762     3.5264036124    18.0786587509
O       5.4159732812     3.6139975608    22.7983750596
C       5.4679002739     3.6059381172    20.4059975172
C       5.9154702115     4.3287490780    19.1430518197
C       5.9300476831     4.3063682384    21.6609341335
H       4.3776359161     3.5261648108    20.3840986020
H       7.0203217954     4.3784035949    19.0777045911
H       5.5238018282     5.3532602648    19.0262634728
H       5.5815906844     5.3557923042    21.6345267883
H       7.0329285032     4.3220780682    21.6431073140
H       6.9015664779     2.2644170986    20.3672327515
H       5.7542670664     2.6344224775    18.1181469748
H       5.7538710149     4.0496660785    23.5943088104
50
Step 6 | ATOMIC_POSITIONS (angstrom) | Cartesian Angstrom
Ni      0.0000000000     0.0000000000    10.0000000187
Ni      1.2286496544     2.1280836261    10.0000000187
Ni      2.4572993456     4.2561673160    10.0000000187
Ni      2.4572993088     0.0000000000    10.0000000187
Ni      3.6859489631     2.1280836261    10.0000000187
Ni      4.9145986544     4.2561673160    10.0000000187
Ni      4.9145986912     0.0000000000    10.0000000187
Ni      6.1432483456     2.1280836261    10.0000000187
Ni      7.3718980369     4.2561673160    10.0000000187
Ni      1.6381995392     1.4187224174    12.0063764263
Ni      2.8668492304     3.5468061073    12.0063764263
Ni      4.0954988848     5.6748897334    12.0063764263
Ni      4.0954988479     1.4187224174    12.0063764263
Ni      5.3241485392     3.5468061073    12.0063764263
Ni      6.5527981936     5.6748897334    12.0063764263
Ni      6.5527982304     1.4187224174    12.0063764263
Ni      7.7814479217     3.5468061073    12.0063764263
Ni      9.0100975760     5.6748897334    12.0063764263
Ni      2.2516038664     0.3562485209    14.0176456028
Ni      3.4802476365     2.4843745586    14.0183791162
Ni      4.7089381109     4.6123818264    14.0169952596
Ni      4.7088899085     0.3562448836    14.0174492137
Ni      5.9375765867     2.4843175622    14.0172270338
Ni      7.1661917015     4.6124553567    14.0183791162
Ni      7.1661864210     0.3563029066    14.0178601745
Ni      8.3948849266     2.4843550995    14.0174492137
Ni      9.6235247977     4.6124290550    14.0176456028
Ni      0.3953994325    -0.7055293632    15.9695263396
Ni      1.6396398819     1.4296726752    16.0671923721
Ni      2.8313403163     3.5463120360    15.9846814330
Ni      2.8918686706    -0.6498439372    15.9717602733
Ni      4.0969104378     1.3637767455    15.9859504834
Ni      5.3735121537     3.6537252273    16.1017499931
Ni      5.3322821940    -0.6948261252    16.0615337376
Ni      6.5558456564     1.4002544460    15.9596067728
Ni      7.8383961971     3.5070910439    15.9796130364
O       5.9324509791     2.2531899689    20.3159577853
O       5.3379937113     3.5180504817    18.0845031185
O       5.4187452804     3.6233395572    22.7941978271
C       5.4718295573     3.6107352141    20.4058582992
C       5.9087190360     4.3228104233    19.1403065866
C       5.9349684110     4.3087997886    21.6591039600
H       4.3792680323     3.5272166701    20.3907230537
H       7.0112891307     4.3832888660    19.0700421872
H       5.5207120823     5.3399184337    19.0201343734
H       5.5848039995     5.3499584481    21.6294710962
H       7.0359437039     4.3291840805    21.6503403598
H       6.9051857690     2.2484287226    20.3731615841
H       5.7438594379     2.6240489533    18.1464622398
H       5.7490852051     4.0441008387    23.6071147863
50
Step 7 | ATOMIC_POSITIONS (angstrom) | Cartesian Angstrom
Ni      0.0000000000     0.0000000000    10.0000000187
Ni      1.2286496544     2.1280836261    10.0000000187
Ni      2.4572993456     4.2561673160    10.0000000187
Ni      2.4572993088     0.0000000000    10.0000000187
Ni      3.6859489631     2.1280836261    10.0000000187
Ni      4.9145986544     4.2561673160    10.0000000187
Ni      4.9145986912     0.0000000000    10.0000000187
Ni      6.1432483456     2.1280836261    10.0000000187
Ni      7.3718980369     4.2561673160    10.0000000187
Ni      1.6381995392     1.4187224174    12.0063764263
Ni      2.8668492304     3.5468061073    12.0063764263
Ni      4.0954988848     5.6748897334    12.0063764263
Ni      4.0954988479     1.4187224174    12.0063764263
Ni      5.3241485392     3.5468061073    12.0063764263
Ni      6.5527981936     5.6748897334    12.0063764263
Ni      6.5527982304     1.4187224174    12.0063764263
Ni      7.7814479217     3.5468061073    12.0063764263
Ni      9.0100975760     5.6748897334    12.0063764263
Ni      2.2516038664     0.3562485209    14.0176456028
Ni      3.4802476365     2.4843745586    14.0183791162
Ni      4.7089381109     4.6123818264    14.0169952596
Ni      4.7088899085     0.3562448836    14.0174492137
Ni      5.9375765867     2.4843175622    14.0172270338
Ni      7.1661917015     4.6124553567    14.0183791162
Ni      7.1661864210     0.3563029066    14.0178601745
Ni      8.3948849266     2.4843550995    14.0174492137
Ni      9.6235247977     4.6124290550    14.0176456028
Ni      0.3969338341    -0.7201926157    15.9678624949
Ni      1.6434736067     1.4396961934    16.0786803917
Ni      2.8374779172     3.5466354700    15.9818725224
Ni      2.8908226468    -0.6459312794    15.9736646007
Ni      4.1026967120     1.3637855429    15.9824410436
Ni      5.3892491813     3.6769971232    16.1327145128
Ni      5.3362799788    -0.6852170998    16.0724420835
Ni      6.5470081939     1.4113162100    15.9567606169
Ni      7.8343276568     3.4959656101    15.9809873615
O       5.9379606946     2.2547554313    20.3210576830
O       5.3380260729     3.5088619221    18.0841429469
O       5.4212414187     3.6311955110    22.7965548066
C       5.4772007880     3.6135665562    20.4072370270
C       5.9017735861     4.3172975194    19.1350662417
C       5.9423516835     4.3132381846    21.6582289988
H       4.3783237340     3.5284643115    20.4006492418
H       6.9996744666     4.3853169852    19.0567877644
H       5.5122786786     5.3265754526    19.0132318978
H       5.5867220250     5.3496791697    21.6243060092
H       7.0443745046     4.3366415831    21.6622261012
H       6.9098536825     2.2323061998    20.3814764356
H       5.7281398923     2.6112459335    18.1821791179
H       5.7434653645     4.0378386922    23.6149108871
50
Step 8 | ATOMIC_POSITIONS (angstrom) | Cartesian Angstrom
Ni      0.0000000000     0.0000000000    10.0000000187
Ni      1.2286496544     2.1280836261    10.0000000187
Ni      2.4572993456     4.2561673160    10.0000000187
Ni      2.4572993088     0.0000000000    10.0000000187
Ni      3.6859489631     2.1280836261    10.0000000187
Ni      4.9145986544     4.2561673160    10.0000000187
Ni      4.9145986912     0.0000000000    10.0000000187
Ni      6.1432483456     2.1280836261    10.0000000187
Ni      7.3718980369     4.2561673160    10.0000000187
Ni      1.6381995392     1.4187224174    12.0063764263
Ni      2.8668492304     3.5468061073    12.0063764263
Ni      4.0954988848     5.6748897334    12.0063764263
Ni      4.0954988479     1.4187224174    12.0063764263
Ni      5.3241485392     3.5468061073    12.0063764263
Ni      6.5527981936     5.6748897334    12.0063764263
Ni      6.5527982304     1.4187224174    12.0063764263
Ni      7.7814479217     3.5468061073    12.0063764263
Ni      9.0100975760     5.6748897334    12.0063764263
Ni      2.2516038664     0.3562485209    14.0176456028
Ni      3.4802476365     2.4843745586    14.0183791162
Ni      4.7089381109     4.6123818264    14.0169952596
Ni      4.7088899085     0.3562448836    14.0174492137
Ni      5.9375765867     2.4843175622    14.0172270338
Ni      7.1661917015     4.6124553567    14.0183791162
Ni      7.1661864210     0.3563029066    14.0178601745
Ni      8.3948849266     2.4843550995    14.0174492137
Ni      9.6235247977     4.6124290550    14.0176456028
Ni      0.3977822659    -0.7371594931    15.9683275527
Ni      1.6498412278     1.4514163201    16.0885003342
Ni      2.8458395463     3.5479423172    15.9800876789
Ni      2.8889423532    -0.6417164603    15.9780865361
Ni      4.1082711533     1.3645499295    15.9797544751
Ni      5.4074824156     3.6985782766    16.1598529165
Ni      5.3422737297    -0.6737422484    16.0817231163
Ni      6.5376472944     1.4242358987    15.9569584485
Ni      7.8273405675     3.4836583015    15.9843838773
O       5.9395153514     2.2490669285    20.3271817451
O       5.3410645386     3.4985927696    18.0831020295
O       5.4195767108     3.6322017388    22.7947586283
C       5.4824374930     3.6115358318    20.4105999346
C       5.8954087229     4.3133981397    19.1304895339
C       5.9503228107     4.3190002678    21.6632092064
H       4.3792659982     3.5295721652    20.4128785400
H       6.9907471754     4.3845650181    19.0401005102
H       5.4976931609     5.3185308386    19.0056952151
H       5.5876379065     5.3562010001    21.6195143036
H       7.0563007760     4.3436556338    21.6757317920
H       6.9163897766     2.2197928333    20.3914189086
H       5.7088234083     2.5950368677    18.2200308445
H       5.7414884966     4.0364825331    23.6229554579
50
Step 9 | ATOMIC_POSITIONS (angstrom) | Cartesian Angstrom
Ni      0.0000000000     0.0000000000    10.0000000187
Ni      1.2286496544     2.1280836261    10.0000000187
Ni      2.4572993456     4.2561673160    10.0000000187
Ni      2.4572993088     0.0000000000    10.0000000187
Ni      3.6859489631     2.1280836261    10.0000000187
Ni      4.9145986544     4.2561673160    10.0000000187
Ni      4.9145986912     0.0000000000    10.0000000187
Ni      6.1432483456     2.1280836261    10.0000000187
Ni      7.3718980369     4.2561673160    10.0000000187
Ni      1.6381995392     1.4187224174    12.0063764263
Ni      2.8668492304     3.5468061073    12.0063764263
Ni      4.0954988848     5.6748897334    12.0063764263
Ni      4.0954988479     1.4187224174    12.0063764263
Ni      5.3241485392     3.5468061073    12.0063764263
Ni      6.5527981936     5.6748897334    12.0063764263
Ni      6.5527982304     1.4187224174    12.0063764263
Ni      7.7814479217     3.5468061073    12.0063764263
Ni      9.0100975760     5.6748897334    12.0063764263
Ni      2.2516038664     0.3562485209    14.0176456028
Ni      3.4802476365     2.4843745586    14.0183791162
Ni      4.7089381109     4.6123818264    14.0169952596
Ni      4.7088899085     0.3562448836    14.0174492137
Ni      5.9375765867     2.4843175622    14.0172270338
Ni      7.1661917015     4.6124553567    14.0183791162
Ni      7.1661864210     0.3563029066    14.0178601745
Ni      8.3948849266     2.4843550995    14.0174492137
Ni      9.6235247977     4.6124290550    14.0176456028
Ni      0.3967173621    -0.7505099559    15.9715693399
Ni      1.6581722536     1.4612522708    16.0922590053
Ni      2.8536648611     3.5503974501    15.9805164693
Ni      2.8869935638    -0.6375058887    15.9842092564
Ni      4.1108419399     1.3656063021    15.9793027557
Ni      5.4228205707     3.7091516094    16.1707510703
Ni      5.3492662679    -0.6636915258    16.0851504833
Ni      6.5313772421     1.4348666015    15.9613887533
Ni      7.8195599607     3.4742508424    15.9891215976
O       5.9435060568     2.2381189106    20.3334306569
O       5.3466053586     3.4889496162    18.0837132404
O       5.4186222208     3.6312456520    22.8005714999
C       5.4872386613     3.6075989818    20.4154621268
C       5.8914454293     4.3130252355    19.1291492747
C       5.9552003314     4.3239020390    21.6680818442
H       4.3820413756     3.5298540180    20.4242269662
H       6.9878408608     4.3812300859    19.0251057276
H       5.4812155830     5.3169690320    19.0005210857
H       5.5883356469     5.3656533207    21.6177138314
H       7.0665324356     4.3477676825    21.6874704628
H       6.9155653669     2.2157731651    20.3995815091
H       5.6906541928     2.5810224423    18.2474820199
H       5.7401814292     4.0360374917    23.6189651340
50
Step 10 | ATOMIC_POSITIONS (angstrom) | Cartesian Angstrom
Ni      0.0000000000     0.0000000000    10.0000000187
Ni      1.2286496544     2.1280836261    10.0000000187
Ni      2.4572993456     4.2561673160    10.0000000187
Ni      2.4572993088     0.0000000000    10.0000000187
Ni      3.6859489631     2.1280836261    10.0000000187
Ni      4.9145986544     4.2561673160    10.0000000187
Ni      4.9145986912     0.0000000000    10.0000000187
Ni      6.1432483456     2.1280836261    10.0000000187
Ni      7.3718980369     4.2561673160    10.0000000187
Ni      1.6381995392     1.4187224174    12.0063764263
Ni      2.8668492304     3.5468061073    12.0063764263
Ni      4.0954988848     5.6748897334    12.0063764263
Ni      4.0954988479     1.4187224174    12.0063764263
Ni      5.3241485392     3.5468061073    12.0063764263
Ni      6.5527981936     5.6748897334    12.0063764263
Ni      6.5527982304     1.4187224174    12.0063764263
Ni      7.7814479217     3.5468061073    12.0063764263
Ni      9.0100975760     5.6748897334    12.0063764263
Ni      2.2516038664     0.3562485209    14.0176456028
Ni      3.4802476365     2.4843745586    14.0183791162
Ni      4.7089381109     4.6123818264    14.0169952596
Ni      4.7088899085     0.3562448836    14.0174492137
Ni      5.9375765867     2.4843175622    14.0172270338
Ni      7.1661917015     4.6124553567    14.0183791162
Ni      7.1661864210     0.3563029066    14.0178601745
Ni      8.3948849266     2.4843550995    14.0174492137
Ni      9.6235247977     4.6124290550    14.0176456028
Ni      0.3931021039    -0.7585138128    15.9761164191
Ni      1.6685242384     1.4687626232    16.0906348417
Ni      2.8587809240     3.5541919258    15.9825552381
Ni      2.8857908980    -0.6315885935    15.9903154576
Ni      4.1095750564     1.3652917260    15.9805619731
Ni      5.4350826288     3.7098317220    16.1671323126
Ni      5.3571920231    -0.6553944231    16.0832944004
Ni      6.5291330286     1.4418328518    15.9682028918
Ni      7.8136869338     3.4678077280    15.9936105747
O       5.9412983953     2.2292717481    20.3384953572
O       5.3500291661     3.4797204583    18.0881226026
O       5.4161111033     3.6274645390    22.7999522251
C       5.4913318290     3.6028156270    20.4217179679
C       5.8923459708     4.3140119036    19.1309895098
C       5.9583698906     4.3261140351    21.6733445241
H       4.3882070050     3.5287620927    20.4342922784
H       6.9880898616     4.3781619509    19.0141007217
H       5.4653456628     5.3182808583    18.9976493457
H       5.5901195946     5.3736323105    21.6185533263
H       7.0710352857     4.3499636231    21.6964093569
H       6.9160680614     2.2174574659    20.4065152325
H       5.6746164404     2.5685276215    18.2658018102
H       5.7426693916     4.0404165381    23.6159512376
50
Step 11 | ATOMIC_POSITIONS (angstrom) | Cartesian Angstrom
Ni      0.0000000000     0.0000000000    10.0000000187
Ni      1.2286496544     2.1280836261    10.0000000187
Ni      2.4572993456     4.2561673160    10.0000000187
Ni      2.4572993088     0.0000000000    10.0000000187
Ni      3.6859489631     2.1280836261    10.0000000187
Ni      4.9145986544     4.2561673160    10.0000000187
Ni      4.9145986912     0.0000000000    10.0000000187
Ni      6.1432483456     2.1280836261    10.0000000187
Ni      7.3718980369     4.2561673160    10.0000000187
Ni      1.6381995392     1.4187224174    12.0063764263
Ni      2.8668492304     3.5468061073    12.0063764263
Ni      4.0954988848     5.6748897334    12.0063764263
Ni      4.0954988479     1.4187224174    12.0063764263
Ni      5.3241485392     3.5468061073    12.0063764263
Ni      6.5527981936     5.6748897334    12.0063764263
Ni      6.5527982304     1.4187224174    12.0063764263
Ni      7.7814479217     3.5468061073    12.0063764263
Ni      9.0100975760     5.6748897334    12.0063764263
Ni      2.2516038664     0.3562485209    14.0176456028
Ni      3.4802476365     2.4843745586    14.0183791162
Ni      4.7089381109     4.6123818264    14.0169952596
Ni      4.7088899085     0.3562448836    14.0174492137
Ni      5.9375765867     2.4843175622    14.0172270338
Ni      7.1661917015     4.6124553567    14.0183791162
Ni      7.1661864210     0.3563029066    14.0178601745
Ni      8.3948849266     2.4843550995    14.0174492137
Ni      9.6235247977     4.6124290550    14.0176456028
Ni      0.3868395541    -0.7653794435    15.9816857084
Ni      1.6839545072     1.4771381558    16.0857196136
Ni      2.8623139057     3.5604528316    15.9858619727
Ni      2.8846688907    -0.6224075005    15.9972425776
Ni      4.1052014956     1.3629568704    15.9829654621
Ni      5.4493917944     3.7060053011    16.1577762171