86
Step 1 | ATOMIC_POSITIONS (angstrom) | Cartesian Angstrom
Ni      1.2286390390     0.7093535490     9.0125970590
Ni      2.4572760100     2.8374169220     9.0125970590
Ni      3.6859498400     4.9655441370     9.0125970590
Ni      3.6859144660     0.7093535490     9.0125970590
Ni      4.9145514370     2.8374169220     9.0125970590
Ni      6.1432252670     4.9655441370     9.0125970590
Ni      6.1432636120     0.7093535490     9.0125970590
Ni      7.3719005830     2.8374169220     9.0125970590
Ni      8.6005744130     4.9655441370     9.0125970590
Ni      0.0000019230    -0.0000011100    11.0191845730
Ni      1.2286511800     2.1280835430    11.0191845730
Ni      2.4573004380     4.2561681970    11.0191845730
Ni      2.4573019230    -0.0000011100    11.0191845730
Ni      3.6859511800     2.1280835430    11.0191845730
Ni      4.9146004380     4.2561681970    11.0191845730
Ni      4.9146019230    -0.0000011100    11.0191845730
Ni      6.1432511800     2.1280835430    11.0191845730
Ni      7.3719004380     4.2561681970    11.0191845730
Ni      9.8291970100     5.6748892401    13.0324849556
Ni      4.9145980198     5.6748893593    13.0324852164
Ni      7.3718991758     1.4187202853    13.0324856500
Ni      8.6005492460     3.5468057814    13.0324864151
Ni      7.3718984520     5.6748900664    13.0324864346
Ni      2.4573016324     1.4187213286    13.0324867123
Ni      3.6859500153     3.5468058594    13.0324876950
Ni      6.1432488122     3.5468055587    13.0324879319
Ni      4.9146003559     1.4187209547    13.0324881305
Ni      4.9146024517     2.8374451427    15.0334585589
Ni      2.4573039655     2.8374470172    15.0334598186
Ni      6.1432518675     4.9655284072    15.0334598528
Ni      7.3719008977     2.8374462771    15.0334599804
Ni      3.6859555058     0.7093603620    15.0334602556
Ni      1.2286550209     0.7093609929    15.0334616076
Ni      3.6859521613     4.9655297045    15.0334616685
Ni      8.6005513471     4.9655301153    15.0334618667
Ni      6.1432529377     0.7093606827    15.0334623189
Ni      7.3718981461     4.2561658701    17.0436126492
Ni      2.4573001516     4.2561668027    17.0436139163
Ni      4.9146014848    -0.0000023770    17.0436145683
Ni      4.9146006221     4.2561672435    17.0436152860
Ni      0.0000023638    -0.0000021113    17.0436153847
Ni      6.1432512178     2.1280823767    17.0436158106
Ni      1.2286541909     2.1280837412    17.0436166733
Ni      2.4573047358    -0.0000005294    17.0436167517
Ni      3.6859557290     2.1280847607    17.0436183569
Ni      7.3685197911     1.4233890358    19.0371903666
Ni      9.8202944010     5.6687996636    19.0418158867
Ni      2.4541687909     1.4175150705    19.0375031290
Ni      4.9177981617     5.6690333918    19.0382527405
Ni      4.9129021245     1.4164233149    19.0402725592
Ni      3.6829669288     3.5463091965    19.0421460171
Ni      7.3689652354     5.6764969005    19.0487489393
Ni      8.6033693989     3.5408992279    19.0498122147
Ni      6.1325964916     3.5385316810    19.0483798344
Ni      4.8756180671     2.8119736032    21.0788161711
Ni      6.1474179820     4.9423625144    21.0435869423
Ni      3.6835933923     4.9708712615    21.0327255479
Ni      3.6812808745     0.7299309364    21.0580084393
Ni      2.4782521579     2.8159405301    21.0718908257
Ni      1.2158748166     0.7012187220    21.0245617267
Ni      7.3626774847     2.8443171262    21.0488929611
Ni      6.1472754284     0.7003353673    21.0308021201
Ni      8.5818648360     4.9494406412    21.0523529648
Ni      3.6697600855     2.1272644238    23.2368643235
Ni      1.2021745723     2.1152972600    22.9894861305
Ni      2.4529579676     4.2681691498    22.9979528378
Ni      6.1410539088     2.1122067863    23.0051472793
Ni     -0.0068308871    -0.0040917668    23.0581720745
Ni      2.4382903407    -0.0283155607    22.9733871420
Ni      7.3647330599     4.2505648942    23.0698891841
Ni      4.9064786176     4.2587709591    23.0064334530
Ni      4.9179049802    -0.0142034597    22.9908517738
O       3.4464612656     1.8872492818    25.2406201791
H       3.7072510289     0.9647168883    25.4596356908
H       5.0919845801     2.9004401904    26.0428998664
H       3.5036988800     3.7145538746    26.1490109175
C       4.0163290520     2.7484106943    26.2463597594
O       4.2630614599     0.7273474820    27.5476207599
H       5.2368625839     0.7515859014    27.5234282111
C       3.7745974617     2.0841637704    27.5965987299
H       2.6907605027     1.9732235044    27.7499827840
C       4.3426506860     2.8894362826    28.7510153755
H       4.0604833205     3.9513774188    28.6178370281
H       5.4475132184     2.8306177415    28.7355350508
O       3.8091754185     2.3613755847    29.9670256084
H       4.1893812573     2.8541627402    30.7116407903
