86
Step 1 | ATOMIC_POSITIONS (angstrom) | Cartesian Angstrom
Ni      1.2286390390     0.7093535490     9.0125970590
Ni      2.4572760100     2.8374169220     9.0125970590
Ni      3.6859498400     4.9655441370     9.0125970590
Ni      3.6859144660     0.7093535490     9.0125970590
Ni      4.9145514370     2.8374169220     9.0125970590
Ni      6.1432252670     4.9655441370     9.0125970590
Ni      6.1432636120     0.7093535490     9.0125970590
Ni      7.3719005830     2.8374169220     9.0125970590
Ni      8.6005744130     4.9655441370     9.0125970590
Ni      0.0000019230    -0.0000011100    11.0191845730
Ni      1.2286511800     2.1280835430    11.0191845730
Ni      2.4573004380     4.2561681970    11.0191845730
Ni      2.4573019230    -0.0000011100    11.0191845730
Ni      3.6859511800     2.1280835430    11.0191845730
Ni      4.9146004380     4.2561681970    11.0191845730
Ni      4.9146019230    -0.0000011100    11.0191845730
Ni      6.1432511800     2.1280835430    11.0191845730
Ni      7.3719004380     4.2561681970    11.0191845730
Ni      9.8291970100     5.6748892401    13.0324849556
Ni      4.9145980198     5.6748893593    13.0324852164
Ni      7.3718991758     1.4187202853    13.0324856500
Ni      8.6005492460     3.5468057814    13.0324864151
Ni      7.3718984520     5.6748900664    13.0324864346
Ni      2.4573016324     1.4187213286    13.0324867123
Ni      3.6859500153     3.5468058594    13.0324876950
Ni      6.1432488122     3.5468055587    13.0324879319
Ni      4.9146003559     1.4187209547    13.0324881305
Ni      4.9146024517     2.8374451427    15.0334585589
Ni      2.4573039655     2.8374470172    15.0334598186
Ni      6.1432518675     4.9655284072    15.0334598528
Ni      7.3719008977     2.8374462771    15.0334599804
Ni      3.6859555058     0.7093603620    15.0334602556
Ni      1.2286550209     0.7093609929    15.0334616076
Ni      3.6859521613     4.9655297045    15.0334616685
Ni      8.6005513471     4.9655301153    15.0334618667
Ni      6.1432529377     0.7093606827    15.0334623189
Ni      7.3718981461     4.2561658701    17.0436126492
Ni      2.4573001516     4.2561668027    17.0436139163
Ni      4.9146014848    -0.0000023770    17.0436145683
Ni      4.9146006221     4.2561672435    17.0436152860
Ni      0.0000023638    -0.0000021113    17.0436153847
Ni      6.1432512178     2.1280823767    17.0436158106
Ni      1.2286541909     2.1280837412    17.0436166733
Ni      2.4573047358    -0.0000005294    17.0436167517
Ni      3.6859557290     2.1280847607    17.0436183569
Ni      7.3685197911     1.4233890358    19.0371903666
Ni      9.8202944010     5.6687996636    19.0418158867
Ni      2.4541687909     1.4175150705    19.0375031290
Ni      4.9177981617     5.6690333918    19.0382527405
Ni      4.9129021245     1.4164233149    19.0402725592
Ni      3.6829669288     3.5463091965    19.0421460171
Ni      7.3689652354     5.6764969005    19.0487489393
Ni      8.6033693989     3.5408992279    19.0498122147
Ni      6.1325964916     3.5385316810    19.0483798344
Ni      4.8756180671     2.8119736032    21.0788161711
Ni      6.1474179820     4.9423625144    21.0435869423
Ni      3.6835933923     4.9708712615    21.0327255479
Ni      3.6812808745     0.7299309364    21.0580084393
Ni      2.4782521579     2.8159405301    21.0718908257
Ni      1.2158748166     0.7012187220    21.0245617267
Ni      7.3626774847     2.8443171262    21.0488929611
Ni      6.1472754284     0.7003353673    21.0308021201
Ni      8.5818648360     4.9494406412    21.0523529648
Ni      3.6697600855     2.1272644238    23.2368643235
Ni      1.2021745723     2.1152972600    22.9894861305
Ni      2.4529579676     4.2681691498    22.9979528378
Ni      6.1410539088     2.1122067863    23.0051472793
Ni     -0.0068308871    -0.0040917668    23.0581720745
Ni      2.4382903407    -0.0283155607    22.9733871420
Ni      7.3647330599     4.2505648942    23.0698891841
Ni      4.9064786176     4.2587709591    23.0064334530
Ni      4.9179049802    -0.0142034597    22.9908517738
O       3.4464612656     1.8872492818    25.2406201791
H       3.7072510289     0.9647168883    25.4596356908
H       5.0919845801     2.9004401904    26.0428998664
H       3.5036988800     3.7145538746    26.1490109175
C       4.0163290520     2.7484106943    26.2463597594
O       4.2630614599     0.7273474820    27.5476207599
H       5.2368625839     0.7515859014    27.5234282111
C       3.7745974617     2.0841637704    27.5965987299
H       2.6907605027     1.9732235044    27.7499827840
C       4.3426506860     2.8894362826    28.7510153755
H       4.0604833205     3.9513774188    28.6178370281
H       5.4475132184     2.8306177415    28.7355350508
O       3.8091754185     2.3613755847    29.9670256084
H       4.1893812573     2.8541627402    30.7116407903
86
Step 2 | ATOMIC_POSITIONS (angstrom) | Cartesian Angstrom
Ni      1.2286390390     0.7093535490     9.0125970590
Ni      2.4572760100     2.8374169220     9.0125970590
Ni      3.6859498400     4.9655441370     9.0125970590
Ni      3.6859144660     0.7093535490     9.0125970590
Ni      4.9145514370     2.8374169220     9.0125970590
Ni      6.1432252670     4.9655441370     9.0125970590
Ni      6.1432636120     0.7093535490     9.0125970590
Ni      7.3719005830     2.8374169220     9.0125970590
Ni      8.6005744130     4.9655441370     9.0125970590
Ni      0.0000019230    -0.0000011100    11.0191845730
Ni      1.2286511800     2.1280835430    11.0191845730
Ni      2.4573004380     4.2561681970    11.0191845730
Ni      2.4573019230    -0.0000011100    11.0191845730
Ni      3.6859511800     2.1280835430    11.0191845730
Ni      4.9146004380     4.2561681970    11.0191845730
Ni      4.9146019230    -0.0000011100    11.0191845730
Ni      6.1432511800     2.1280835430    11.0191845730
Ni      7.3719004380     4.2561681970    11.0191845730
Ni      9.8291970100     5.6748892401    13.0324849556
Ni      4.9145980198     5.6748893593    13.0324852164
Ni      7.3718991758     1.4187202853    13.0324856500
Ni      8.6005492460     3.5468057814    13.0324864151
Ni      7.3718984520     5.6748900664    13.0324864346
Ni      2.4573016324     1.4187213286    13.0324867123
Ni      3.6859500153     3.5468058594    13.0324876950
Ni      6.1432488122     3.5468055587    13.0324879319
Ni      4.9146003559     1.4187209547    13.0324881305
Ni      4.9146024517     2.8374451427    15.0334585589
Ni      2.4573039655     2.8374470172    15.0334598186
Ni      6.1432518675     4.9655284072    15.0334598528
Ni      7.3719008977     2.8374462771    15.0334599804
Ni      3.6859555058     0.7093603620    15.0334602556
Ni      1.2286550209     0.7093609929    15.0334616076
Ni      3.6859521613     4.9655297045    15.0334616685
Ni      8.6005513471     4.9655301153    15.0334618667
Ni      6.1432529377     0.7093606827    15.0334623189
Ni      7.3718981461     4.2561658701    17.0436126492
Ni      2.4573001516     4.2561668027    17.0436139163
Ni      4.9146014848    -0.0000023770    17.0436145683
Ni      4.9146006221     4.2561672435    17.0436152860
Ni      0.0000023638    -0.0000021113    17.0436153847
Ni      6.1432512178     2.1280823767    17.0436158106
Ni      1.2286541909     2.1280837412    17.0436166733
Ni      2.4573047358    -0.0000005294    17.0436167517
Ni      3.6859557290     2.1280847607    17.0436183569
Ni      7.3685445547     1.4218441710    19.0373441895
Ni      9.8215117231     5.6694705843    19.0417344820
Ni      2.4548569019     1.4177384815    19.0396834746
Ni      4.9164761134     5.6696628192    19.0384136808
Ni      4.9121528800     1.4167436032    19.0421902607
Ni      3.6830340929     3.5451889041    19.0442142772
Ni      7.3690299376     5.6753269460    19.0489812841
Ni      8.6021453451     3.5414272987    19.0504125463
Ni      6.1338461383     3.5391306029    19.0491686776
Ni      4.8799740441     2.8144153084    21.0761058772
Ni      6.1450552908     4.9445878572    21.0379129580
Ni      3.6831204528     4.9683778869    21.0311203321
Ni      3.6809489912     0.7255367270    21.0561956329
Ni      2.4742272480     2.8183643810    21.0689798867
Ni      1.2176883207     0.7019300130    21.0229148655
Ni      7.3627996287     2.8413971903    21.0434348882
Ni      6.1451654018     0.7012761951    21.0291583106
Ni      8.5844257621     4.9509818269    21.0456003995
Ni      3.6702673513     2.1266729671    23.2257159206
Ni      1.2027434365     2.1158070664    23.0011089132
Ni      2.4519034154     4.2675495916    23.0088084056
Ni      6.1410965424     2.1134326366    23.0156022312
Ni     -0.0069426487    -0.0046010168    23.0588621578
Ni      2.4383880550    -0.0268890298    22.9852105405
Ni      7.3645053854     4.2499106952    23.0717096394
Ni      4.9070927062     4.2586265911    23.0163138612
Ni      4.9173844494    -0.0138881375    23.0020325167
O       3.4456625115     1.8867981307    25.2424876667
H       3.7075501577     0.9640250093    25.4604692197
H       5.0918060732     2.9004968975    26.0428819889
H       3.5038328086     3.7142480568    26.1488843571
C       4.0163392335     2.7487344229    26.2466975895
O       4.2621305815     0.7276337839    27.5477705367
H       5.2374927564     0.7520897369    27.5237010988
C       3.7753823967     2.0844673137    27.5968104087
H       2.6907966477     1.9733840397    27.7498918120
C       4.3425077954     2.8894942639    28.7511235129
H       4.0610008136     3.9508545515    28.6176442788
H       5.4480631552     2.8311359243    28.7353643764
O       3.8094827378     2.3611791175    29.9672816879
H       4.1898133984     2.8544949452    30.7120331333
86
Step 3 | ATOMIC_POSITIONS (angstrom) | Cartesian Angstrom
Ni      1.2286390390     0.7093535490     9.0125970590
Ni      2.4572760100     2.8374169220     9.0125970590
Ni      3.6859498400     4.9655441370     9.0125970590
Ni      3.6859144660     0.7093535490     9.0125970590
Ni      4.9145514370     2.8374169220     9.0125970590
Ni      6.1432252670     4.9655441370     9.0125970590
Ni      6.1432636120     0.7093535490     9.0125970590
Ni      7.3719005830     2.8374169220     9.0125970590
Ni      8.6005744130     4.9655441370     9.0125970590
Ni      0.0000019230    -0.0000011100    11.0191845730
Ni      1.2286511800     2.1280835430    11.0191845730
Ni      2.4573004380     4.2561681970    11.0191845730
Ni      2.4573019230    -0.0000011100    11.0191845730
Ni      3.6859511800     2.1280835430    11.0191845730
Ni      4.9146004380     4.2561681970    11.0191845730
Ni      4.9146019230    -0.0000011100    11.0191845730
Ni      6.1432511800     2.1280835430    11.0191845730
Ni      7.3719004380     4.2561681970    11.0191845730
Ni      9.8291970100     5.6748892401    13.0324849556
Ni      4.9145980198     5.6748893593    13.0324852164
Ni      7.3718991758     1.4187202853    13.0324856500
Ni      8.6005492460     3.5468057814    13.0324864151
Ni      7.3718984520     5.6748900664    13.0324864346
Ni      2.4573016324     1.4187213286    13.0324867123
Ni      3.6859500153     3.5468058594    13.0324876950
Ni      6.1432488122     3.5468055587    13.0324879319
Ni      4.9146003559     1.4187209547    13.0324881305
Ni      4.9146024517     2.8374451427    15.0334585589
Ni      2.4573039655     2.8374470172    15.0334598186
Ni      6.1432518675     4.9655284072    15.0334598528
Ni      7.3719008977     2.8374462771    15.0334599804
Ni      3.6859555058     0.7093603620    15.0334602556
Ni      1.2286550209     0.7093609929    15.0334616076
Ni      3.6859521613     4.9655297045    15.0334616685
Ni      8.6005513471     4.9655301153    15.0334618667
Ni      6.1432529377     0.7093606827    15.0334623189
Ni      7.3718981461     4.2561658701    17.0436126492
Ni      2.4573001516     4.2561668027    17.0436139163
Ni      4.9146014848    -0.0000023770    17.0436145683
Ni      4.9146006221     4.2561672435    17.0436152860
Ni      0.0000023638    -0.0000021113    17.0436153847
Ni      6.1432512178     2.1280823767    17.0436158106
Ni      1.2286541909     2.1280837412    17.0436166733
Ni      2.4573047358    -0.0000005294    17.0436167517
Ni      3.6859557290     2.1280847607    17.0436183569
Ni      7.3685730229     1.4194115875    19.0370215831
Ni      9.8234521712     5.6705015020    19.0409572074
Ni      2.4559165936     1.4180651101    19.0424907115
Ni      4.9143840767     5.6705988645    19.0380475327
Ni      4.9109764006     1.4172276706    19.0446551479
Ni      3.6831367265     3.5434310648    19.0468235445
Ni      7.3690924906     5.6738361527    19.0483643564
Ni      8.6005194558     3.5420272492    19.0502870803
Ni      6.1355208069     3.5399002382    19.0494222184
Ni      4.8865368732     2.8180871903    21.0735473969
Ni      6.1415115754     4.9482999089    21.0320705332
Ni      3.6823212721     4.9645959499    21.0309686324
Ni      3.6804644304     0.7189828625    21.0552838409
Ni      2.4681253795     2.8219872581    21.0662966015
Ni      1.2203668368     0.7030064093    21.0229362550
Ni      7.3631450267     2.8368903279    21.0378165320
Ni      6.1419306468     0.7026589640    21.0290057965
Ni      8.5883638965     4.9535054965    21.0381199113
Ni      3.6710410832     2.1255775737    23.2080414020
Ni      1.2032094759     2.1167442745    23.0187051632
Ni      2.4498688558     4.2668951605    23.0251365818
Ni      6.1415867285     2.1153754462    23.0314568903
Ni     -0.0072245478    -0.0053886355    23.0595421909
Ni      2.4383935392    -0.0253003547    23.0030040782
Ni      7.3641611514     4.2491102947    23.0733745228
Ni      4.9082843404     4.2587497873    23.0312279885
Ni      4.9167205358    -0.0140107155    23.0188473924
O       3.4442806587     1.8860768229    25.2439899107
H       3.7080934919     0.9633397016    25.4620035944
H       5.0917384859     2.9006772942    26.0427627961
H       3.5037733885     3.7143156263    26.1487161668
C       4.0164676461     2.7481538661    26.2471929733
O       4.2638229154     0.7280203186    27.5480557549
H       5.2359856761     0.7527026620    27.5242691629
C       3.7749759859     2.0851687341    27.5974832384
H       2.6915547801     1.9739515052    27.7496436960
C       4.3436064446     2.8889742319    28.7516102904
H       4.0616004286     3.9505978443    28.6173178752
H       5.4484308775     2.8320556919    28.7351535966
O       3.8103589506     2.3613182012    29.9682750426
H       4.1902991957     2.8547149207    30.7121688661
86
Step 4 | ATOMIC_POSITIONS (angstrom) | Cartesian Angstrom
Ni      1.2286390390     0.7093535490     9.0125970590
Ni      2.4572760100     2.8374169220     9.0125970590
Ni      3.6859498400     4.9655441370     9.0125970590
Ni      3.6859144660     0.7093535490     9.0125970590
Ni      4.9145514370     2.8374169220     9.0125970590
Ni      6.1432252670     4.9655441370     9.0125970590
Ni      6.1432636120     0.7093535490     9.0125970590
Ni      7.3719005830     2.8374169220     9.0125970590
Ni      8.6005744130     4.9655441370     9.0125970590
Ni      0.0000019230    -0.0000011100    11.0191845730
Ni      1.2286511800     2.1280835430    11.0191845730
Ni      2.4573004380     4.2561681970    11.0191845730
Ni      2.4573019230    -0.0000011100    11.0191845730
Ni      3.6859511800     2.1280835430    11.0191845730
Ni      4.9146004380     4.2561681970    11.0191845730
Ni      4.9146019230    -0.0000011100    11.0191845730
Ni      6.1432511800     2.1280835430    11.0191845730
Ni      7.3719004380     4.2561681970    11.0191845730
Ni      9.8291970100     5.6748892401    13.0324849556
Ni      4.9145980198     5.6748893593    13.0324852164
Ni      7.3718991758     1.4187202853    13.0324856500
Ni      8.6005492460     3.5468057814    13.0324864151
Ni      7.3718984520     5.6748900664    13.0324864346
Ni      2.4573016324     1.4187213286    13.0324867123
Ni      3.6859500153     3.5468058594    13.0324876950
Ni      6.1432488122     3.5468055587    13.0324879319
Ni      4.9146003559     1.4187209547    13.0324881305
Ni      4.9146024517     2.8374451427    15.0334585589
Ni      2.4573039655     2.8374470172    15.0334598186
Ni      6.1432518675     4.9655284072    15.0334598528
Ni      7.3719008977     2.8374462771    15.0334599804
Ni      3.6859555058     0.7093603620    15.0334602556
Ni      1.2286550209     0.7093609929    15.0334616076
Ni      3.6859521613     4.9655297045    15.0334616685
Ni      8.6005513471     4.9655301153    15.0334618667
Ni      6.1432529377     0.7093606827    15.0334623189
Ni      7.3718981461     4.2561658701    17.0436126492
Ni      2.4573001516     4.2561668027    17.0436139163
Ni      4.9146014848    -0.0000023770    17.0436145683
Ni      4.9146006221     4.2561672435    17.0436152860
Ni      0.0000023638    -0.0000021113    17.0436153847
Ni      6.1432512178     2.1280823767    17.0436158106
Ni      1.2286541909     2.1280837412    17.0436166733
Ni      2.4573047358    -0.0000005294    17.0436167517
Ni      3.6859557290     2.1280847607    17.0436183569
Ni      7.3685927944     1.4163970584    19.0363465745
Ni      9.8258813056     5.6717312361    19.0395490192
Ni      2.4571242195     1.4183685523    19.0454745794
Ni      4.9117863339     5.6716647398    19.0372337687
Ni      4.9095796014     1.4177384893    19.0472990816
Ni      3.6832541667     3.5413325064    19.0494854936
Ni      7.3691095247     5.6724278115    19.0466049408
Ni      8.5988714554     3.5424868771    19.0489840693
Ni      6.1372617090     3.5406800659    19.0487587649
Ni      4.8942111587     2.8223998515    21.0727528348
Ni      6.1374994161     4.9530254912    21.0288724176
Ni      3.6812784016     4.9601863427    21.0340270291
Ni      3.6799282917     0.7115142521    21.0568388741
Ni      2.4609818993     2.8261481984    21.0656129432
Ni      1.2233034316     0.7042439864    21.0265556028
Ni      7.3637590373     2.8316384283    21.0348078986
Ni      6.1381304411     0.7042134408    21.0321542542
Ni      8.5929301653     4.9566626734    21.0329603924
Ni      3.6720401605     2.1240390686    23.1856057794
Ni      1.2032518994     2.1180750352    23.0402421929
Ni      2.4469079804     4.2664301748    23.0449336542
Ni      6.1427147562     2.1177806641    23.0508580133
Ni     -0.0077538462    -0.0063407301    23.0602376689
Ni      2.4381748753    -0.0242004185    23.0246206541
Ni      7.3637201586     4.2484619865    23.0740024558
Ni      4.9099727668     4.2593078657    23.0493819207
Ni      4.9161145763    -0.0149527766    23.0392486539
O       3.4428881018     1.8850133200    25.2447920392
H       3.7087355975     0.9631271638    25.4639650415
H       5.0917698901     2.9007537119    26.0426301819
H       3.5039891477     3.7139328549    26.1486323805
C       4.0154826415     2.7478490103    26.2471369957
O       4.2602840963     0.7286948702    27.5487317927
H       5.2391177978     0.7539525998    27.5250486578
C       3.7769067550     2.0853111820    27.5983700808
H       2.6915440386     1.9745850922    27.7496350160
C       4.3438947907     2.8892127516    28.7523749371
H       4.0625751520     3.9499584521    28.6171100896
H       5.4496662232     2.8331052847    28.7349191285
O       3.8114564874     2.3609122016    29.9684610262
H       4.1915942860     2.8557582243    30.7134368480
86
Step 5 | ATOMIC_POSITIONS (angstrom) | Cartesian Angstrom
Ni      1.2286390390     0.7093535490     9.0125970590
Ni      2.4572760100     2.8374169220     9.0125970590
Ni      3.6859498400     4.9655441370     9.0125970590
Ni      3.6859144660     0.7093535490     9.0125970590
Ni      4.9145514370     2.8374169220     9.0125970590
Ni      6.1432252670     4.9655441370     9.0125970590
Ni      6.1432636120     0.7093535490     9.0125970590
Ni      7.3719005830     2.8374169220     9.0125970590
Ni      8.6005744130     4.9655441370     9.0125970590
Ni      0.0000019230    -0.0000011100    11.0191845730
Ni      1.2286511800     2.1280835430    11.0191845730
Ni      2.4573004380     4.2561681970    11.0191845730
Ni      2.4573019230    -0.0000011100    11.0191845730
Ni      3.6859511800     2.1280835430    11.0191845730
Ni      4.9146004380     4.2561681970    11.0191845730
Ni      4.9146019230    -0.0000011100    11.0191845730
Ni      6.1432511800     2.1280835430    11.0191845730
Ni      7.3719004380     4.2561681970    11.0191845730
Ni      9.8291970100     5.6748892401    13.0324849556
Ni      4.9145980198     5.6748893593    13.0324852164
Ni      7.3718991758     1.4187202853    13.0324856500
Ni      8.6005492460     3.5468057814    13.0324864151
Ni      7.3718984520     5.6748900664    13.0324864346
Ni      2.4573016324     1.4187213286    13.0324867123
Ni      3.6859500153     3.5468058594    13.0324876950
Ni      6.1432488122     3.5468055587    13.0324879319
Ni      4.9146003559     1.4187209547    13.0324881305
Ni      4.9146024517     2.8374451427    15.0334585589
Ni      2.4573039655     2.8374470172    15.0334598186
Ni      6.1432518675     4.9655284072    15.0334598528
Ni      7.3719008977     2.8374462771    15.0334599804
Ni      3.6859555058     0.7093603620    15.0334602556
Ni      1.2286550209     0.7093609929    15.0334616076
Ni      3.6859521613     4.9655297045    15.0334616685
Ni      8.6005513471     4.9655301153    15.0334618667
Ni      6.1432529377     0.7093606827    15.0334623189
Ni      7.3718981461     4.2561658701    17.0436126492
Ni      2.4573001516     4.2561668027    17.0436139163
Ni      4.9146014848    -0.0000023770    17.0436145683
Ni      4.9146006221     4.2561672435    17.0436152860
Ni      0.0000023638    -0.0000021113    17.0436153847
Ni      6.1432512178     2.1280823767    17.0436158106
Ni      1.2286541909     2.1280837412    17.0436166733
Ni      2.4573047358    -0.0000005294    17.0436167517
Ni      3.6859557290     2.1280847607    17.0436183569
Ni      7.3685869715     1.4152835557    19.0362818764
Ni      9.8267883966     5.6721302790    19.0390314147
Ni      2.4574228303     1.4183413507    19.0465085047
Ni      4.9108287071     5.6719655125    19.0370421794
Ni      4.9091524598     1.4178086070    19.0482567033
Ni      3.6832807555     3.5406563095    19.0502924248
Ni      7.3690638008     5.6722399713    19.0454271983
Ni      8.5985297841     3.5424425896    19.0478328595
Ni      6.1376872778     3.5408667199    19.0480214533
Ni      4.8967576622     2.8238707405    21.0745402202
Ni      6.1363632999     4.9548506686    21.0310764075
Ni      3.6808477263     4.9587661426    21.0380711663
Ni      3.6797829946     0.7092821306    21.0597961353
Ni      2.4586325772     2.8274331393    21.0676813793
Ni      1.2240307506     0.7046297149    21.0311455841
Ni      7.3641429121     2.8300382876    21.0370478193
Ni      6.1368903392     0.7046700467    21.0363248655
Ni      8.5942972747     4.9578322585    21.0344542398
Ni      3.6724860029     2.1233126057    23.1764802437
Ni      1.2028495376     2.1187139208    23.0487603126
Ni      2.4454399750     4.2664831138    23.0525651713
Ni      6.1435579412     2.1186787373    23.0585076878
Ni     -0.0081386861    -0.0066772807    23.0607892520
Ni      2.4378747537    -0.0245143341    23.0329958263
Ni      7.3635183711     4.2485407443    23.0732042731
Ni      4.9107308686     4.2598199626    23.0564580187
Ni      4.9160673010    -0.0159679726    23.0471335505
O       3.4423345559     1.8849381520    25.2439150526
H       3.7090728124     0.9631458163    25.4649205078
H       5.0912240557     2.9006279688    26.0425266636
H       3.5039203563     3.7138430212    26.1486585425
C       4.0158028739     2.7475743085    26.2468524891
O       4.2646549729     0.7285578697    27.5491755406
H       5.2356332720     0.7541937834    27.5256306354
C       3.7757456445     2.0857625882    27.5985984799
H       2.6921433937     1.9752950736    27.7497777379
C       4.3448130310     2.8892570632    28.7525404771
H       4.0629170635     3.9500117381    28.6171292603
H       5.4501874028     2.8336105463    28.7349496337
O       3.8127264238     2.3614545075    29.9698670607
H       4.1918077347     2.8556475417    30.7131383613
86
Step 6 | ATOMIC_POSITIONS (angstrom) | Cartesian Angstrom
Ni      1.2286390390     0.7093535490     9.0125970590
Ni      2.4572760100     2.8374169220     9.0125970590
Ni      3.6859498400     4.9655441370     9.0125970590
Ni      3.6859144660     0.7093535490     9.0125970590
Ni      4.9145514370     2.8374169220     9.0125970590
Ni      6.1432252670     4.9655441370     9.0125970590
Ni      6.1432636120     0.7093535490     9.0125970590
Ni      7.3719005830     2.8374169220     9.0125970590
Ni      8.6005744130     4.9655441370     9.0125970590
Ni      0.0000019230    -0.0000011100    11.0191845730
Ni      1.2286511800     2.1280835430    11.0191845730
Ni      2.4573004380     4.2561681970    11.0191845730
Ni      2.4573019230    -0.0000011100    11.0191845730
Ni      3.6859511800     2.1280835430    11.0191845730
Ni      4.9146004380     4.2561681970    11.0191845730
Ni      4.9146019230    -0.0000011100    11.0191845730
Ni      6.1432511800     2.1280835430    11.0191845730
Ni      7.3719004380     4.2561681970    11.0191845730
Ni      9.8291970100     5.6748892401    13.0324849556
Ni      4.9145980198     5.6748893593    13.0324852164
Ni      7.3718991758     1.4187202853    13.0324856500
Ni      8.6005492460     3.5468057814    13.0324864151
Ni      7.3718984520     5.6748900664    13.0324864346
Ni      2.4573016324     1.4187213286    13.0324867123
Ni      3.6859500153     3.5468058594    13.0324876950
Ni      6.1432488122     3.5468055587    13.0324879319
Ni      4.9146003559     1.4187209547    13.0324881305
Ni      4.9146024517     2.8374451427    15.0334585589
Ni      2.4573039655     2.8374470172    15.0334598186
Ni      6.1432518675     4.9655284072    15.0334598528
Ni      7.3719008977     2.8374462771    15.0334599804
Ni      3.6859555058     0.7093603620    15.0334602556
Ni      1.2286550209     0.7093609929    15.0334616076
Ni      3.6859521613     4.9655297045    15.0334616685
Ni      8.6005513471     4.9655301153    15.0334618667
Ni      6.1432529377     0.7093606827    15.0334623189
Ni      7.3718981461     4.2561658701    17.0436126492
Ni      2.4573001516     4.2561668027    17.0436139163
Ni      4.9146014848    -0.0000023770    17.0436145683
Ni      4.9146006221     4.2561672435    17.0436152860
Ni      0.0000023638    -0.0000021113    17.0436153847
Ni      6.1432512178     2.1280823767    17.0436158106
Ni      1.2286541909     2.1280837412    17.0436166733
Ni      2.4573047358    -0.0000005294    17.0436167517
Ni      3.6859557290     2.1280847607    17.0436183569
Ni      7.3685653821     1.4144740176    19.0370364430
Ni      9.8274426057     5.6723314545    19.0391887328
Ni      2.4573824566     1.4180845712    19.0476464968
Ni      4.9101422901     5.6720549359    19.0376069807
Ni      4.9089995993     1.4176642957    19.0493709821
Ni      3.6832681885     3.5403217293    19.0510773989
Ni      7.3689663326     5.6724683051    19.0443670897
Ni      8.5985656089     3.5421757908    19.0466031646
Ni      6.1378037009     3.5409267563    19.0473450149
Ni      4.8983484233     2.8248684799    21.0786552491
Ni      6.1359692697     4.9562987772    21.0370789459
Ni      3.6804604568     4.9579447222    21.0450216287
Ni      3.6797364274     0.7083081662    21.0652043881
Ni      2.4572236739     2.8280823183    21.0723260127
Ni      1.2240933589     0.7048411258    21.0389896847
Ni      7.3646302019     2.8293337440    21.0430821726
Ni      6.1361540964     0.7048845674    21.0435070486
Ni      8.5948770916     4.9586944846    21.0399195642
Ni      3.6729683768     2.1225403805    23.1685354778
Ni      1.2020335831     2.1193897579    23.0565141865
Ni      2.4438705465     4.2667395616    23.0592469519
Ni      6.1447105701     2.1193711436    23.0654203893
Ni     -0.0087075389    -0.0069150817    23.0621592725
Ni      2.4373408533    -0.0256798180    23.0403856723
Ni      7.3632875849     4.2490249899    23.0715929121
Ni      4.9114098200     4.2605424484    23.0627664137
Ni      4.9162495364    -0.0175857173    23.0540744616
O       3.4423475486     1.8849413246    25.2422512836
H       3.7092869100     0.9638129822    25.4657008340
H       5.0907430085     2.9003541450    26.0422765984
H       3.5037724577     3.7137949069    26.1487127941
C       4.0154395798     2.7469784252    26.2462668121
O       4.2644293245     0.7286999168    27.5499662913
H       5.2364250164     0.7547924463    27.5263510620
C       3.7757397551     2.0857700110    27.5985748692
H       2.6923732986     1.9759735898    27.7502428662
C       4.3459384242     2.8892917630    28.7528442797
H       4.0632493114     3.9504283735    28.6173605150
H       5.4508196661     2.8341399856    28.7350200725
O       3.8140288790     2.3615206050    29.9701701045
H       4.1927794005     2.8563579018    30.7139142773
86
Step 7 | ATOMIC_POSITIONS (angstrom) | Cartesian Angstrom
Ni      1.2286390390     0.7093535490     9.0125970590
Ni      2.4572760100     2.8374169220     9.0125970590
Ni      3.6859498400     4.9655441370     9.0125970590
Ni      3.6859144660     0.7093535490     9.0125970590
Ni      4.9145514370     2.8374169220     9.0125970590
Ni      6.1432252670     4.9655441370     9.0125970590
Ni      6.1432636120     0.7093535490     9.0125970590
Ni      7.3719005830     2.8374169220     9.0125970590
Ni      8.6005744130     4.9655441370     9.0125970590
Ni      0.0000019230    -0.0000011100    11.0191845730
Ni      1.2286511800     2.1280835430    11.0191845730
Ni      2.4573004380     4.2561681970    11.0191845730
Ni      2.4573019230    -0.0000011100    11.0191845730
Ni      3.6859511800     2.1280835430    11.0191845730
Ni      4.9146004380     4.2561681970    11.0191845730
Ni      4.9146019230    -0.0000011100    11.0191845730
Ni      6.1432511800     2.1280835430    11.0191845730
Ni      7.3719004380     4.2561681970    11.0191845730
Ni      9.8291970100     5.6748892401    13.0324849556
Ni      4.9145980198     5.6748893593    13.0324852164
Ni      7.3718991758     1.4187202853    13.0324856500