116
Step 1 | ATOMIC_POSITIONS (angstrom) | Cartesian Angstrom
NI      0.0009872020    -0.0000024260    12.0382123380
NI      1.2296369450     2.1280796380    12.0382123380
NI      2.4582866880     4.2561617010    12.0382123380
NI      3.6869364310     6.3842437650    12.0382123380
NI      4.9155861730     8.5123258290    12.0382123380
NI      2.4583643270    -0.0000024260    12.0382123380
NI      3.6870140700     2.1280796380    12.0382123380
NI      4.9156638130     4.2561617010    12.0382123380
NI      6.1443135560     6.3842437650    12.0382123380
NI      7.3729632980     8.5123258290    12.0382123380
NI      4.9156185770    -0.0000024260    12.0382123380
NI      6.1442683200     2.1280796380    12.0382123380
NI      7.3729180630     4.2561617010    12.0382123380
NI      8.6015678060     6.3842437650    12.0382123380
NI      9.8302175480     8.5123258290    12.0382123380
NI      7.3728728270    -0.0000024260    12.0382123380
NI      8.6015225700     2.1280796380    12.0382123380
NI      9.8301723130     4.2561617010    12.0382123380
NI     11.0588220560     6.3842437650    12.0382123380
NI     12.2874717980     8.5123258290    12.0382123380
NI      9.8302499520    -0.0000024260    12.0382123380
NI     11.0588996950     2.1280796380    12.0382123380
NI     12.2875494380     4.2561617010    12.0382123380
NI     13.5161991810     6.3842437650    12.0382123380
NI     14.7448489230     8.5123258290    12.0382123380
NI      2.4582053012     1.4187249244    14.0444693018
NI      3.6868599461     3.5468643708    14.0443569795
NI      4.9152383058     5.6751414760    14.0439215677
NI      6.1437924940     7.8029511190    14.0437278408
NI      7.3727256116     9.9310512497    14.0443444947
NI      4.9156707793     1.4187326996    14.0442706401
NI      6.1441843729     3.5466829734    14.0440153393
NI      7.3728629884     5.6750368699    14.0440323439
NI      8.6015498981     7.8028837880    14.0442964932
NI      9.8302573914     9.9310333459    14.0443125448
NI      7.3729143335     1.4184245564    14.0438677943
NI      8.6016075172     3.5465388134    14.0436325518
NI      9.8304995630     5.6750178865    14.0439965551
NI     11.0589702080     7.8029874147    14.0439336036
NI     12.2873312402     9.9310529096    14.0446941384
NI      9.8300689172     1.4187498627    14.0443184513
NI     11.0588237742     3.5467702178    14.0443332487
NI     12.2874460595     5.6748055615    14.0445059942
NI     13.5160432098     7.8028667463    14.0445022699
NI     14.7448285797     9.9310891485    14.0445249966
NI     12.2875529231     1.4187026469    14.0443775343
NI     13.5162396629     3.5468143682    14.0445305586
NI     14.7449348835     5.6747834157    14.0445642130
NI     15.9737710132     7.8028853784    14.0445940269
NI     17.2022823429     9.9308537643    14.0445295069
NI      1.2295504817     0.7095214571    16.0514544310
NI      2.4581458533     2.8374655565    16.0514172959
NI      3.6874049584     4.9653941031    16.0520160498
NI      4.9164874029     7.0930341586    16.0525537783
NI      6.1443280204     9.2214874530    16.0516545836
NI      3.6869270727     0.7094653832    16.0511514269
NI      4.9159876609     2.8376622802    16.0514093843
NI      6.1461376828     4.9647150553    16.0511940581
NI      7.3739055931     7.0927088908    16.0514612662
NI      8.6015755780     9.2211830262    16.0514262317
NI      6.1443881012     0.7100072944    16.0521094707
NI      7.3730144487     2.8397098909    16.0517538692
NI      8.5998430681     4.9657306876    16.0514690126
NI      9.8295381663     7.0931659142    16.0508809102
NI     11.0585947123     9.2212338846    16.0517170900
NI      8.6011744696     0.7098957499    16.0521212893
NI      9.8294051976     2.8376097037    16.0511219452
NI     11.0576177716     4.9655839368    16.0518133953
NI     12.2869287480     7.0937027093    16.0516341763
NI     13.5160481610     9.2215104056    16.0514990853
NI     11.0590019456     0.7094534222    16.0513925375
NI     12.2876337758     2.8373808169    16.0512789210
NI     13.5162821446     4.9654621298    16.0512132006
NI     14.7446382794     7.0936721234    16.0514310442
NI     15.9734298740     9.2217319372    16.0514325785
NI      0.0010350920    -0.0001482971    18.0585108397
NI      1.2295938027     2.1280390055    18.0581514156
NI      2.4582123989     4.2562264505    18.0583321378
NI      3.6865587221     6.3845063098    18.0585267251
NI      4.9156723949     8.5123614620    18.0586090963
NI      2.4583342916    -0.0001389568    18.0590484229
NI      3.6865012908     2.1277041119    18.0586450216
NI      4.9109334574     4.2562511554    18.0571563911
NI      6.1379699929     6.3880848630    18.0549180489
NI      7.3707337593     8.5168057142    18.0552459694
NI      4.9154582112    -0.0002188198    18.0588022789
NI      6.1421754977     2.1240501720    18.0567578533
NI      7.3695374526     4.2506845386    18.0721089948
NI      8.6057517206     6.3995448397    18.0411261263
NI      9.8324825373     8.5166879594    18.0541703675
NI      7.3728493689    -0.0004545565    18.0585256614
NI      8.6037113264     2.1241455915    18.0573872349
NI      9.8386743008     4.2507326697    18.0504856434
NI     11.0639816373     6.3839999679    18.0548980924
NI     12.2873421694     8.5121193083    18.0588942505
NI      9.8303962644     0.0000537518    18.0585140224
NI     11.0593794296     2.1282131987    18.0589507752
NI     12.2870544578     4.2561446090    18.0593788619
NI     13.5158608393     6.3843025757    18.0587421628
NI     14.7447663649     8.5123143935    18.0583000441
O       7.4077796433     4.3089559226    19.9067542334
O       8.6573214929     6.3456539339    19.9786162747
H       8.9815574387     5.3962782512    20.0216105621
H       7.4133848209     4.3205613443    20.8794465790
H      10.2274689512     7.0513378443    21.0518183681
H       8.7508116128     8.0570068884    21.0493328571
C       9.1246644399     7.0408417032    21.1028653529
O       9.1339983688     4.9686154828    22.3272617873
H      10.1135666008     5.0243028315    22.3347456402
C       8.6555423131     6.3172552465    22.3621177550
H       7.5409645390     6.2334030813    22.3585272515
C       9.1279793025     7.0111071716    23.6252556423
H       8.7843783936     8.0511031326    23.6561915695
H      10.2373471732     6.9991294070    23.6564155418
O       8.6465817937     6.3144247765    24.7723527659
H       8.9903102213     6.7906100585    25.5460823866
116
Step 2 | ATOMIC_POSITIONS (angstrom) | Cartesian Angstrom
NI      0.0009872020    -0.0000024260    12.0382123380
NI      1.2296369450     2.1280796380    12.0382123380
NI      2.4582866880     4.2561617010    12.0382123380
NI      3.6869364310     6.3842437650    12.0382123380
NI      4.9155861730     8.5123258290    12.0382123380
NI      2.4583643270    -0.0000024260    12.0382123380
NI      3.6870140700     2.1280796380    12.0382123380
NI      4.9156638130     4.2561617010    12.0382123380
NI      6.1443135560     6.3842437650    12.0382123380
NI      7.3729632980     8.5123258290    12.0382123380
NI      4.9156185770    -0.0000024260    12.0382123380
NI      6.1442683200     2.1280796380    12.0382123380
NI      7.3729180630     4.2561617010    12.0382123380
NI      8.6015678060     6.3842437650    12.0382123380
NI      9.8302175480     8.5123258290    12.0382123380
NI      7.3728728270    -0.0000024260    12.0382123380
NI      8.6015225700     2.1280796380    12.0382123380
NI      9.8301723130     4.2561617010    12.0382123380
NI     11.0588220560     6.3842437650    12.0382123380
NI     12.2874717980     8.5123258290    12.0382123380
NI      9.8302499520    -0.0000024260    12.0382123380
NI     11.0588996950     2.1280796380    12.0382123380
NI     12.2875494380     4.2561617010    12.0382123380
NI     13.5161991810     6.3842437650    12.0382123380
NI     14.7448489230     8.5123258290    12.0382123380
NI      2.4581459871     1.4188042814    14.0442212513
NI      3.6867764776     3.5470249515    14.0438873555
NI      4.9146667770     5.6757121789    14.0426355986
NI      6.1430233961     7.8029592820    14.0420158293
NI      7.3725173459     9.9310977533    14.0438693856
NI      4.9158093318     1.4188373464    14.0436308361
NI      6.1439642895     3.5464608506    14.0427741397
NI      7.3726863735     5.6754416164    14.0426574052
NI      8.6014890958     7.8028374396    14.0435204941
NI      9.8303308460     9.9310571574    14.0437607964
NI      7.3729973387     1.4179021051    14.0424842639
NI      8.6017292926     3.5460719596    14.0416763562
NI      9.8311431788     5.6753140969    14.0427294202
NI     11.0593005260     7.8031287962    14.0425286847
NI     12.2870508296     9.9311487539    14.0450138353
NI      9.8299581759     1.4188249300    14.0437531575
NI     11.0589102278     3.5467361313    14.0437997189
NI     12.2875033041     5.6747047954    14.0443577586
NI     13.5160132005     7.8027339449    14.0443068780
NI     14.7450618202     9.9312542493    14.0444496154
NI     12.2876587398     1.4187332067    14.0439298367
NI     13.5163892138     3.5468606079    14.0443877135
NI     14.7452602880     5.6746603125    14.0445374689
NI     15.9744469211     7.8027671625    14.0447020374
NI     17.2026594835     9.9305237678    14.0444364479
NI      1.2293894573     0.7097177444    16.0524334242
NI      2.4578788229     2.8374551452    16.0522537167
NI      3.6883629197     4.9651538782    16.0539012750
NI      4.9182283262     7.0918807790    16.0552814401
NI      6.1443164783     9.2210615117    16.0525911758
NI      3.6867271018     0.7095790978    16.0514529033
NI      4.9166406340     2.8380766972    16.0520750089
NI      6.1501463783     4.9627033188    16.0521563495
NI      7.3751687003     7.0911856224    16.0512761485
NI      8.6014231408     9.2202899989    16.0518503878
NI      6.1446720790     0.7111997148    16.0542123029
NI      7.3732267322     2.8445974534    16.0537137236
NI      8.5958538211     4.9654820994    16.0529239143
NI      9.8290237346     7.0925634766    16.0492886820
NI     11.0582637788     9.2204118271    16.0527770239
NI      8.6009418169     0.7109025881    16.0542364306
NI      9.8283192518     2.8375519189    16.0506030028
NI     11.0559485779     4.9657038990    16.0527673697
NI     12.2865941706     7.0939886954    16.0525489094
NI     13.5164381246     9.2211173245    16.0524870525
NI     11.0591985271     0.7095677022    16.0521901134
NI     12.2877700761     2.8372467516    16.0518391724
NI     13.5163882171     4.9652709003    16.0516579241
NI     14.7442769885     7.0937600395    16.0523118362
NI     15.9733198688     9.2217362537    16.0522699712
NI      0.0009899818    -0.0001295379    18.0607937161
NI      1.2295032323     2.1279272819    18.0596434780
NI      2.4577029589     4.2563225235    18.0602695715
NI      3.6852469975     6.3852188997    18.0609006525
NI      4.9155220063     8.5128323722    18.0612294420
NI      2.4582352001    -0.0001387514    18.0625236096
NI      3.6851665732     2.1267621705    18.0612028777
NI      4.9008110707     4.2564094455    18.0562307805
NI      6.1252910105     6.3959294474    18.0493460084
NI      7.3657533472     8.5266932812    18.0506026745
NI      4.9151324362    -0.0005977884    18.0617672482
NI      6.1375774454     2.1152967902    18.0549915354
NI      7.3631101394     4.2404750738    18.0993249394
NI      8.6146162578     6.4297100251    18.0156008367
NI      9.8377317350     8.5264738434    18.0471519106
NI      7.3727937680    -0.0017248229    18.0608773066
NI      8.6083620756     2.1157103999    18.0570502403
NI      9.8555686742     4.2405245191    18.0358013392
NI     11.0746479509     6.3834686823    18.0496286826
NI     12.2872759295     8.5118235456    18.0620652306
NI      9.8308636258    -0.0000985989    18.0608714723
NI     11.0607859094     2.1279921778    18.0622205443
NI     12.2866397082     4.2560356250    18.0636407874
NI     13.5154963548     6.3844446726    18.0615264098
NI     14.7445746750     8.5122721452    18.0601290639
O       7.3930488423     4.2685585361    19.9027953227
O       8.6667425037     6.3484717585    20.0059113769
H       8.9528136672     5.3907164868    20.0384143411
H       7.4090464582     4.3053591725    20.8674112305
H      10.2382388674     7.0622618669    21.0631347447
H       8.7458330038     8.0734044559    21.0437621792
C       9.1407513868     7.0605252615    21.1205949343
O       9.1359977949     4.9537305532    22.3187423356
H      10.1077934564     5.0153362794    22.3379798759
C       8.6645203166     6.3174833325    22.3750967360
H       7.5537694028     6.2366480453    22.3597972727
C       9.1299191787     7.0141101072    23.6400951638
H       8.7840097902     8.0676014491    23.6444328249
H      10.2440532904     7.0065675869    23.6410858828
O       8.6357631161     6.3071142839    24.7787704330
H       8.9859497764     6.7853609758    25.5479547766
