86
Step 1 | ATOMIC_POSITIONS (angstrom) | Cartesian Angstrom
Ni      1.2286390390     0.7093535490     9.0128649340
Ni      0.0000019230    -0.0000011100    11.0189462060
Ni      2.4581886360     1.4192341220    12.9820006980
Ni      1.2300181510     0.7101493710    14.9469571230
Ni      2.4572760100     2.8374169220     9.0128649340
Ni      1.2286511800     2.1280835430    11.0189462060
Ni      3.6866443280     3.5473571860    12.9815172510
Ni      2.4589274570     2.8378950180    14.9472126230
Ni      3.6859498400     4.9655441370     9.0128649340
Ni      2.4573004370     4.2561681970    11.0189462060
Ni      4.9152433530     5.6754625070    12.9817330970
Ni      3.6873641450     4.9659340110    14.9472361150
Ni      3.6859144660     0.7093535490     9.0128649340
Ni      2.4573019230    -0.0000011100    11.0189462060
Ni      4.9154250810     1.4190473550    12.9815171700
Ni      3.6871547190     0.7105440160    14.9472125230
Ni      4.9145514370     2.8374169220     9.0128649340
Ni      3.6859511800     2.1280835430    11.0189462060
Ni      6.1438734720     3.5471661970    12.9811357840
Ni      4.9159520710     2.8382250840    14.9474526980
Ni      6.1432252670     4.9655441370     9.0128649340
Ni      4.9146004370     4.2561681970    11.0189462060
Ni      7.3724754910     5.6753002550    12.9812984850
Ni      6.1444225000     4.9663508800    14.9474869000
Ni      6.1432636120     0.7093535490     9.0128649340
Ni      4.9146019230    -0.0000011100    11.0189462060
Ni      7.3727178060     1.4189936100    12.9817330850
Ni      6.1443087910     0.7103827880    14.9472361760
Ni      7.3719005830     2.8374169220     9.0128649340
Ni      6.1432511800     2.1280835430    11.0189462060
Ni      8.6011926510     3.5471005460    12.9812984900
Ni      7.3731982530     2.8380497740    14.9474870240
Ni      8.6005744130     4.9655441370     9.0128649340
Ni      7.3719004370     4.2561681970    11.0189462060
Ni      9.8297970970     5.6752360910    12.9815758290
Ni      8.6015404070     4.9661014020    14.9475110630
Cu      0.0008899416     0.0006229463    23.2358066295
Cu      1.2251453311     2.1286506946    23.2329177459
Cu      2.4555345100     4.2624428642    23.2324428559
Cu      2.4567004986    -0.0038481452    23.2335128409
Cu      0.0002371770     0.0001345310    17.0095566530
Cu      2.4589608670     1.4196797340    19.0943775690
Cu      1.2309711155     0.7108286163    21.1873153770
Cu      3.6884020601     2.1356330043    23.2292824961
Cu      1.2289989080     2.1281620840    17.0097304640
Cu      3.6875289400     3.5476978260    19.0946919410
Cu      2.4596656762     2.8382893087    21.1880209918
Cu      4.9185408665     4.2619873057    23.2319050088
Cu      4.9188800600    -0.0044510486    23.2333638651
Cu      2.4575439700     0.0002605240    17.0097303500
Cu      4.9161626060     1.4196427100    19.0946919880
Cu      3.6878230762     0.7115900700    21.1881690822
Cu      6.1494022304     2.1278809075    23.2328489179
Cu      3.6862398640     2.1282500140    17.0099390000
Cu      6.1447371500     3.5476645340    19.0950538380
Cu      4.9158842869     2.8382281368    21.1876296397
Cu      7.3726842469     4.2570032732    23.2372021878
Cu      2.4574811020     4.2563400380    17.0097910800
Cu      4.9161045970     5.6755957940    19.0946384990
Cu      3.6882393123     4.9660946093    21.1872269166
Cu      4.9147998590     4.2563702540    17.0100125200
Cu      7.3732918200     5.6755186520    19.0949125010
Cu      6.1454391653     4.9661901429    21.1869496591
Cu      4.9148412440     0.0000691580    17.0097911200
Cu      7.3732641670     1.4196723070    19.0946385540
Cu      6.1451156261     0.7110838567    21.1869232258
Cu      6.1435260460     2.1281549480    17.0100126890
Cu      8.6017901990     3.5476978670    19.0949125200
Cu      7.3738749816     2.8390574150    21.1873839861
Cu      7.3720625000     4.2562615990    17.0100868050
Cu      9.8303874060     5.6755765310    19.0949145280
Cu      8.6030014079     4.9665484752    21.1867876038
O       4.1478778129     0.8386802699    27.6425844461
O       3.6547822114     2.1935896424    25.2725717056
O       3.6601502188     2.1855187545    30.0901971812
C       3.6702383215     2.1882142821    27.6776289826
C       4.1374083377     2.9091468852    26.4217844376
C       4.1422587557     2.8826190050    28.9399009347
H       2.5548495154     2.1040791974    27.6741242050
H       5.2409402395     2.9228528916    26.3677923892
H       3.7650317835     3.9275253743    26.3645687228
H       3.7983333286     3.9224455428    28.9726634696
H       5.2515519940     2.8706073075    28.9727209821
H       5.1281011065     0.8973097340    27.6505666216
H       4.0039767910     1.2718595888    25.3354644408
H       4.0043194271     2.6620285229    30.8618870577
86
Step 2 | ATOMIC_POSITIONS (angstrom) | Cartesian Angstrom
Ni      1.2286390390     0.7093535490     9.0128649340
Ni      0.0000019230    -0.0000011100    11.0189462060
Ni      2.4581886360     1.4192341220    12.9820006980
Ni      1.2300181510     0.7101493710    14.9469571230
Ni      2.4572760100     2.8374169220     9.0128649340
Ni      1.2286511800     2.1280835430    11.0189462060
Ni      3.6866443280     3.5473571860    12.9815172510
Ni      2.4589274570     2.8378950180    14.9472126230
Ni      3.6859498400     4.9655441370     9.0128649340
Ni      2.4573004370     4.2561681970    11.0189462060
Ni      4.9152433530     5.6754625070    12.9817330970
Ni      3.6873641450     4.9659340110    14.9472361150
Ni      3.6859144660     0.7093535490     9.0128649340
Ni      2.4573019230    -0.0000011100    11.0189462060
Ni      4.9154250810     1.4190473550    12.9815171700
Ni      3.6871547190     0.7105440160    14.9472125230
Ni      4.9145514370     2.8374169220     9.0128649340
Ni      3.6859511800     2.1280835430    11.0189462060
Ni      6.1438734720     3.5471661970    12.9811357840
Ni      4.9159520710     2.8382250840    14.9474526980
Ni      6.1432252670     4.9655441370     9.0128649340
Ni      4.9146004370     4.2561681970    11.0189462060
Ni      7.3724754910     5.6753002550    12.9812984850
Ni      6.1444225000     4.9663508800    14.9474869000
Ni      6.1432636120     0.7093535490     9.0128649340
Ni      4.9146019230    -0.0000011100    11.0189462060
Ni      7.3727178060     1.4189936100    12.9817330850
Ni      6.1443087910     0.7103827880    14.9472361760
Ni      7.3719005830     2.8374169220     9.0128649340
Ni      6.1432511800     2.1280835430    11.0189462060
Ni      8.6011926510     3.5471005460    12.9812984900
Ni      7.3731982530     2.8380497740    14.9474870240
Ni      8.6005744130     4.9655441370     9.0128649340
Ni      7.3719004370     4.2561681970    11.0189462060
Ni      9.8297970970     5.6752360910    12.9815758290
Ni      8.6015404070     4.9661014020    14.9475110630
Cu     -0.0000110795     0.0002534975    23.2382518977
Cu      1.2176944826     2.1281968188    23.2307808170
Cu      2.4511195358     4.2710870689    23.2291310508
Cu      2.4538938790    -0.0105951934    23.2323462804
Cu      0.0002371770     0.0001345310    17.0095566530
Cu      2.4589608670     1.4196797340    19.0943775690
Cu      1.2313483099     0.7111919859    21.1866533605
Cu      3.6901613852     2.1464343606    23.2227775432
Cu      1.2289989080     2.1281620840    17.0097304640
Cu      3.6875289400     3.5476978260    19.0946919410
Cu      2.4602356878     2.8380720707    21.1883909739
Cu      4.9231585849     4.2700769731    23.2280691805
Cu      4.9232775912    -0.0115342682    23.2316530543
Cu      2.4575439700     0.0002605240    17.0097303500
Cu      4.9161626060     1.4196427100    19.0946919880
Cu      3.6878924257     0.7132467265    21.1890672366
Cu      6.1569293228     2.1266756467    23.2306242138
Cu      3.6862398640     2.1282500140    17.0099390000
Cu      6.1447371500     3.5476645340    19.0950538380
Cu      4.9154645482     2.8379993045    21.1869853623
Cu      7.3727295577     4.2575924841    23.2418971468
Cu      2.4574811020     4.2563400380    17.0097910800
Cu      4.9161045970     5.6755957940    19.0946384990
Cu      3.6880912844     4.9653274583    21.1862301170
Cu      4.9147998590     4.2563702540    17.0100125200
Cu      7.3732918200     5.6755186520    19.0949125010
Cu      6.1456438450     4.9656599450    21.1851387129
Cu      4.9148412440     0.0000691580    17.0097911200
Cu      7.3732641670     1.4196723070    19.0946385540
Cu      6.1446645568     0.7113780879    21.1855268106
Cu      6.1435260460     2.1281549480    17.0100126890
Cu      8.6017901990     3.5476978670    19.0949125200
Cu      7.3738935697     2.8395594476    21.1863747393
Cu      7.3720625000     4.2562615990    17.0100868050
Cu      9.8303874060     5.6755765310    19.0949145280
Cu      8.6026661703     4.9658323020    21.1848344021
O       4.1511553422     0.8256777080    27.6353503871
O       3.6396301311     2.1786343365    25.2807862853
O       3.6508087275     2.1790909446    30.0950145252
C       3.6745618663     2.1848122834    27.6854988278
C       4.1428686248     2.9139231245    26.4257419964
C       4.1448404776     2.8847259038    28.9513902565
H       2.5661186763     2.1054888123    27.6745994385
H       5.2459265633     2.9298691081    26.3739196437
H       3.7610167187     3.9366103148    26.3573872304
H       3.7980267748     3.9350936883    28.9639048950
H       5.2566374111     2.8765187509    28.9611706673
H       5.1233396211     0.8924079605    27.6527667703
H       4.0003895452     1.2620551364    25.3445306797
H       4.0016547031     2.6589255134    30.8640670221
86
Step 3 | ATOMIC_POSITIONS (angstrom) | Cartesian Angstrom
Ni      1.2286390390     0.7093535490     9.0128649340
Ni      0.0000019230    -0.0000011100    11.0189462060
Ni      2.4581886360     1.4192341220    12.9820006980
Ni      1.2300181510     0.7101493710    14.9469571230
Ni      2.4572760100     2.8374169220     9.0128649340
Ni      1.2286511800     2.1280835430    11.0189462060
Ni      3.6866443280     3.5473571860    12.9815172510
Ni      2.4589274570     2.8378950180    14.9472126230
Ni      3.6859498400     4.9655441370     9.0128649340
Ni      2.4573004370     4.2561681970    11.0189462060
Ni      4.9152433530     5.6754625070    12.9817330970
Ni      3.6873641450     4.9659340110    14.9472361150
Ni      3.6859144660     0.7093535490     9.0128649340
Ni      2.4573019230    -0.0000011100    11.0189462060
Ni      4.9154250810     1.4190473550    12.9815171700
Ni      3.6871547190     0.7105440160    14.9472125230
Ni      4.9145514370     2.8374169220     9.0128649340
Ni      3.6859511800     2.1280835430    11.0189462060
Ni      6.1438734720     3.5471661970    12.9811357840
Ni      4.9159520710     2.8382250840    14.9474526980
Ni      6.1432252670     4.9655441370     9.0128649340
Ni      4.9146004370     4.2561681970    11.0189462060
Ni      7.3724754910     5.6753002550    12.9812984850
Ni      6.1444225000     4.9663508800    14.9474869000
Ni      6.1432636120     0.7093535490     9.0128649340
Ni      4.9146019230    -0.0000011100    11.0189462060
Ni      7.3727178060     1.4189936100    12.9817330850
Ni      6.1443087910     0.7103827880    14.9472361760
Ni      7.3719005830     2.8374169220     9.0128649340
Ni      6.1432511800     2.1280835430    11.0189462060
Ni      8.6011926510     3.5471005460    12.9812984900
Ni      7.3731982530     2.8380497740    14.9474870240
Ni      8.6005744130     4.9655441370     9.0128649340
Ni      7.3719004370     4.2561681970    11.0189462060
Ni      9.8297970970     5.6752360910    12.9815758290
Ni      8.6015404070     4.9661014020    14.9475110630
Cu     -0.0006824657     0.0000044083    23.2409910028
Cu      1.2117510611     2.1277829079    23.2283280048
Cu      2.4470888032     4.2790570762    23.2255047342
Cu      2.4522833798    -0.0153129709    23.2307672718
Cu      0.0002371770     0.0001345310    17.0095566530
Cu      2.4589608670     1.4196797340    19.0943775690
Cu      1.2316622481     0.7113728313    21.1859936609
Cu      3.6921495610     2.1572138113    23.2188012881
Cu      1.2289989080     2.1281620840    17.0097304640
Cu      3.6875289400     3.5476978260    19.0946919410
Cu      2.4603284273     2.8380328502    21.1885767266
Cu      4.9275741181     4.2776716293    23.2238964221
Cu      4.9264491884    -0.0165378204    23.2295659308
Cu      2.4575439700     0.0002605240    17.0097303500
Cu      4.9161626060     1.4196427100    19.0946919880
Cu      3.6879510289     0.7145648467    21.1903907305
Cu      6.1630963360     2.1255980787    23.2281824752
Cu      3.6862398640     2.1282500140    17.0099390000
Cu      6.1447371500     3.5476645340    19.0950538380
Cu      4.9155535218     2.8379681001    21.1860198632
Cu      7.3727756351     4.2580413437    23.2472893959
Cu      2.4574811020     4.2563400380    17.0097910800
Cu      4.9161045970     5.6755957940    19.0946384990
Cu      3.6879338778     4.9648825292    21.1847869731
Cu      4.9147998590     4.2563702540    17.0100125200
Cu      7.3732918200     5.6755186520    19.0949125010
Cu      6.1463175567     4.9652399848    21.1826165029
Cu      4.9148412440     0.0000691580    17.0097911200
Cu      7.3732641670     1.4196723070    19.0946385540
Cu      6.1443089749     0.7114894267    21.1839077802
Cu      6.1435260460     2.1281549480    17.0100126890
Cu      8.6017901990     3.5476978670    19.0949125200
Cu      7.3739319103     2.8403577791    21.1848477799
Cu      7.3720625000     4.2562615990    17.0100868050
Cu      9.8303874060     5.6755765310    19.0949145280
Cu      8.6018368554     4.9651432083    21.1821334540
O       4.1483141695     0.8214867468    27.6287424381
O       3.6280148332     2.1646638804    25.2962290977
O       3.6463778429     2.1806643808    30.0988447701
C       3.6777357303     2.1816516382    27.6901100446
C       4.1433301343     2.9130117260    26.4270778319
C       4.1472510681     2.8855322200    28.9572622324
H       2.5793938764     2.1065906712    27.6760857841
H       5.2500922563     2.9384733542    26.3785084193
H       3.7578818855     3.9418162908    26.3493585651
H       3.7996608605     3.9411357479    28.9554924474
H       5.2586898844     2.8836591054    28.9524755928
H       5.1256114868     0.8838265835    27.6556356401
H       3.9944867908     1.2527675601    25.3564763913
H       3.9964283689     2.6523944117    30.8680979332
86
Step 4 | ATOMIC_POSITIONS (angstrom) | Cartesian Angstrom
Ni      1.2286390390     0.7093535490     9.0128649340
Ni      0.0000019230    -0.0000011100    11.0189462060
Ni      2.4581886360     1.4192341220    12.9820006980
Ni      1.2300181510     0.7101493710    14.9469571230
Ni      2.4572760100     2.8374169220     9.0128649340
Ni      1.2286511800     2.1280835430    11.0189462060
Ni      3.6866443280     3.5473571860    12.9815172510
Ni      2.4589274570     2.8378950180    14.9472126230
Ni      3.6859498400     4.9655441370     9.0128649340
Ni      2.4573004370     4.2561681970    11.0189462060
Ni      4.9152433530     5.6754625070    12.9817330970
Ni      3.6873641450     4.9659340110    14.9472361150
Ni      3.6859144660     0.7093535490     9.0128649340
Ni      2.4573019230    -0.0000011100    11.0189462060
Ni      4.9154250810     1.4190473550    12.9815171700
Ni      3.6871547190     0.7105440160    14.9472125230
Ni      4.9145514370     2.8374169220     9.0128649340
Ni      3.6859511800     2.1280835430    11.0189462060
Ni      6.1438734720     3.5471661970    12.9811357840
Ni      4.9159520710     2.8382250840    14.9474526980
Ni      6.1432252670     4.9655441370     9.0128649340
Ni      4.9146004370     4.2561681970    11.0189462060
Ni      7.3724754910     5.6753002550    12.9812984850
Ni      6.1444225000     4.9663508800    14.9474869000
Ni      6.1432636120     0.7093535490     9.0128649340
Ni      4.9146019230    -0.0000011100    11.0189462060
Ni      7.3727178060     1.4189936100    12.9817330850
Ni      6.1443087910     0.7103827880    14.9472361760
Ni      7.3719005830     2.8374169220     9.0128649340
Ni      6.1432511800     2.1280835430    11.0189462060
Ni      8.6011926510     3.5471005460    12.9812984900
Ni      7.3731982530     2.8380497740    14.9474870240
Ni      8.6005744130     4.9655441370     9.0128649340
Ni      7.3719004370     4.2561681970    11.0189462060
Ni      9.8297970970     5.6752360910    12.9815758290
Ni      8.6015404070     4.9661014020    14.9475110630
Cu     -0.0009850777    -0.0000111704    23.2437824171
Cu      1.2082627720     2.1275245052    23.2256787846
Cu      2.4439688880     4.2854059828    23.2217692373
Cu      2.4522507429    -0.0170730778    23.2287928224
Cu      0.0002371770     0.0001345310    17.0095566530
Cu      2.4589608670     1.4196797340    19.0943775690
Cu      1.2318382110     0.7113212684    21.1854016989
Cu      3.6940739158     2.1670331786    23.2187426790
Cu      1.2289989080     2.1281620840    17.0097304640
Cu      3.6875289400     3.5476978260    19.0946919410
Cu      2.4599863333     2.8381834876    21.1885695665
Cu      4.9312840984     4.2839574700    23.2196374671
Cu      4.9278583559    -0.0185048746    23.2271485071
Cu      2.4575439700     0.0002605240    17.0097303500
Cu      4.9161626060     1.4196427100    19.0946919880
Cu      3.6879967338     0.7155575839    21.1920737536
Cu      6.1670270444     2.1248446167    23.2256370619
Cu      3.6862398640     2.1282500140    17.0099390000
Cu      6.1447371500     3.5476645340    19.0950538380
Cu      4.9161119796     2.8381585574    21.1848203370
Cu      7.3728503883     4.2583281958    23.2529569113
Cu      2.4574811020     4.2563400380    17.0097910800
Cu      4.9161045970     5.6755957940    19.0946384990
Cu      3.6877800374     4.9648600932    21.1829791346
Cu      4.9147998590     4.2563702540    17.0100125200
Cu      7.3732918200     5.6755186520    19.0949125010
Cu      6.1474409614     4.9650371699    21.1795734600
Cu      4.9148412440     0.0000691580    17.0097911200
Cu      7.3732641670     1.4196723070    19.0946385540
Cu      6.1441394829     0.7113698817    21.1822174023
Cu      6.1435260460     2.1281549480    17.0100126890
Cu      8.6017901990     3.5476978670    19.0949125200
Cu      7.3739876871     2.8413672922    21.1829389575
Cu      7.3720625000     4.2562615990    17.0100868050
Cu      9.8303874060     5.6755765310    19.0949145280
Cu      8.6005528020     4.9646064237    21.1789123712
O       4.1529504527     0.8218080783    27.6234377632
O       3.6180420364     2.1524860381    25.3121298440
O       3.6434606195     2.1847911179    30.0963328250
C       3.6835860873     2.1821422981    27.6931657987
C       4.1428491235     2.9119398392    26.4283275741
C       4.1492720900     2.8864603923    28.9578869435
H       2.5889635424     2.1072667536    27.6785986007
H       5.2504466761     2.9477144414    26.3814135268
H       3.7557934313     3.9406115406    26.3408987705
H       3.8027529067     3.9414355643    28.9473885165
H       5.2590927745     2.8914280732    28.9469026216
H       5.1227246120     0.8714257285    27.6589686382
H       3.9871742229     1.2419600587    25.3718336143
H       3.9917266514     2.6466879537    30.8785765012
86
Step 5 | ATOMIC_POSITIONS (angstrom) | Cartesian Angstrom
Ni      1.2286390390     0.7093535490     9.0128649340
Ni      0.0000019230    -0.0000011100    11.0189462060
Ni      2.4581886360     1.4192341220    12.9820006980
Ni      1.2300181510     0.7101493710    14.9469571230
Ni      2.4572760100     2.8374169220     9.0128649340
Ni      1.2286511800     2.1280835430    11.0189462060
Ni      3.6866443280     3.5473571860    12.9815172510
Ni      2.4589274570     2.8378950180    14.9472126230
Ni      3.6859498400     4.9655441370     9.0128649340
Ni      2.4573004370     4.2561681970    11.0189462060
Ni      4.9152433530     5.6754625070    12.9817330970
Ni      3.6873641450     4.9659340110    14.9472361150
Ni      3.6859144660     0.7093535490     9.0128649340
Ni      2.4573019230    -0.0000011100    11.0189462060
Ni      4.9154250810     1.4190473550    12.9815171700
Ni      3.6871547190     0.7105440160    14.9472125230
Ni      4.9145514370     2.8374169220     9.0128649340
Ni      3.6859511800     2.1280835430    11.0189462060
Ni      6.1438734720     3.5471661970    12.9811357840
Ni      4.9159520710     2.8382250840    14.9474526980
Ni      6.1432252670     4.9655441370     9.0128649340
Ni      4.9146004370     4.2561681970    11.0189462060
Ni      7.3724754910     5.6753002550    12.9812984850
Ni      6.1444225000     4.9663508800    14.9474869000
Ni      6.1432636120     0.7093535490     9.0128649340
Ni      4.9146019230    -0.0000011100    11.0189462060
Ni      7.3727178060     1.4189936100    12.9817330850
Ni      6.1443087910     0.7103827880    14.9472361760
Ni      7.3719005830     2.8374169220     9.0128649340
Ni      6.1432511800     2.1280835430    11.0189462060
Ni      8.6011926510     3.5471005460    12.9812984900
Ni      7.3731982530     2.8380497740    14.9474870240
Ni      8.6005744130     4.9655441370     9.0128649340
Ni      7.3719004370     4.2561681970    11.0189462060
Ni      9.8297970970     5.6752360910    12.9815758290
Ni      8.6015404070     4.9661014020    14.9475110630
Cu     -0.0008266062     0.0003644707    23.2468605645
Cu      1.2075657457     2.1275717469    23.2224601511
Cu      2.4417258523     4.2904043365    23.2174071239
Cu      2.4542000574    -0.0152010352    23.2260701347
Cu      0.0002371770     0.0001345310    17.0095566530
Cu      2.4589608670     1.4196797340    19.0943775690
Cu      1.2318128537     0.7109804067    21.1848241305
Cu      3.6960445046     2.1766061410    23.2240638677
Cu      1.2289989080     2.1281620840    17.0097304640
Cu      3.6875289400     3.5476978260    19.0946919410
Cu      2.4593028564     2.8385427608    21.1883967971
Cu      4.9344789266     4.2893066756    23.2147261899
Cu      4.9272146371    -0.0167563207    23.2240226890
Cu      2.4575439700     0.0002605240    17.0097303500
Cu      4.9161626060     1.4196427100    19.0946919880
Cu      3.6880433375     0.7165607166    21.1943109107
Cu      6.1685595144     2.1245726913    23.2226103476
Cu      3.6862398640     2.1282500140    17.0099390000
Cu      6.1447371500     3.5476645340    19.0950538380
Cu      4.9170968301     2.8386085870    21.1833417764
Cu      7.3730048047     4.2585367484    23.2594461337
Cu      2.4574811020     4.2563400380    17.0097910800
Cu      4.9161045970     5.6755957940    19.0946384990
Cu      3.6876157941     4.9653679912    21.1805751841
Cu      4.9147998590     4.2563702540    17.0100125200
Cu      7.3732918200     5.6755186520    19.0949125010
Cu      6.1491733355     4.9651689737    21.1757534365
Cu      4.9148412440     0.0000691580    17.0097911200
Cu      7.3732641670     1.4196723070    19.0946385540
Cu      6.1442386145     0.7109514843    21.1803296160
Cu      6.1435260460     2.1281549480    17.0100126890
Cu      8.6017901990     3.5476978670    19.0949125200
Cu      7.3740685734     2.8426445115    21.1805306218
Cu      7.3720625000     4.2562615990    17.0100868050
Cu      9.8303874060     5.6755765310    19.0949145280
Cu      8.5986588152     4.9643057698    21.1749390644
O       4.1533053798     0.8254010162    27.6186407750
O       3.6089522078     2.1383282962    25.3278680364
O       3.6436618715     2.1946444109    30.0958915968
C       3.6901648843     2.1849438611    27.6944023327
C       4.1431655824     2.9096349014    26.4296168960
C       4.1542104873     2.8882542009    28.9547027048
H       2.5974461385     2.1074093801    27.6827610902
H       5.2466682093     2.9586792127    26.3821294355
H       3.7530263297     3.9342120908    26.3307844614
H       3.8067835646     3.9383266058    28.9379493132
H       5.2588095449     2.9009929975    28.9442707820
H       5.1265433643     0.8541899770    27.6640257616
H       3.9762362441     1.2292551817    25.3940671107
H       3.9838497588     2.6370530116    30.8890234475
86
Step 6 | ATOMIC_POSITIONS (angstrom) | Cartesian Angstrom
Ni      1.2286390390     0.7093535490     9.0128649340
Ni      0.0000019230    -0.0000011100    11.0189462060
Ni      2.4581886360     1.4192341220    12.9820006980
Ni      1.2300181510     0.7101493710    14.9469571230
Ni      2.4572760100     2.8374169220     9.0128649340
Ni      1.2286511800     2.1280835430    11.0189462060
Ni      3.6866443280     3.5473571860    12.9815172510
Ni      2.4589274570     2.8378950180    14.9472126230
Ni      3.6859498400     4.9655441370     9.0128649340
Ni      2.4573004370     4.2561681970    11.0189462060
Ni      4.9152433530     5.6754625070    12.9817330970
Ni      3.6873641450     4.9659340110    14.9472361150
Ni      3.6859144660     0.7093535490     9.0128649340
Ni      2.4573019230    -0.0000011100    11.0189462060
Ni      4.9154250810     1.4190473550    12.9815171700
Ni      3.6871547190     0.7105440160    14.9472125230
Ni      4.9145514370     2.8374169220     9.0128649340
Ni      3.6859511800     2.1280835430    11.0189462060
Ni      6.1438734720     3.5471661970    12.9811357840
Ni      4.9159520710     2.8382250840    14.9474526980
Ni      6.1432252670     4.9655441370     9.0128649340
Ni      4.9146004370     4.2561681970    11.0189462060
Ni      7.3724754910     5.6753002550    12.9812984850
Ni      6.1444225000     4.9663508800    14.9474869000
Ni      6.1432636120     0.7093535490     9.0128649340
Ni      4.9146019230    -0.0000011100    11.0189462060
Ni      7.3727178060     1.4189936100    12.9817330850
Ni      6.1443087910     0.7103827880    14.9472361760
Ni      7.3719005830     2.8374169220     9.0128649340
Ni      6.1432511800     2.1280835430    11.0189462060
Ni      8.6011926510     3.5471005460    12.9812984900
Ni      7.3731982530     2.8380497740    14.9474870240
Ni      8.6005744130     4.9655441370     9.0128649340
Ni      7.3719004370     4.2561681970    11.0189462060
Ni      9.8297970970     5.6752360910    12.9815758290
Ni      8.6015404070     4.9661014020    14.9475110630
Cu     -0.0001254441     0.0012718075    23.2489686788
Cu      1.2105983815     2.1282269155    23.2197151578
Cu      2.4414872880     4.2919842437    23.2138242588
Cu      2.4577753730    -0.0094740838    23.2233666200
Cu      0.0002371770     0.0001345310    17.0095566530
Cu      2.4589608670     1.4196797340    19.0943775690
Cu      1.2314951258     0.7104499219    21.1844547938
Cu      3.6972343840     2.1819223685    23.2347275633
Cu      1.2289989080     2.1281620840    17.0097304640
Cu      3.6875289400     3.5476978260    19.0946919410
Cu      2.4588606187     2.8389565538    21.1882354538
Cu      4.9358116603     4.2916032151    23.2107787254
Cu      4.9244136123    -0.0110153484    23.2211123880
Cu      2.4575439700     0.0002605240    17.0097303500
Cu      4.9161626060     1.4196427100    19.0946919880
Cu      3.6880930501     0.7176931288    21.1962059430
Cu      6.1666423991     2.1252845994    23.2200314933
Cu      3.6862398640     2.1282500140    17.0099390000
Cu      6.1447371500     3.5476645340    19.0950538380
Cu      4.9178579311     2.8391481980    21.1823649191
Cu      7.3732545524     4.2587584937    23.2642284511
Cu      2.4574811020     4.2563400380    17.0097910800
Cu      4.9161045970     5.6755957940    19.0946384990
Cu      3.6875127840     4.9663351957    21.1784272948
Cu      4.9147998590     4.2563702540    17.0100125200
Cu      7.3732918200     5.6755186520    19.0949125010
Cu      6.1508666494     4.9657976266    21.1727768328
Cu      4.9148412440     0.0000691580    17.0097911200
Cu      7.3732641670     1.4196723070    19.0946385540
Cu      6.1446983550     0.7103617678    21.1790300199
Cu      6.1435260460     2.1281549480    17.0100126890
Cu      8.6017901990     3.5476978670    19.0949125200
Cu      7.3741488846     2.8436126634    21.1787198260
Cu      7.3720625000     4.2562615990    17.0100868050
Cu      9.8303874060     5.6755765310    19.0949145280
Cu      8.5969033814     4.9645762376    21.1719689790
O       4.1559027771     0.8287172257    27.6166554751
O       3.6045478739     2.1286875873    25.3360790664
O       3.6441874323     2.2027221677    30.0915800344
C       3.6956623918     2.1882355734    27.6944678599
C       4.1399446674     2.9066552916    26.4289186042
C       4.1585144117     2.8908025798    28.9525106475
H       2.6012581095     2.1074945909    27.6876125029
H       5.2429803524     2.9672099661    26.3789475059
H       3.7491567674     3.9250991221    26.3221157983
H       3.8099141819     3.9352265399    28.9295975693
H       5.2619552279     2.9091727759    28.9462545583
H       5.1299555808     0.8373657284    27.6695155772
H       3.9647444480     1.2162584296    25.4181204338
H       3.9780484889     2.6303012083    30.8995981059
86
Step 7 | ATOMIC_POSITIONS (angstrom) | Cartesian Angstrom
Ni      1.2286390390     0.7093535490     9.0128649340
Ni      0.0000019230    -0.0000011100    11.0189462060
Ni      2.4581886360     1.4192341220    12.9820006980
Ni      1.2300181510     0.7101493710    14.9469571230
Ni      2.4572760100     2.8374169220     9.0128649340
Ni      1.2286511800     2.1280835430    11.0189462060
Ni      3.6866443280     3.5473571860    12.9815172510
Ni      2.4589274570     2.8378950180    14.9472126230
Ni      3.6859498400     4.9655441370     9.0128649340
Ni      2.4573004370     4.2561681970    11.0189462060
Ni      4.9152433530     5.6754625070    12.9817330970
Ni      3.6873641450     4.9659340110    14.9472361150
Ni      3.6859144660     0.7093535490     9.0128649340
Ni      2.4573019230    -0.0000011100    11.0189462060
Ni      4.9154250810     1.4190473550    12.9815171700
Ni      3.6871547190     0.7105440160    14.9472125230
Ni      4.9145514370     2.8374169220     9.0128649340
Ni      3.6859511800     2.1280835430    11.0189462060
Ni      6.1438734720     3.5471661970    12.9811357840
Ni      4.9159520710     2.8382250840    14.9474526980
Ni      6.1432252670     4.9655441370     9.0128649340