86
Step 1 | ATOMIC_POSITIONS (angstrom) | Cartesian Angstrom
Ni      0.0000000000     0.0000000000    10.0000000900
Ni      8.6005476670     2.1280836470    10.0000000900
Ni      9.8291973330     4.2561672950    10.0000000900
Ni      2.4572993330     0.0000000000    10.0000000900
Ni      3.6859490000     2.1280836470    10.0000000900
Ni      4.9145986670     4.2561672950    10.0000000900
Ni      4.9145986670     0.0000000000    10.0000000900
Ni      6.1432483330     2.1280836470    10.0000000900
Ni      7.3718980000     4.2561672950    10.0000000900
Ni      1.6381995390     1.4187224170    12.0063763950
Ni      2.8668492300     3.5468061070    12.0063763950
Ni      4.0954988850     5.6748897330    12.0063763950
Ni      4.0954988480     1.4187224170    12.0063763950
Ni      5.3241485390     3.5468061070    12.0063763950
Ni      6.5527981940     5.6748897330    12.0063763950
Ni      6.5527982300     1.4187224170    12.0063763950
Ni      7.7814479220     3.5468061070    12.0063763950
Ni      9.0100975760     5.6748897330    12.0063763950
Ni      2.0477494240     0.7093612090    14.1640614080
Ni      3.2763990780     2.8374448350    14.1640729510
Ni      4.5050487700     4.9655285250    14.1640397250
Ni      4.5050488060     0.7093612090    14.1640710440
Ni      5.7336984610     2.8374448350    14.1640423650
Ni      6.9623481520     4.9655285250    14.1640482520
Ni      6.9623481150     0.7093612090    14.1640292020
Ni      8.1909977700     2.8374448350    14.1640591990
Ni      9.4196474610     4.9655285250    14.1640542750
Ni      0.0000000000     0.0000000000    16.3281461600
Ni      8.6005476670     2.1280836470    16.3282017120
Ni      9.8291973330     4.2561672950    16.3281943160
Ni      2.4572993330     0.0000000000    16.3281936330
Ni      3.6859490000     2.1280836470    16.3282178260
Ni      4.9145986670     4.2561672950    16.3281642570
Ni      4.9145986670     0.0000000000    16.3282096040
Ni      6.1432483330     2.1280836470    16.3281694310
Ni      7.3718980000     4.2561672950    16.3281777140
Cu      1.6381995390     1.4187224170    18.5439570380
Cu      2.8668492300     3.5468061070    18.5439633170
Cu      4.0954988850     5.6748897330    18.5439058500
Cu      4.0954988480     1.4187224170    18.5439876690
Cu      5.3241485390     3.5468061070    18.5439225600
Cu      6.5527981940     5.6748897330    18.5439394360
Cu      6.5527982300     1.4187224170    18.5439267690
Cu      7.7814479220     3.5468061070    18.5439293780
Cu      9.0100975760     5.6748897330    18.5439799570
Cu      2.0480898081     0.7089932256    20.7902976008
Cu      3.2766987199     2.8375707569    20.7901378368
Cu      4.5053024908     4.9651798924    20.7899271174
Cu      4.5051464402     0.7097295618    20.7903790369
Cu      5.7336748495     2.8373571703    20.7896736123
Cu      6.9621521432     4.9653639572    20.7899504413
Cu      6.9642650690     0.7097015836    20.7904377509
Cu      8.1908137964     2.8377859254    20.7901361549
Cu      9.4197837288     4.9651616232    20.7903660579
Cu      0.0033176007    -0.0059458219    23.0257684022
Cu      8.6033587263     2.1224488631    23.0260590508
Cu      9.8328661187     4.2508586573    23.0268149324
Cu      2.4601693236    -0.0059011558    23.0267669061
Cu      3.6896213979     2.1230003290    23.0278848186
Cu      4.9182046239     4.2498034909    23.0282753611
Cu      4.9180608647    -0.0054771846    23.0259216126
Cu      6.1455608974     2.1240058397    23.0292534200
Cu      7.3746034350     4.2504539010    23.0276874211
Cu      1.8391121348     1.0698948735    25.1888570701
Cu      3.0625504025     3.1978338660    25.1844965350
Cu      4.2933112162     5.3324489019    25.1829265752
Cu      4.2948206994     1.0653549848    25.1851329161
Cu      5.5271383373     3.2041118468    25.1504439274
Cu      6.7575038871     5.3318447824    25.1823343449
Cu      6.7565410573     1.0655602280    25.1855382877
Cu      7.9879264433     3.1975625825    25.1849036850
Cu      9.2112004014     5.3264070326    25.1888771454
O       5.9333700507     1.9993197334    29.4559183692
O       5.4398086156     3.3573059199    27.1168001652
O       5.4451318361     3.3461153521    31.9037371244
C       5.4547884978     3.3491370211    29.4918977535
C       5.9222361222     4.0692358949    28.2388775756
C       5.9275221765     4.0428107436    30.7536732792
H       4.3403238929     3.2647671543    29.4877325227
H       7.0259236258     4.0832762023    28.1808467002
H       5.5496252351     5.0886895497    28.1779132827
H       5.5833532909     5.0832393061    30.7861944309
H       7.0362144845     4.0314223137    30.7864455279
H       6.9126971099     2.0578273723    29.4645581410
H       5.7895813644     2.4290151360    27.1538345099
H       5.7894387835     3.8227715779    32.6758613026
86
Step 2 | ATOMIC_POSITIONS (angstrom) | Cartesian Angstrom
Ni      0.0000000000     0.0000000000    10.0000000900
Ni      8.6005476670     2.1280836470    10.0000000900
Ni      9.8291973330     4.2561672950    10.0000000900
Ni      2.4572993330     0.0000000000    10.0000000900
Ni      3.6859490000     2.1280836470    10.0000000900
Ni      4.9145986670     4.2561672950    10.0000000900
Ni      4.9145986670     0.0000000000    10.0000000900
Ni      6.1432483330     2.1280836470    10.0000000900
Ni      7.3718980000     4.2561672950    10.0000000900
Ni      1.6381995390     1.4187224170    12.0063763950
Ni      2.8668492300     3.5468061070    12.0063763950
Ni      4.0954988850     5.6748897330    12.0063763950
Ni      4.0954988480     1.4187224170    12.0063763950
Ni      5.3241485390     3.5468061070    12.0063763950
Ni      6.5527981940     5.6748897330    12.0063763950
Ni      6.5527982300     1.4187224170    12.0063763950
Ni      7.7814479220     3.5468061070    12.0063763950
Ni      9.0100975760     5.6748897330    12.0063763950
Ni      2.0477494240     0.7093612090    14.1640614080
Ni      3.2763990780     2.8374448350    14.1640729510
Ni      4.5050487700     4.9655285250    14.1640397250
Ni      4.5050488060     0.7093612090    14.1640710440
Ni      5.7336984610     2.8374448350    14.1640423650
Ni      6.9623481520     4.9655285250    14.1640482520
Ni      6.9623481150     0.7093612090    14.1640292020
Ni      8.1909977700     2.8374448350    14.1640591990
Ni      9.4196474610     4.9655285250    14.1640542750
Ni      0.0000000000     0.0000000000    16.3281461600
Ni      8.6005476670     2.1280836470    16.3282017120
Ni      9.8291973330     4.2561672950    16.3281943160
Ni      2.4572993330     0.0000000000    16.3281936330
Ni      3.6859490000     2.1280836470    16.3282178260
Ni      4.9145986670     4.2561672950    16.3281642570
Ni      4.9145986670     0.0000000000    16.3282096040
Ni      6.1432483330     2.1280836470    16.3281694310
Ni      7.3718980000     4.2561672950    16.3281777140
Cu      1.6381995390     1.4187224170    18.5439570380
Cu      2.8668492300     3.5468061070    18.5439633170
Cu      4.0954988850     5.6748897330    18.5439058500
Cu      4.0954988480     1.4187224170    18.5439876690
Cu      5.3241485390     3.5468061070    18.5439225600
Cu      6.5527981940     5.6748897330    18.5439394360
Cu      6.5527982300     1.4187224170    18.5439267690
Cu      7.7814479220     3.5468061070    18.5439293780
Cu      9.0100975760     5.6748897330    18.5439799570
Cu      2.0488437998     0.7081515561    20.7907795749
Cu      3.2773998269     2.8376635668    20.7903273573
Cu      4.5059322004     4.9643040957    20.7897992231
Cu      4.5053723250     0.7104313224    20.7908710801
Cu      5.7337482047     2.8369834335    20.7888641289
Cu      6.9618692453     4.9648733247    20.7898095000
Cu      6.9630974837     0.7103902649    20.7912946436
Cu      8.1905112379     2.8384140492    20.7902701707
Cu      9.4201300979     4.9643112120    20.7909199954
Cu      0.0115284419    -0.0205900497    23.0216092233
Cu      8.6107296984     2.1080589264    23.0232932747
Cu      9.8417551393     4.2375998940    23.0257604428
Cu      2.4673469887    -0.0202053125    23.0254911493
Cu      3.6985488911     2.1100010454    23.0295020763
Cu      4.9260815727     4.2358610056    23.0278603010
Cu      4.9267921095    -0.0194783996    23.0227674511
Cu      6.1525491537     2.1116840364    23.0316913785
Cu      7.3816785413     4.2361330662    23.0288192153
Cu      1.8386166720     1.0691388309    25.1929734884
Cu      3.0516524700     3.1965539428    25.1784056325
Cu      4.2863973409     5.3447939191    25.1732045624
Cu      4.2915067760     1.0559038008    25.1803517679
Cu      5.5312306628     3.2171405948    25.0829758045
Cu      6.7651632287     5.3431903465    25.1712687733
Cu      6.7612803433     1.0566974238    25.1821418442
Cu      7.9986458699     3.1958288210    25.1799101310
Cu      9.2110244000     5.3262799928    25.1929055369
O       5.9383592873     1.9819386202    29.4446570496
O       5.4131457310     3.3283273358    27.1628662490
O       5.4326747094     3.3378806371    31.9110585541
C       5.4607679520     3.3466760637    29.5101885981
C       5.9348742418     4.0793757897    28.2621470193
C       5.9312906682     4.0443358535    30.7699651396
H       4.3572313800     3.2669663216    29.4878784992
H       7.0335141291     4.0936436827    28.1898884266
H       5.5437182263     5.1023036891    28.1688044537
H       5.5831063605     5.1004350293    30.7738479379
H       7.0424605311     4.0400359246    30.7707021447
H       6.9060599662     2.0509071282    29.4679889968
H       5.7841799469     2.4158711124    27.1779389056
H       5.7855905101     3.8182102605    32.6789630475
