86
Step 1 | ATOMIC_POSITIONS (angstrom) | Cartesian Angstrom
Ni      0.0000000000     0.0000000000    10.0000000900
Ni      8.6005476670     2.1280836470    10.0000000900
Ni      9.8291973330     4.2561672950    10.0000000900
Ni      2.4572993330     0.0000000000    10.0000000900
Ni      3.6859490000     2.1280836470    10.0000000900
Ni      4.9145986670     4.2561672950    10.0000000900
Ni      4.9145986670     0.0000000000    10.0000000900
Ni      6.1432483330     2.1280836470    10.0000000900
Ni      7.3718980000     4.2561672950    10.0000000900
Ni      1.6381995390     1.4187224170    12.0063763950
Ni      2.8668492300     3.5468061070    12.0063763950
Ni      4.0954988850     5.6748897330    12.0063763950
Ni      4.0954988480     1.4187224170    12.0063763950
Ni      5.3241485390     3.5468061070    12.0063763950
Ni      6.5527981940     5.6748897330    12.0063763950
Ni      6.5527982300     1.4187224170    12.0063763950
Ni      7.7814479220     3.5468061070    12.0063763950
Ni      9.0100975760     5.6748897330    12.0063763950
Ni      2.0477494240     0.7093612090    14.0127530410
Ni      3.2763990780     2.8374448350    14.0127530410
Ni      4.5050487700     4.9655285250    14.0127530410
Ni      4.5050488060     0.7093612090    14.0127530410
Ni      5.7336984610     2.8374448350    14.0127530410
Ni      6.9623481520     4.9655285250    14.0127530410
Ni      6.9623481150     0.7093612090    14.0127530410
Ni      8.1909977700     2.8374448350    14.0127530410
Ni      9.4196474610     4.9655285250    14.0127530410
Ni      0.2219535440    -0.3844348150    16.0346322610
Ni      8.8225203380     1.7436790770    16.0347677870
Ni     10.0511134640     3.8717235960    16.0347600380
Ni      2.6792792770    -0.3844068560    16.0347600380
Ni      3.9079067200     1.7436614180    16.0347555120
Ni      5.1365311080     3.8717690310    16.0346226390
Ni      5.1365164550    -0.3844362570    16.0347677870
Ni      6.3652073280     1.7436393910    16.0346221070
Ni      7.5938385560     3.8717351570    16.0347555120
Cu      2.0723744710     0.6666908500    18.1188401140
Cu      3.3010364020     2.7947772280    18.1188294380
Cu      4.5296848840     4.9228575240    18.1186684400
Cu      4.5296771200     0.6666970110    18.1188367610
Cu      5.7583325920     2.7947772670    18.1186160230
Cu      6.9869807220     4.9228581720    18.1188294380
Cu      6.9869802900     0.6666970300    18.1186522440
Cu      8.2156318920     2.7947839910    18.1188367610
Cu      9.4442885520     4.9228674280    18.1188401140
Cu      2.0477494240     0.7093612090    20.5305373300
Cu      3.2763990780     2.8374448350    20.5305290830
Cu      4.5050487700     4.9655285250    20.5303270790
Cu      4.5050488060     0.7093612090    20.5305312910
Cu      5.7336984610     2.8374448350    20.5302848030
Cu      6.9623481520     4.9655285250    20.5305290830
Cu      6.9623481150     0.7093612090    20.5303102470
Cu      8.1909977700     2.8374448350    20.5305312910
Cu      9.4196474610     4.9655285250    20.5305373300
Cu      0.1996576410    -0.3458171780    22.6496925520
Cu      8.8002014820     1.7822648550    22.6499310210
Cu     10.0288585330     3.9103492740    22.6499306530
Cu      2.6569559250    -0.3458206820    22.6499306530
Cu      3.8856048760     1.7822645930    22.6499270560
Cu      5.1142599260     3.9103438500    22.6496806750
Cu      5.1142596180    -0.3458146710    22.6499310210
Cu      6.3429051830     1.7822678380    22.6496760870
Cu      7.5715581480     3.9103507070    22.6499270560
Cu      2.6490976166     1.0675871637    24.7101746674
Cu      3.8653973104     3.1972914728    24.6760403740
Cu      5.1020935999     5.3411218461    24.6796563351
Cu      5.1002551599     1.0479910050    24.6672679867
Cu      6.3425000843     3.2019258248    24.7620226507
Cu      7.5739458273     5.3371226760    24.6899492048
Cu      7.5751946326     1.0539762967    24.6833557918
Cu      8.8110248762     3.1957666030    24.6912284333
Cu     10.0228509346     5.3245401040    24.7284661541
O       6.5725443063     1.7920219702    29.2011739669
O       6.0633654155     2.9829014643    26.8335853684
O       5.9884460755     3.3508044825    31.6072253818
C       6.1157382286     3.1594024075    29.2229427737
C       6.5049941417     3.8375418181    27.9097059421
C       6.5913555221     3.9276964656    30.4452407986
H       5.0194091236     3.0761971073    29.2670298831
H       7.5948761168     3.9990842302    27.8329318779
H       6.0012620142     4.8011908369    27.7616814364
H       6.3051398693     4.9890388859    30.3368784975
H       7.6971372256     3.8877945580    30.4994072247
H       7.5451464970     1.7976707705    29.2724666365
H       6.2978736040     2.0578025584    27.0750822259
H       6.2791744771     3.8543831903    32.3859769888
86
Step 2 | ATOMIC_POSITIONS (angstrom) | Cartesian Angstrom
Ni      0.0000000000     0.0000000000    10.0000000900
Ni      8.6005476670     2.1280836470    10.0000000900
Ni      9.8291973330     4.2561672950    10.0000000900
Ni      2.4572993330     0.0000000000    10.0000000900
Ni      3.6859490000     2.1280836470    10.0000000900
Ni      4.9145986670     4.2561672950    10.0000000900
Ni      4.9145986670     0.0000000000    10.0000000900
Ni      6.1432483330     2.1280836470    10.0000000900
Ni      7.3718980000     4.2561672950    10.0000000900
Ni      1.6381995390     1.4187224170    12.0063763950
Ni      2.8668492300     3.5468061070    12.0063763950
Ni      4.0954988850     5.6748897330    12.0063763950
Ni      4.0954988480     1.4187224170    12.0063763950
Ni      5.3241485390     3.5468061070    12.0063763950
Ni      6.5527981940     5.6748897330    12.0063763950
Ni      6.5527982300     1.4187224170    12.0063763950
Ni      7.7814479220     3.5468061070    12.0063763950
Ni      9.0100975760     5.6748897330    12.0063763950
Ni      2.0477494240     0.7093612090    14.0127530410
Ni      3.2763990780     2.8374448350    14.0127530410
Ni      4.5050487700     4.9655285250    14.0127530410
Ni      4.5050488060     0.7093612090    14.0127530410
Ni      5.7336984610     2.8374448350    14.0127530410
Ni      6.9623481520     4.9655285250    14.0127530410
Ni      6.9623481150     0.7093612090    14.0127530410
Ni      8.1909977700     2.8374448350    14.0127530410
Ni      9.4196474610     4.9655285250    14.0127530410
Ni      0.2219535440    -0.3844348150    16.0346322610
Ni      8.8225203380     1.7436790770    16.0347677870
Ni     10.0511134640     3.8717235960    16.0347600380
Ni      2.6792792770    -0.3844068560    16.0347600380
Ni      3.9079067200     1.7436614180    16.0347555120
Ni      5.1365311080     3.8717690310    16.0346226390
Ni      5.1365164550    -0.3844362570    16.0347677870
Ni      6.3652073280     1.7436393910    16.0346221070
Ni      7.5938385560     3.8717351570    16.0347555120
Cu      2.0723744710     0.6666908500    18.1188401140
Cu      3.3010364020     2.7947772280    18.1188294380
Cu      4.5296848840     4.9228575240    18.1186684400
Cu      4.5296771200     0.6666970110    18.1188367610
Cu      5.7583325920     2.7947772670    18.1186160230
Cu      6.9869807220     4.9228581720    18.1188294380
Cu      6.9869802900     0.6666970300    18.1186522440
Cu      8.2156318920     2.7947839910    18.1188367610
Cu      9.4442885520     4.9228674280    18.1188401140
Cu      2.0477494240     0.7093612090    20.5305373300
Cu      3.2763990780     2.8374448350    20.5305290830
Cu      4.5050487700     4.9655285250    20.5303270790
Cu      4.5050488060     0.7093612090    20.5305312910
Cu      5.7336984610     2.8374448350    20.5302848030
Cu      6.9623481520     4.9655285250    20.5305290830
Cu      6.9623481150     0.7093612090    20.5303102470
Cu      8.1909977700     2.8374448350    20.5305312910
Cu      9.4196474610     4.9655285250    20.5305373300
Cu      0.1996576410    -0.3458171780    22.6496925520
Cu      8.8002014820     1.7822648550    22.6499310210
Cu     10.0288585330     3.9103492740    22.6499306530
Cu      2.6569559250    -0.3458206820    22.6499306530
Cu      3.8856048760     1.7822645930    22.6499270560
Cu      5.1142599260     3.9103438500    22.6496806750
Cu      5.1142596180    -0.3458146710    22.6499310210
Cu      6.3429051830     1.7822678380    22.6496760870
Cu      7.5715581480     3.9103507070    22.6499270560
Cu      2.6488198588     1.0682228042    24.7097866935
Cu      3.8649023360     3.1978782595    24.6765250642
Cu      5.1021991382     5.3405378012    24.6796459879
Cu      5.1005310140     1.0498543127    24.6693142961
Cu      6.3429116203     3.2020605243    24.7622499039
Cu      7.5741866905     5.3382192243    24.6900619748
Cu      7.5753469298     1.0539034304    24.6836120601
Cu      8.8107427874     3.1965830514    24.6907144409
Cu     10.0219571632     5.3248921274    24.7276565436
O       6.5838764784     1.7969756506    29.2091535838
O       6.0677415039     2.9828682764    26.8356537133
O       6.0003493198     3.3600545744    31.6066520086
C       6.1301201047     3.1651891105    29.2252946814
C       6.5157231208     3.8383258086    27.9088454427
C       6.6040133296     3.9381906129    30.4453142446
H       5.0342070534     3.0846855858    29.2730889255
H       7.6055335053     3.9970635186    27.8272814659
H       6.0119828711     4.8020531025    27.7609701068
H       6.3140892267     4.9984929579    30.3340549956
H       7.7097786220     3.9020649646    30.5017214974
H       7.5562563335     1.8003019998    29.2817564305
H       6.3066888983     2.0576961640    27.0734495777
H       6.2771410045     3.8720248733    32.3850921390
86
Step 3 | ATOMIC_POSITIONS (angstrom) | Cartesian Angstrom
Ni      0.0000000000     0.0000000000    10.0000000900
Ni      8.6005476670     2.1280836470    10.0000000900
Ni      9.8291973330     4.2561672950    10.0000000900
Ni      2.4572993330     0.0000000000    10.0000000900
Ni      3.6859490000     2.1280836470    10.0000000900
Ni      4.9145986670     4.2561672950    10.0000000900
Ni      4.9145986670     0.0000000000    10.0000000900
Ni      6.1432483330     2.1280836470    10.0000000900
Ni      7.3718980000     4.2561672950    10.0000000900
Ni      1.6381995390     1.4187224170    12.0063763950
Ni      2.8668492300     3.5468061070    12.0063763950
Ni      4.0954988850     5.6748897330    12.0063763950
Ni      4.0954988480     1.4187224170    12.0063763950
Ni      5.3241485390     3.5468061070    12.0063763950
Ni      6.5527981940     5.6748897330    12.0063763950
Ni      6.5527982300     1.4187224170    12.0063763950
Ni      7.7814479220     3.5468061070    12.0063763950
Ni      9.0100975760     5.6748897330    12.0063763950
Ni      2.0477494240     0.7093612090    14.0127530410
Ni      3.2763990780     2.8374448350    14.0127530410
Ni      4.5050487700     4.9655285250    14.0127530410
Ni      4.5050488060     0.7093612090    14.0127530410
Ni      5.7336984610     2.8374448350    14.0127530410
Ni      6.9623481520     4.9655285250    14.0127530410
Ni      6.9623481150     0.7093612090    14.0127530410
Ni      8.1909977700     2.8374448350    14.0127530410
Ni      9.4196474610     4.9655285250    14.0127530410
Ni      0.2219535440    -0.3844348150    16.0346322610
Ni      8.8225203380     1.7436790770    16.0347677870
Ni     10.0511134640     3.8717235960    16.0347600380
Ni      2.6792792770    -0.3844068560    16.0347600380
Ni      3.9079067200     1.7436614180    16.0347555120
Ni      5.1365311080     3.8717690310    16.0346226390
Ni      5.1365164550    -0.3844362570    16.0347677870
Ni      6.3652073280     1.7436393910    16.0346221070
Ni      7.5938385560     3.8717351570    16.0347555120
Cu      2.0723744710     0.6666908500    18.1188401140
Cu      3.3010364020     2.7947772280    18.1188294380
Cu      4.5296848840     4.9228575240    18.1186684400
Cu      4.5296771200     0.6666970110    18.1188367610
Cu      5.7583325920     2.7947772670    18.1186160230
Cu      6.9869807220     4.9228581720    18.1188294380
Cu      6.9869802900     0.6666970300    18.1186522440
Cu      8.2156318920     2.7947839910    18.1188367610
Cu      9.4442885520     4.9228674280    18.1188401140
Cu      2.0477494240     0.7093612090    20.5305373300
Cu      3.2763990780     2.8374448350    20.5305290830
Cu      4.5050487700     4.9655285250    20.5303270790
Cu      4.5050488060     0.7093612090    20.5305312910
Cu      5.7336984610     2.8374448350    20.5302848030
Cu      6.9623481520     4.9655285250    20.5305290830
Cu      6.9623481150     0.7093612090    20.5303102470
Cu      8.1909977700     2.8374448350    20.5305312910
Cu      9.4196474610     4.9655285250    20.5305373300
Cu      0.1996576410    -0.3458171780    22.6496925520
Cu      8.8002014820     1.7822648550    22.6499310210
Cu     10.0288585330     3.9103492740    22.6499306530
Cu      2.6569559250    -0.3458206820    22.6499306530
Cu      3.8856048760     1.7822645930    22.6499270560
Cu      5.1142599260     3.9103438500    22.6496806750
Cu      5.1142596180    -0.3458146710    22.6499310210
Cu      6.3429051830     1.7822678380    22.6496760870
Cu      7.5715581480     3.9103507070    22.6499270560
Cu      2.6488709996     1.0688835033    24.7096472514
Cu      3.8642540356     3.1983893300    24.6775694276
Cu      5.1024986213     5.3399976124    24.6799730606
Cu      5.1006436396     1.0516752650    24.6716681836
Cu      6.3427300378     3.2021993631    24.7628577164
Cu      7.5737493270     5.3386286348    24.6902122712
Cu      7.5752411419     1.0542383015    24.6838917875
Cu      8.8089045820     3.1974774519    24.6899850086
Cu     10.0212948661     5.3256866664    24.7272319590
O       6.5970484498     1.8036023644    29.2168218592
O       6.0729311202     2.9825681457    26.8371426295
O       6.0137480336     3.3701113349    31.6047660524
C       6.1455650360     3.1723256461    29.2269379375
C       6.5280243885     3.8394391162    27.9069203844
C       6.6183685207     3.9502677656    30.4444884633
H       5.0497121304     3.0939657649    29.2792230888
H       7.6180428783     3.9951462268    27.8217199109
H       6.0246641870     4.8034093598    27.7590724718
H       6.3235631995     5.0092109778    30.3295647423
H       7.7241345605     3.9172987275    30.5045664695
H       7.5691609714     1.8033486288    29.2922339271
H       6.3164113692     2.0579509334    27.0723858649
H       6.2748701592     3.8902827437    32.3831336115
86
Step 4 | ATOMIC_POSITIONS (angstrom) | Cartesian Angstrom
Ni      0.0000000000     0.0000000000    10.0000000900
Ni      8.6005476670     2.1280836470    10.0000000900
Ni      9.8291973330     4.2561672950    10.0000000900
Ni      2.4572993330     0.0000000000    10.0000000900
Ni      3.6859490000     2.1280836470    10.0000000900
Ni      4.9145986670     4.2561672950    10.0000000900
Ni      4.9145986670     0.0000000000    10.0000000900
Ni      6.1432483330     2.1280836470    10.0000000900
Ni      7.3718980000     4.2561672950    10.0000000900
Ni      1.6381995390     1.4187224170    12.0063763950
Ni      2.8668492300     3.5468061070    12.0063763950
Ni      4.0954988850     5.6748897330    12.0063763950
Ni      4.0954988480     1.4187224170    12.0063763950
Ni      5.3241485390     3.5468061070    12.0063763950
Ni      6.5527981940     5.6748897330    12.0063763950
Ni      6.5527982300     1.4187224170    12.0063763950
Ni      7.7814479220     3.5468061070    12.0063763950
Ni      9.0100975760     5.6748897330    12.0063763950
Ni      2.0477494240     0.7093612090    14.0127530410
Ni      3.2763990780     2.8374448350    14.0127530410
Ni      4.5050487700     4.9655285250    14.0127530410
Ni      4.5050488060     0.7093612090    14.0127530410
Ni      5.7336984610     2.8374448350    14.0127530410
Ni      6.9623481520     4.9655285250    14.0127530410
Ni      6.9623481150     0.7093612090    14.0127530410
Ni      8.1909977700     2.8374448350    14.0127530410
Ni      9.4196474610     4.9655285250    14.0127530410
Ni      0.2219535440    -0.3844348150    16.0346322610
Ni      8.8225203380     1.7436790770    16.0347677870
Ni     10.0511134640     3.8717235960    16.0347600380
Ni      2.6792792770    -0.3844068560    16.0347600380
Ni      3.9079067200     1.7436614180    16.0347555120
Ni      5.1365311080     3.8717690310    16.0346226390
Ni      5.1365164550    -0.3844362570    16.0347677870
Ni      6.3652073280     1.7436393910    16.0346221070
Ni      7.5938385560     3.8717351570    16.0347555120
Cu      2.0723744710     0.6666908500    18.1188401140
Cu      3.3010364020     2.7947772280    18.1188294380
Cu      4.5296848840     4.9228575240    18.1186684400
Cu      4.5296771200     0.6666970110    18.1188367610
Cu      5.7583325920     2.7947772670    18.1186160230
Cu      6.9869807220     4.9228581720    18.1188294380
Cu      6.9869802900     0.6666970300    18.1186522440
Cu      8.2156318920     2.7947839910    18.1188367610
Cu      9.4442885520     4.9228674280    18.1188401140
Cu      2.0477494240     0.7093612090    20.5305373300
Cu      3.2763990780     2.8374448350    20.5305290830
Cu      4.5050487700     4.9655285250    20.5303270790
Cu      4.5050488060     0.7093612090    20.5305312910
Cu      5.7336984610     2.8374448350    20.5302848030
Cu      6.9623481520     4.9655285250    20.5305290830
Cu      6.9623481150     0.7093612090    20.5303102470
Cu      8.1909977700     2.8374448350    20.5305312910
Cu      9.4196474610     4.9655285250    20.5305373300
Cu      0.1996576410    -0.3458171780    22.6496925520
Cu      8.8002014820     1.7822648550    22.6499310210
Cu     10.0288585330     3.9103492740    22.6499306530
Cu      2.6569559250    -0.3458206820    22.6499306530
Cu      3.8856048760     1.7822645930    22.6499270560
Cu      5.1142599260     3.9103438500    22.6496806750
Cu      5.1142596180    -0.3458146710    22.6499310210
Cu      6.3429051830     1.7822678380    22.6496760870
Cu      7.5715581480     3.9103507070    22.6499270560
Cu      2.6496048617     1.0696271104    24.7099123988
Cu      3.8638585384     3.1988824914    24.6794463715
Cu      5.1031310986     5.3400307013    24.6808620233
Cu      5.1008077894     1.0532097370    24.6741644811
Cu      6.3419484258     3.2027658943    24.7639327046
Cu      7.5727630397     5.3383065590    24.6902397702
Cu      7.5750518752     1.0553292384    24.6840847708
Cu      8.8057110348     3.1984305393    24.6890366373
Cu     10.0214256757     5.3271249989    24.7274165063
O       6.6136000772     1.8127720301    29.2252005034
O       6.0794032566     2.9825242585    26.8386276446
O       6.0293750503     3.3825750553    31.6021694499
C       6.1626288516     3.1814512055    29.2285299549
C       6.5425972754     3.8412493881    27.9046273289
C       6.6350260802     3.9646116404    30.4431740215
H       5.0663869008     3.1039170268    29.2855966521
H       7.6331529746     3.9931485521    27.8171657499
H       6.0410958144     4.8060444474    27.7566501333
H       6.3348069261     5.0217936846    30.3233371210
H       7.7408327744     3.9335982125    30.5084357251
H       7.5854851892     1.8081139092    29.3047642893
H       6.3279797520     2.0592844632    27.0721063646
H       6.2733348929     3.9106741413    32.3803104932
86
Step 5 | ATOMIC_POSITIONS (angstrom) | Cartesian Angstrom
Ni      0.0000000000     0.0000000000    10.0000000900
Ni      8.6005476670     2.1280836470    10.0000000900
Ni      9.8291973330     4.2561672950    10.0000000900
Ni      2.4572993330     0.0000000000    10.0000000900
Ni      3.6859490000     2.1280836470    10.0000000900
Ni      4.9145986670     4.2561672950    10.0000000900
Ni      4.9145986670     0.0000000000    10.0000000900
Ni      6.1432483330     2.1280836470    10.0000000900
Ni      7.3718980000     4.2561672950    10.0000000900
Ni      1.6381995390     1.4187224170    12.0063763950
Ni      2.8668492300     3.5468061070    12.0063763950
Ni      4.0954988850     5.6748897330    12.0063763950
Ni      4.0954988480     1.4187224170    12.0063763950
Ni      5.3241485390     3.5468061070    12.0063763950
Ni      6.5527981940     5.6748897330    12.0063763950
Ni      6.5527982300     1.4187224170    12.0063763950
Ni      7.7814479220     3.5468061070    12.0063763950
Ni      9.0100975760     5.6748897330    12.0063763950
Ni      2.0477494240     0.7093612090    14.0127530410
Ni      3.2763990780     2.8374448350    14.0127530410
Ni      4.5050487700     4.9655285250    14.0127530410
Ni      4.5050488060     0.7093612090    14.0127530410
Ni      5.7336984610     2.8374448350    14.0127530410
Ni      6.9623481520     4.9655285250    14.0127530410
Ni      6.9623481150     0.7093612090    14.0127530410
Ni      8.1909977700     2.8374448350    14.0127530410
Ni      9.4196474610     4.9655285250    14.0127530410
Ni      0.2219535440    -0.3844348150    16.0346322610
Ni      8.8225203380     1.7436790770    16.0347677870
Ni     10.0511134640     3.8717235960    16.0347600380
Ni      2.6792792770    -0.3844068560    16.0347600380
Ni      3.9079067200     1.7436614180    16.0347555120
Ni      5.1365311080     3.8717690310    16.0346226390
Ni      5.1365164550    -0.3844362570    16.0347677870
Ni      6.3652073280     1.7436393910    16.0346221070
Ni      7.5938385560     3.8717351570    16.0347555120
Cu      2.0723744710     0.6666908500    18.1188401140
Cu      3.3010364020     2.7947772280    18.1188294380
Cu      4.5296848840     4.9228575240    18.1186684400
Cu      4.5296771200     0.6666970110    18.1188367610
Cu      5.7583325920     2.7947772670    18.1186160230
Cu      6.9869807220     4.9228581720    18.1188294380
Cu      6.9869802900     0.6666970300    18.1186522440
Cu      8.2156318920     2.7947839910    18.1188367610
Cu      9.4442885520     4.9228674280    18.1188401140
Cu      2.0477494240     0.7093612090    20.5305373300
Cu      3.2763990780     2.8374448350    20.5305290830
Cu      4.5050487700     4.9655285250    20.5303270790
Cu      4.5050488060     0.7093612090    20.5305312910
Cu      5.7336984610     2.8374448350    20.5302848030
Cu      6.9623481520     4.9655285250    20.5305290830
Cu      6.9623481150     0.7093612090    20.5303102470
Cu      8.1909977700     2.8374448350    20.5305312910
Cu      9.4196474610     4.9655285250    20.5305373300
Cu      0.1996576410    -0.3458171780    22.6496925520
Cu      8.8002014820     1.7822648550    22.6499310210
Cu     10.0288585330     3.9103492740    22.6499306530
Cu      2.6569559250    -0.3458206820    22.6499306530
Cu      3.8856048760     1.7822645930    22.6499270560
Cu      5.1142599260     3.9103438500    22.6496806750
Cu      5.1142596180    -0.3458146710    22.6499310210
Cu      6.3429051830     1.7822678380    22.6496760870
Cu      7.5715581480     3.9103507070    22.6499270560
Cu      2.6503930410     1.0697309637    24.7103975921
Cu      3.8637302532     3.1988829370    24.6805085086
Cu      5.1034791133     5.3407230063    24.6815622781
Cu      5.1007896188     1.0527007941    24.6744377171
Cu      6.3408535313     3.2031481194    24.7641542165
Cu      7.5720829008     5.3374078306    24.6901492030
Cu      7.5750359767     1.0561063991    24.6839790653
Cu      8.8038879734     3.1984806066    24.6887089463
Cu     10.0223003114     5.3278472086    24.7281139866
O       6.6189478915     1.8161283198    29.2268031832
O       6.0808392865     2.9821458501    26.8382189007
O       6.0355131664     3.3863329613    31.6004120187
C       6.1665101508     3.1842656537    29.2280176575
C       6.5465470797     3.8414855660    27.9030893475
C       6.6400817496     3.9687870111    30.4413186398
H       5.0698642845     3.1058742624    29.2860691387
H       7.6374652769     3.9916766989    27.8160866560
H       6.0470444688     4.8071619588    27.7548284731
H       6.3381628020     5.0252212329    30.3196551769
H       7.7459902719     3.9375136452    30.5077528505
H       7.5907096134     1.8100916909    29.3089754017
H       6.3319261863     2.0599733853    27.0714001175
H       6.2734635517     3.9176756058    32.3777991366
86
Step 6 | ATOMIC_POSITIONS (angstrom) | Cartesian Angstrom
Ni      0.0000000000     0.0000000000    10.0000000900
Ni      8.6005476670     2.1280836470    10.0000000900
Ni      9.8291973330     4.2561672950    10.0000000900
Ni      2.4572993330     0.0000000000    10.0000000900
Ni      3.6859490000     2.1280836470    10.0000000900
Ni      4.9145986670     4.2561672950    10.0000000900
Ni      4.9145986670     0.0000000000    10.0000000900
Ni      6.1432483330     2.1280836470    10.0000000900
Ni      7.3718980000     4.2561672950    10.0000000900
Ni      1.6381995390     1.4187224170    12.0063763950
Ni      2.8668492300     3.5468061070    12.0063763950
Ni      4.0954988850     5.6748897330    12.0063763950
Ni      4.0954988480     1.4187224170    12.0063763950
Ni      5.3241485390     3.5468061070    12.0063763950
Ni      6.5527981940     5.6748897330    12.0063763950
Ni      6.5527982300     1.4187224170    12.0063763950
Ni      7.7814479220     3.5468061070    12.0063763950
Ni      9.0100975760     5.6748897330    12.0063763950
Ni      2.0477494240     0.7093612090    14.0127530410
Ni      3.2763990780     2.8374448350    14.0127530410
Ni      4.5050487700     4.9655285250    14.0127530410
Ni      4.5050488060     0.7093612090    14.0127530410
Ni      5.7336984610     2.8374448350    14.0127530410
Ni      6.9623481520     4.9655285250    14.0127530410
Ni      6.9623481150     0.7093612090    14.0127530410
Ni      8.1909977700     2.8374448350    14.0127530410
Ni      9.4196474610     4.9655285250    14.0127530410
Ni      0.2219535440    -0.3844348150    16.0346322610
Ni      8.8225203380     1.7436790770    16.0347677870
Ni     10.0511134640     3.8717235960    16.0347600380
Ni      2.6792792770    -0.3844068560    16.0347600380
Ni      3.9079067200     1.7436614180    16.0347555120
Ni      5.1365311080     3.8717690310    16.0346226390
Ni      5.1365164550    -0.3844362570    16.0347677870
Ni      6.3652073280     1.7436393910    16.0346221070
Ni      7.5938385560     3.8717351570    16.0347555120
Cu      2.0723744710     0.6666908500    18.1188401140
Cu      3.3010364020     2.7947772280    18.1188294380
Cu      4.5296848840     4.9228575240    18.1186684400
Cu      4.5296771200     0.6666970110    18.1188367610
Cu      5.7583325920     2.7947772670    18.1186160230
Cu      6.9869807220     4.9228581720    18.1188294380
Cu      6.9869802900     0.6666970300    18.1186522440
Cu      8.2156318920     2.7947839910    18.1188367610
Cu      9.4442885520     4.9228674280    18.1188401140
Cu      2.0477494240     0.7093612090    20.5305373300
Cu      3.2763990780     2.8374448350    20.5305290830
Cu      4.5050487700     4.9655285250    20.5303270790
Cu      4.5050488060     0.7093612090    20.5305312910
Cu      5.7336984610     2.8374448350    20.5302848030
Cu      6.9623481520     4.9655285250    20.5305290830
Cu      6.9623481150     0.7093612090    20.5303102470
Cu      8.1909977700     2.8374448350    20.5305312910
Cu      9.4196474610     4.9655285250    20.5305373300
Cu      0.1996576410    -0.3458171780    22.6496925520
Cu      8.8002014820     1.7822648550    22.6499310210
Cu     10.0288585330     3.9103492740    22.6499306530
Cu      2.6569559250    -0.3458206820    22.6499306530
Cu      3.8856048760     1.7822645930    22.6499270560
Cu      5.1142599260     3.9103438500    22.6496806750
Cu      5.1142596180    -0.3458146710    22.6499310210
Cu      6.3429051830     1.7822678380    22.6496760870
Cu      7.5715581480     3.9103507070    22.6499270560
Cu      2.6512704574     1.0696605226    24.7110389762
Cu      3.8637622710     3.1987905624    24.6813480153
Cu      5.1037325159     5.3418490353    24.6822909360
Cu      5.1007878959     1.0513894067    24.6738207697
Cu      6.3395337803     3.2036086863    24.7640730952
Cu      7.5716165210     5.3364188968    24.6899526362
Cu      7.5751778691     1.0568494812    24.6836733199
Cu      8.8027378101     3.1982244484    24.6885759290
Cu     10.0236129005     5.3283807689    24.7290736379
O       6.6227554016     1.8182862455    29.2274705503
O       6.0817103059     2.9816457457    26.8374606707
O       6.0417331669     3.3891058577    31.5989760495
C       6.1684016186     3.1857945362    29.2270177010
C       6.5491599902     3.8412545105    27.9015938760
C       6.6436730706     3.9713560007    30.4388444487
H       5.0713373271     3.1061528193    29.2848031200
H       7.6403756195     3.9897656510    27.8151945341
H       6.0522809908     4.8080706993    27.7527759023
H       6.3407259906     5.0271901706    30.3160097970
H       7.7498034365     3.9399812235    30.5045761380
H       7.5944169749     1.8120948054    29.3121341245
H       6.3352825624     2.0604718899    27.0702440063
H       6.2740991815     3.9252333011    32.3747261215
86
Step 7 | ATOMIC_POSITIONS (angstrom) | Cartesian Angstrom
Ni      0.0000000000     0.0000000000    10.0000000900
Ni      8.6005476670     2.1280836470    10.0000000900
Ni      9.8291973330     4.2561672950    10.0000000900
Ni      2.4572993330     0.0000000000    10.0000000900
Ni      3.6859490000     2.1280836470    10.0000000900
Ni      4.9145986670     4.2561672950    10.0000000900
Ni      4.9145986670     0.0000000000    10.0000000900
Ni      6.1432483330     2.1280836470    10.0000000900
Ni      7.3718980000     4.2561672950    10.0000000900
Ni      1.6381995390     1.4187224170    12.0063763950
Ni      2.8668492300     3.5468061070    12.0063763950
Ni      4.0954988850     5.6748897330    12.0063763950
Ni      4.0954988480     1.4187224170    12.0063763950
Ni      5.3241485390     3.5468061070    12.0063763950
Ni      6.5527981940     5.6748897330    12.0063763950
Ni      6.5527982300     1.4187224170    12.0063763950
Ni      7.7814479220     3.5468061070    12.0063763950
Ni      9.0100975760     5.6748897330    12.0063763950
Ni      2.0477494240     0.7093612090    14.0127530410
Ni      3.2763990780     2.8374448350    14.0127530410
Ni      4.5050487700     4.9655285250    14.0127530410