86
Step 1 | ATOMIC_POSITIONS (angstrom) | Cartesian Angstrom
Ni      0.0000000000     0.0000000000    10.0000000900
Ni      8.6005476670     2.1280836470    10.0000000900
Ni      9.8291973330     4.2561672950    10.0000000900
Ni      2.4572993330     0.0000000000    10.0000000900
Ni      3.6859490000     2.1280836470    10.0000000900
Ni      4.9145986670     4.2561672950    10.0000000900
Ni      4.9145986670     0.0000000000    10.0000000900
Ni      6.1432483330     2.1280836470    10.0000000900
Ni      7.3718980000     4.2561672950    10.0000000900
Ni      1.6381995390     1.4187224170    12.0063763950
Ni      2.8668492300     3.5468061070    12.0063763950
Ni      4.0954988850     5.6748897330    12.0063763950
Ni      4.0954988480     1.4187224170    12.0063763950
Ni      5.3241485390     3.5468061070    12.0063763950
Ni      6.5527981940     5.6748897330    12.0063763950
Ni      6.5527982300     1.4187224170    12.0063763950
Ni      7.7814479220     3.5468061070    12.0063763950
Ni      9.0100975760     5.6748897330    12.0063763950
Ni      2.0477494240     0.7093612090    14.1682640069
Ni      3.2763990780     2.8374448350    14.1694664342
Ni      4.5050487700     4.9655285250    14.1684443623
Ni      4.5050488060     0.7093612090    14.1695004662
Ni      5.7336984610     2.8374448350    14.1685544963
Ni      6.9623481520     4.9655285250    14.1685133228
Ni      6.9623481150     0.7093612090    14.1685281771
Ni      8.1909977700     2.8374448350    14.1685224029
Ni      9.4196474610     4.9655285250    14.1695899340
Ni      3.9004350644     6.0129143043    16.2389286943
Ni      1.4431619114     1.7567308651    16.2387602638
Ni      2.6717700991     3.8848417448    16.2409208678
Ni      6.3576719222     6.0129782697    16.2388414559
Ni      3.9003222331     1.7567333734    16.2408312895
Ni      5.1289591293     3.8848288655    16.2390166840
Ni      8.8150010628     6.0129606852    16.2409728396
Ni      6.3576354600     1.7567714643    16.2390718087
Ni      7.5863332680     3.8849190698    16.2390070605
Cu      2.0591143749     0.6896317499    18.3598398201
Cu      3.2877424181     2.8177057042    18.3629120737
Cu      4.5164478363     4.9458063103    18.3599878999
Cu      4.5163124330     0.6895554592    18.3629464957
Cu      5.7449364214     2.8176233245    18.3601130757
Cu      6.9736663147     4.9457479247    18.3599063084
Cu      6.9737072184     0.6896250089    18.3599065313
Cu      8.2023665102     2.8176990953    18.3595935429
Cu      9.4310638912     4.9458278499    18.3630150725
Cu      2.0477494240     0.7093612090    20.7919712670
Cu      3.2763990780     2.8374448350    20.7961318003
Cu      4.5050487700     4.9655285250    20.7922220263
Cu      4.5050488060     0.7093612090    20.7961900383
Cu      5.7336984610     2.8374448350    20.7923702014
Cu      6.9623481520     4.9655285250    20.7921027242
Cu      6.9623481150     0.7093612090    20.7920887738
Cu      8.1909977700     2.8374448350    20.7916091018
Cu      9.4196474610     4.9655285250    20.7962745486
Cu      0.0033543404    -0.0059786080    23.0302493366
Cu      8.6034563736     2.1225605924    23.0296072634
Cu      9.8327829443     4.2509000715    23.0354710285
Cu      2.4601771415    -0.0058556253    23.0309554140
Cu      3.6894437856     2.1230969040    23.0360577390
Cu      4.9179638534     4.2502266722    23.0321676209
Cu      4.9179668533    -0.0055154363    23.0340986634
Cu      6.1455529981     2.1240485902    23.0335519371
Cu      7.3746474466     4.2505803830    23.0317126076
Cu      1.8386148856     1.0711142538    25.1932291605
Cu      3.0623166729     3.1985389915    25.1933139463
Cu      4.2921731787     5.3333742693    25.1872148858
Cu      4.2948575005     1.0680278777    25.1952236391
Cu      5.5269074071     3.2021160991    25.1650050094
Cu      6.7572415791     5.3326430740    25.1865482673
Cu      6.7547250751     1.0686293666    25.1925375239
Cu      7.9864067783     3.1985535398    25.1901318352
Cu      9.2103687517     5.3273301855    25.1973380569
O       5.8931291336     2.2162554679    29.5136831391
O       5.3990964154     3.5760181565    27.1618269880
O       5.4048282525     3.5631751096    31.9616130855
C       5.4146510299     3.5664678011    29.5498832967
C       5.8821618763     4.2849694445    28.2958633844
C       5.8871648885     4.2596962888    30.8114585502
H       4.3000495031     3.4818220660    29.5454341935
H       6.9856719025     4.3004110466    28.2389484727
H       5.5093127490     5.3056537229    28.2357511138
H       5.5430445024     5.3002950518    30.8439223088
H       6.9959210309     4.2484709625    30.8441860708
H       6.8723447319     2.2749449101    29.5223710423
H       5.7494586390     2.6462964121    27.2118147334
H       5.7491274120     4.0398102056    32.7335980454
86
Step 2 | ATOMIC_POSITIONS (angstrom) | Cartesian Angstrom
Ni      0.0000000000     0.0000000000    10.0000000900
Ni      8.6005476670     2.1280836470    10.0000000900
Ni      9.8291973330     4.2561672950    10.0000000900
Ni      2.4572993330     0.0000000000    10.0000000900
Ni      3.6859490000     2.1280836470    10.0000000900
Ni      4.9145986670     4.2561672950    10.0000000900
Ni      4.9145986670     0.0000000000    10.0000000900
Ni      6.1432483330     2.1280836470    10.0000000900
Ni      7.3718980000     4.2561672950    10.0000000900
Ni      1.6381995390     1.4187224170    12.0063763950
Ni      2.8668492300     3.5468061070    12.0063763950
Ni      4.0954988850     5.6748897330    12.0063763950
Ni      4.0954988480     1.4187224170    12.0063763950
Ni      5.3241485390     3.5468061070    12.0063763950
Ni      6.5527981940     5.6748897330    12.0063763950
Ni      6.5527982300     1.4187224170    12.0063763950
Ni      7.7814479220     3.5468061070    12.0063763950
Ni      9.0100975760     5.6748897330    12.0063763950
Ni      2.0477494240     0.7093612090    14.1682640069
Ni      3.2763990780     2.8374448350    14.1694664342
Ni      4.5050487700     4.9655285250    14.1684443623
Ni      4.5050488060     0.7093612090    14.1695004662
Ni      5.7336984610     2.8374448350    14.1685544963
Ni      6.9623481520     4.9655285250    14.1685133228
Ni      6.9623481150     0.7093612090    14.1685281771
Ni      8.1909977700     2.8374448350    14.1685224029
Ni      9.4196474610     4.9655285250    14.1695899340
Ni      3.9004350644     6.0129143043    16.2389286943
Ni      1.4431619114     1.7567308651    16.2387602638
Ni      2.6717700991     3.8848417448    16.2409208678
Ni      6.3576719222     6.0129782697    16.2388414559
Ni      3.9003222331     1.7567333734    16.2408312895
Ni      5.1289591293     3.8848288655    16.2390166840
Ni      8.8150010628     6.0129606852    16.2409728396
Ni      6.3576354600     1.7567714643    16.2390718087
Ni      7.5863332680     3.8849190698    16.2390070605
Cu      2.0591143749     0.6896317499    18.3598398201
Cu      3.2877424181     2.8177057042    18.3629120737
Cu      4.5164478363     4.9458063103    18.3599878999
Cu      4.5163124330     0.6895554592    18.3629464957
Cu      5.7449364214     2.8176233245    18.3601130757
Cu      6.9736663147     4.9457479247    18.3599063084
Cu      6.9737072184     0.6896250089    18.3599065313
Cu      8.2023665102     2.8176990953    18.3595935429
Cu      9.4310638912     4.9458278499    18.3630150725
Cu      2.0477494240     0.7093612090    20.7919712670
Cu      3.2763990780     2.8374448350    20.7961318003
Cu      4.5050487700     4.9655285250    20.7922220263
Cu      4.5050488060     0.7093612090    20.7961900383
Cu      5.7336984610     2.8374448350    20.7923702014
Cu      6.9623481520     4.9655285250    20.7921027242
Cu      6.9623481150     0.7093612090    20.7920887738
Cu      8.1909977700     2.8374448350    20.7916091018
Cu      9.4196474610     4.9655285250    20.7962745486
Cu      0.0119995947    -0.0213331110    23.0267788989
Cu      8.6113765626     2.1076873548    23.0262923067
Cu      9.8420115138     4.2370130143    23.0350234191
Cu      2.4677494268    -0.0208949240    23.0302758453
Cu      3.6985432701     2.1096007214    23.0376968638
Cu      4.9261344140     4.2357748209    23.0320692581
Cu      4.9269204873    -0.0202483292    23.0306701455
Cu      6.1525931369     2.1116912126    23.0368738993
Cu      7.3821980544     4.2357006542    23.0328674957
Cu      1.8384571138     1.0703599479    25.1967651961
Cu      3.0513408243     3.1962751490    25.1865621492
Cu      4.2838672711     5.3463505679    25.1747400988
Cu      4.2927332207     1.0609047830    25.1933947729
Cu      5.5325360683     3.2094567132    25.1049281609
Cu      6.7663693897     5.3440643528    25.1730991167
Cu      6.7577302659     1.0630173877    25.1933292540
Cu      7.9962918708     3.1963777621    25.1858969352
Cu      9.2099434979     5.3267231397    25.2006353175
O       5.8963755184     2.1961083987    29.5018476116
O       5.3739429226     3.5518393755    27.2000384718
O       5.3912623611     3.5537038634    31.9700767891
C       5.4249022309     3.5630658438    29.5670020606
C       5.8912959391     4.2955949568    28.3139402902
C       5.8893524963     4.2624678238    30.8287003011
H       4.3159632851     3.4839193284    29.5456397074
H       6.9944576585     4.3106654622    28.2487731967
H       5.5038145996     5.3178430508    28.2260254810
H       5.5429474408     5.3186889126    30.8307741819
H       7.0038052864     4.2574526549    30.8271205289
H       6.8664844624     2.2683427053    29.5261645684
H       5.7434382407     2.6319693320    27.2366367925
H       5.7450872595     4.0350306311    32.7366175524
86
Step 3 | ATOMIC_POSITIONS (angstrom) | Cartesian Angstrom
Ni      0.0000000000     0.0000000000    10.0000000900
Ni      8.6005476670     2.1280836470    10.0000000900
Ni      9.8291973330     4.2561672950    10.0000000900
Ni      2.4572993330     0.0000000000    10.0000000900
Ni      3.6859490000     2.1280836470    10.0000000900
Ni      4.9145986670     4.2561672950    10.0000000900
Ni      4.9145986670     0.0000000000    10.0000000900
Ni      6.1432483330     2.1280836470    10.0000000900
Ni      7.3718980000     4.2561672950    10.0000000900
Ni      1.6381995390     1.4187224170    12.0063763950
Ni      2.8668492300     3.5468061070    12.0063763950
Ni      4.0954988850     5.6748897330    12.0063763950
Ni      4.0954988480     1.4187224170    12.0063763950
Ni      5.3241485390     3.5468061070    12.0063763950
Ni      6.5527981940     5.6748897330    12.0063763950
Ni      6.5527982300     1.4187224170    12.0063763950
Ni      7.7814479220     3.5468061070    12.0063763950
Ni      9.0100975760     5.6748897330    12.0063763950
Ni      2.0477494240     0.7093612090    14.1682640069
Ni      3.2763990780     2.8374448350    14.1694664342
Ni      4.5050487700     4.9655285250    14.1684443623
Ni      4.5050488060     0.7093612090    14.1695004662
Ni      5.7336984610     2.8374448350    14.1685544963
Ni      6.9623481520     4.9655285250    14.1685133228
Ni      6.9623481150     0.7093612090    14.1685281771
Ni      8.1909977700     2.8374448350    14.1685224029
Ni      9.4196474610     4.9655285250    14.1695899340
Ni      3.9004350644     6.0129143043    16.2389286943
Ni      1.4431619114     1.7567308651    16.2387602638
Ni      2.6717700991     3.8848417448    16.2409208678
Ni      6.3576719222     6.0129782697    16.2388414559
Ni      3.9003222331     1.7567333734    16.2408312895
Ni      5.1289591293     3.8848288655    16.2390166840
Ni      8.8150010628     6.0129606852    16.2409728396
Ni      6.3576354600     1.7567714643    16.2390718087
Ni      7.5863332680     3.8849190698    16.2390070605
Cu      2.0591143749     0.6896317499    18.3598398201
Cu      3.2877424181     2.8177057042    18.3629120737
Cu      4.5164478363     4.9458063103    18.3599878999
Cu      4.5163124330     0.6895554592    18.3629464957
Cu      5.7449364214     2.8176233245    18.3601130757
Cu      6.9736663147     4.9457479247    18.3599063084
Cu      6.9737072184     0.6896250089    18.3599065313
Cu      8.2023665102     2.8176990953    18.3595935429
Cu      9.4310638912     4.9458278499    18.3630150725
Cu      2.0477494240     0.7093612090    20.7919712670
Cu      3.2763990780     2.8374448350    20.7961318003
Cu      4.5050487700     4.9655285250    20.7922220263
Cu      4.5050488060     0.7093612090    20.7961900383
Cu      5.7336984610     2.8374448350    20.7923702014
Cu      6.9623481520     4.9655285250    20.7921027242
Cu      6.9623481150     0.7093612090    20.7920887738
Cu      8.1909977700     2.8374448350    20.7916091018
Cu      9.4196474610     4.9655285250    20.7962745486
Cu      0.0195793260    -0.0346941767    23.0214865305
Cu      8.6192540099     2.0933752942    23.0225810171
Cu      9.8500857547     4.2241600145    23.0334415901
Cu      2.4747188950    -0.0339881516    23.0278557730
Cu      3.7068581140     2.0965272153    23.0382210471
Cu      4.9321505055     4.2250571607    23.0259276138
Cu      4.9352434014    -0.0342642921    23.0271205056
Cu      6.1610543650     2.0967330132    23.0348218564
Cu      7.3896157671     4.2215984303    23.0325700233
Cu      1.8387690487     1.0693070230    25.1999651947
Cu      3.0462391105     3.1940516665    25.1814888516
Cu      4.2797244037     5.3528073711    25.1650579900
Cu      4.2928662801     1.0575291307    25.1917736466
Cu      5.5367813343     3.2157577642    25.0698976403
Cu      6.7725532246     5.3502816285    25.1627349341
Cu      6.7589970269     1.0605199153    25.1940815391
Cu      8.0020348875     3.1944070433    25.1827114350
Cu      9.2100168277     5.3257958741    25.2037155162
O       5.8924024586     2.1946936149    29.4953684675
O       5.3575157447     3.5341376318    27.2231277239
O       5.3880251256     3.5572792919    31.9750713375
C       5.4290176210     3.5607532252    29.5775442365
C       5.8924830582     4.2936723656    28.3229813458
C       5.8917276224     4.2626996086    30.8365875205
H       4.3308652502     3.4855075975    29.5474264913
H       7.0004599603     4.3207055542    28.2558371339
H       5.5011946821     5.3226932780    28.2202341586
H       5.5453404983     5.3225420953    30.8220901731
H       7.0050687213     4.2653807853    30.8193795908
H       6.8706685354     2.2585882946    29.5299843567
H       5.7366655597     2.6234240281    27.2606468869
H       5.7392438603     4.0276620310    32.7422496093
86
Step 4 | ATOMIC_POSITIONS (angstrom) | Cartesian Angstrom
Ni      0.0000000000     0.0000000000    10.0000000900
Ni      8.6005476670     2.1280836470    10.0000000900
Ni      9.8291973330     4.2561672950    10.0000000900
Ni      2.4572993330     0.0000000000    10.0000000900
Ni      3.6859490000     2.1280836470    10.0000000900
Ni      4.9145986670     4.2561672950    10.0000000900
Ni      4.9145986670     0.0000000000    10.0000000900
Ni      6.1432483330     2.1280836470    10.0000000900
Ni      7.3718980000     4.2561672950    10.0000000900
Ni      1.6381995390     1.4187224170    12.0063763950
Ni      2.8668492300     3.5468061070    12.0063763950
Ni      4.0954988850     5.6748897330    12.0063763950
Ni      4.0954988480     1.4187224170    12.0063763950
Ni      5.3241485390     3.5468061070    12.0063763950
Ni      6.5527981940     5.6748897330    12.0063763950
Ni      6.5527982300     1.4187224170    12.0063763950
Ni      7.7814479220     3.5468061070    12.0063763950
Ni      9.0100975760     5.6748897330    12.0063763950
Ni      2.0477494240     0.7093612090    14.1682640069
Ni      3.2763990780     2.8374448350    14.1694664342
Ni      4.5050487700     4.9655285250    14.1684443623
Ni      4.5050488060     0.7093612090    14.1695004662
Ni      5.7336984610     2.8374448350    14.1685544963
Ni      6.9623481520     4.9655285250    14.1685133228
Ni      6.9623481150     0.7093612090    14.1685281771
Ni      8.1909977700     2.8374448350    14.1685224029
Ni      9.4196474610     4.9655285250    14.1695899340
Ni      3.9004350644     6.0129143043    16.2389286943
Ni      1.4431619114     1.7567308651    16.2387602638
Ni      2.6717700991     3.8848417448    16.2409208678
Ni      6.3576719222     6.0129782697    16.2388414559
Ni      3.9003222331     1.7567333734    16.2408312895
Ni      5.1289591293     3.8848288655    16.2390166840
Ni      8.8150010628     6.0129606852    16.2409728396
Ni      6.3576354600     1.7567714643    16.2390718087
Ni      7.5863332680     3.8849190698    16.2390070605
Cu      2.0591143749     0.6896317499    18.3598398201
Cu      3.2877424181     2.8177057042    18.3629120737
Cu      4.5164478363     4.9458063103    18.3599878999
Cu      4.5163124330     0.6895554592    18.3629464957
Cu      5.7449364214     2.8176233245    18.3601130757
Cu      6.9736663147     4.9457479247    18.3599063084
Cu      6.9737072184     0.6896250089    18.3599065313
Cu      8.2023665102     2.8176990953    18.3595935429
Cu      9.4310638912     4.9458278499    18.3630150725
Cu      2.0477494240     0.7093612090    20.7919712670
Cu      3.2763990780     2.8374448350    20.7961318003
Cu      4.5050487700     4.9655285250    20.7922220263
Cu      4.5050488060     0.7093612090    20.7961900383
Cu      5.7336984610     2.8374448350    20.7923702014
Cu      6.9623481520     4.9655285250    20.7921027242
Cu      6.9623481150     0.7093612090    20.7920887738
Cu      8.1909977700     2.8374448350    20.7916091018
Cu      9.4196474610     4.9655285250    20.7962745486
Cu      0.0312121453    -0.0551539504    23.0109431000
Cu      8.6325072466     2.0702264533    23.0160833341
Cu      9.8623108376     4.2036249602    23.0296335630
Cu      2.4859101088    -0.0539650616    23.0219421524
Cu      3.7202184474     2.0753474704    23.0376612531
Cu      4.9405603202     4.2099622881    23.0095014034
Cu      4.9482763511    -0.0570717406    23.0211796044
Cu      6.1760863800     2.0700141467    23.0262851661
Cu      7.4015675575     4.1987314844    23.0303202547
Cu      1.8398846809     1.0670278328    25.2047578982
Cu      3.0435637369     3.1902699508    25.1746519956
Cu      4.2769457524     5.3571604504    25.1514622635
Cu      4.2954309235     1.0552922232    25.1891334453
Cu      5.5428419711     3.2238072447    25.0342970250
Cu      6.7801796754     5.3554341447    25.1486064305
Cu      6.7597119861     1.0590369390    25.1949655985
Cu      8.0077661332     3.1911112451    25.1783210455
Cu      9.2109052086     5.3237707261    25.2084498519
O       5.9004897622     2.1988404855    29.4908226758
O       5.3376258742     3.5132137961    27.2485143432
O       5.3850192491     3.5645257644    31.9743674067
C       5.4368521800     3.5619012712    29.5888186396
C       5.8913447047     4.2912530756    28.3299979139
C       5.8959175240     4.2636035717    30.8424653840
H       4.3464243603     3.4876464443    29.5523189214
H       7.0029618139     4.3349819134    28.2649489109
H       5.4999607081     5.3196344176    28.2145218242
H       5.5502725238     5.3201087292    30.8113376905
H       7.0047292365     4.2769409630    30.8142565618
H       6.8671760911     2.2398729434    29.5359900950
H       5.7254939084     2.6100384816    27.2992157497
H       5.7327286766     4.0196983074    32.7608478905
86
Step 5 | ATOMIC_POSITIONS (angstrom) | Cartesian Angstrom
Ni      0.0000000000     0.0000000000    10.0000000900
Ni      8.6005476670     2.1280836470    10.0000000900
Ni      9.8291973330     4.2561672950    10.0000000900
Ni      2.4572993330     0.0000000000    10.0000000900
Ni      3.6859490000     2.1280836470    10.0000000900
Ni      4.9145986670     4.2561672950    10.0000000900
Ni      4.9145986670     0.0000000000    10.0000000900
Ni      6.1432483330     2.1280836470    10.0000000900
Ni      7.3718980000     4.2561672950    10.0000000900
Ni      1.6381995390     1.4187224170    12.0063763950
Ni      2.8668492300     3.5468061070    12.0063763950
Ni      4.0954988850     5.6748897330    12.0063763950
Ni      4.0954988480     1.4187224170    12.0063763950
Ni      5.3241485390     3.5468061070    12.0063763950
Ni      6.5527981940     5.6748897330    12.0063763950
Ni      6.5527982300     1.4187224170    12.0063763950
Ni      7.7814479220     3.5468061070    12.0063763950
Ni      9.0100975760     5.6748897330    12.0063763950
Ni      2.0477494240     0.7093612090    14.1682640069
Ni      3.2763990780     2.8374448350    14.1694664342
Ni      4.5050487700     4.9655285250    14.1684443623
Ni      4.5050488060     0.7093612090    14.1695004662
Ni      5.7336984610     2.8374448350    14.1685544963
Ni      6.9623481520     4.9655285250    14.1685133228
Ni      6.9623481150     0.7093612090    14.1685281771
Ni      8.1909977700     2.8374448350    14.1685224029
Ni      9.4196474610     4.9655285250    14.1695899340
Ni      3.9004350644     6.0129143043    16.2389286943
Ni      1.4431619114     1.7567308651    16.2387602638
Ni      2.6717700991     3.8848417448    16.2409208678
Ni      6.3576719222     6.0129782697    16.2388414559
Ni      3.9003222331     1.7567333734    16.2408312895
Ni      5.1289591293     3.8848288655    16.2390166840
Ni      8.8150010628     6.0129606852    16.2409728396
Ni      6.3576354600     1.7567714643    16.2390718087
Ni      7.5863332680     3.8849190698    16.2390070605
Cu      2.0591143749     0.6896317499    18.3598398201
Cu      3.2877424181     2.8177057042    18.3629120737
Cu      4.5164478363     4.9458063103    18.3599878999
Cu      4.5163124330     0.6895554592    18.3629464957
Cu      5.7449364214     2.8176233245    18.3601130757
Cu      6.9736663147     4.9457479247    18.3599063084
Cu      6.9737072184     0.6896250089    18.3599065313
Cu      8.2023665102     2.8176990953    18.3595935429
Cu      9.4310638912     4.9458278499    18.3630150725
Cu      2.0477494240     0.7093612090    20.7919712670
Cu      3.2763990780     2.8374448350    20.7961318003
Cu      4.5050487700     4.9655285250    20.7922220263
Cu      4.5050488060     0.7093612090    20.7961900383
Cu      5.7336984610     2.8374448350    20.7923702014
Cu      6.9623481520     4.9655285250    20.7921027242
Cu      6.9623481150     0.7093612090    20.7920887738
Cu      8.1909977700     2.8374448350    20.7916091018
Cu      9.4196474610     4.9655285250    20.7962745486
Cu      0.0463391240    -0.0818177760    22.9943874344
Cu      8.6513066158     2.0390453235    23.0067980096
Cu      9.8777875893     4.1758653151    23.0228801768
Cu      2.5012504345    -0.0797867267    23.0112856340
Cu      3.7386129818     2.0468536386    23.0347026197
Cu      4.9513867458     4.1904008978    22.9800775293
Cu      4.9651392769    -0.0883770981    23.0130030998
Cu      6.1972931295     2.0321118429    23.0092201009
Cu      7.4173200546     4.1674643526    23.0246970544
Cu      1.8423540133     1.0628798232    25.2105002567
Cu      3.0466710473     3.1847165950    25.1670197961
Cu      4.2780080512     5.3557070759    25.1351857254
Cu      4.3018440408     1.0554891390    25.1854394540
Cu      5.5504680723     3.2308002735    25.0097835176
Cu      6.7880184979     5.3563666037    25.1327855987
Cu      6.7596719276     1.0593478590    25.1953691120
Cu      8.0117743133     3.1861863928    25.1731946704
Cu      9.2134502045     5.3201296425    25.2143400895
O       5.9003116868     2.2073342488    29.4903805853
O       5.3208540226     3.4905564227    27.2694276177
O       5.3871846372     3.5804179187    31.9814873204
C       5.4463989582     3.5660879824    29.5953197960
C       5.8901368975     4.2856124292    28.3323796500
C       5.9047385547     4.2658072679    30.8442400061
H       4.3599570930     3.4894193573    29.5616793340
H       6.9975501705     4.3510118994    28.2732611432
H       5.4983356792     5.3092040461    28.2103262969
H       5.5562447814     5.3129127185    30.8002605618
H       7.0044644857     4.2910000727    30.8157969836
H       6.8764816781     2.2145369732    29.5454537439
H       5.7081579409     2.5948590004    27.3507439910
H       5.7215354173     4.0059120207    32.7810026145
86
Step 6 | ATOMIC_POSITIONS (angstrom) | Cartesian Angstrom
Ni      0.0000000000     0.0000000000    10.0000000900
Ni      8.6005476670     2.1280836470    10.0000000900
Ni      9.8291973330     4.2561672950    10.0000000900
Ni      2.4572993330     0.0000000000    10.0000000900
Ni      3.6859490000     2.1280836470    10.0000000900
Ni      4.9145986670     4.2561672950    10.0000000900
Ni      4.9145986670     0.0000000000    10.0000000900
Ni      6.1432483330     2.1280836470    10.0000000900
Ni      7.3718980000     4.2561672950    10.0000000900
Ni      1.6381995390     1.4187224170    12.0063763950
Ni      2.8668492300     3.5468061070    12.0063763950
Ni      4.0954988850     5.6748897330    12.0063763950
Ni      4.0954988480     1.4187224170    12.0063763950
Ni      5.3241485390     3.5468061070    12.0063763950
Ni      6.5527981940     5.6748897330    12.0063763950
Ni      6.5527982300     1.4187224170    12.0063763950
Ni      7.7814479220     3.5468061070    12.0063763950
Ni      9.0100975760     5.6748897330    12.0063763950
Ni      2.0477494240     0.7093612090    14.1682640069
Ni      3.2763990780     2.8374448350    14.1694664342
Ni      4.5050487700     4.9655285250    14.1684443623
Ni      4.5050488060     0.7093612090    14.1695004662
Ni      5.7336984610     2.8374448350    14.1685544963
Ni      6.9623481520     4.9655285250    14.1685133228
Ni      6.9623481150     0.7093612090    14.1685281771
Ni      8.1909977700     2.8374448350    14.1685224029
Ni      9.4196474610     4.9655285250    14.1695899340
Ni      3.9004350644     6.0129143043    16.2389286943
Ni      1.4431619114     1.7567308651    16.2387602638
Ni      2.6717700991     3.8848417448    16.2409208678
Ni      6.3576719222     6.0129782697    16.2388414559
Ni      3.9003222331     1.7567333734    16.2408312895
Ni      5.1289591293     3.8848288655    16.2390166840
Ni      8.8150010628     6.0129606852    16.2409728396
Ni      6.3576354600     1.7567714643    16.2390718087
Ni      7.5863332680     3.8849190698    16.2390070605
Cu      2.0591143749     0.6896317499    18.3598398201
Cu      3.2877424181     2.8177057042    18.3629120737
Cu      4.5164478363     4.9458063103    18.3599878999
Cu      4.5163124330     0.6895554592    18.3629464957
Cu      5.7449364214     2.8176233245    18.3601130757
Cu      6.9736663147     4.9457479247    18.3599063084
Cu      6.9737072184     0.6896250089    18.3599065313
Cu      8.2023665102     2.8176990953    18.3595935429
Cu      9.4310638912     4.9458278499    18.3630150725
Cu      2.0477494240     0.7093612090    20.7919712670
Cu      3.2763990780     2.8374448350    20.7961318003
Cu      4.5050487700     4.9655285250    20.7922220263
Cu      4.5050488060     0.7093612090    20.7961900383
Cu      5.7336984610     2.8374448350    20.7923702014
Cu      6.9623481520     4.9655285250    20.7921027242
Cu      6.9623481150     0.7093612090    20.7920887738
Cu      8.1909977700     2.8374448350    20.7916091018
Cu      9.4196474610     4.9655285250    20.7962745486
Cu      0.0628951056    -0.1112471106    22.9738360423
Cu      8.6734351583     2.0047074595    22.9961391529
Cu      9.8939197673     4.1445270536    23.0135381662
Cu      2.5190004173    -0.1078748627    22.9963351767
Cu      3.7600308555     2.0155973289    23.0282481087
Cu      4.9648984526     4.1660752403    22.9424661967
Cu      4.9827317061    -0.1241079140    23.0039237105
Cu      6.2205845836     1.9902940164    22.9861220472
Cu      7.4338525368     4.1319522348    23.0150587708
Cu      1.8465271623     1.0565649138    25.2156150962
Cu      3.0568734639     3.1776777305    25.1601557539
Cu      4.2842785290     5.3466695842    25.1185287869
Cu      4.3120546450     1.0575641181    25.1810886927
Cu      5.5586322474     3.2330730817    25.0039385675
Cu      6.7949662943     5.3511259878    25.1186557090
Cu      6.7598106896     1.0604929423    25.1942355944
Cu      8.0136779135     3.1796604678    25.1681478827
Cu      9.2183702016     5.3146749923    25.2199721313
O       5.9090453498     2.2125628840    29.4962016620
O       5.3135827263     3.4760140870    27.2792482321
O       5.3888603272     3.5938948128    31.9820471416
C       5.4550708189     3.5716707976    29.5976513350
C       5.8836670873     4.2775161596    28.3288238020
C       5.9131012744     4.2691094889    30.8471336683
H       4.3672750962     3.4913181989    29.5751296047
H       6.9884928138     4.3638516350    28.2762913989
H       5.4938659702     5.2950878769    28.2081095073
H       5.5610231856     5.3068702815    30.7910168059
H       7.0110824779     4.3046544822    30.8258164059
H       6.8817606407     2.1873778447    29.5569593365
H       5.6870708631     2.5749822723    27.4079568243
H       5.7135991785     3.9965272240    32.8079392323
86
Step 7 | ATOMIC_POSITIONS (angstrom) | Cartesian Angstrom
Ni      0.0000000000     0.0000000000    10.0000000900
Ni      8.6005476670     2.1280836470    10.0000000900
Ni      9.8291973330     4.2561672950    10.0000000900
Ni      2.4572993330     0.0000000000    10.0000000900
Ni      3.6859490000     2.1280836470    10.0000000900
Ni      4.9145986670     4.2561672950    10.0000000900
Ni      4.9145986670     0.0000000000    10.0000000900
Ni      6.1432483330     2.1280836470    10.0000000900
Ni      7.3718980000     4.2561672950    10.0000000900
Ni      1.6381995390     1.4187224170    12.0063763950
Ni      2.8668492300     3.5468061070    12.0063763950
Ni      4.0954988850     5.6748897330    12.0063763950
Ni      4.0954988480     1.4187224170    12.0063763950
Ni      5.3241485390     3.5468061070    12.0063763950
Ni      6.5527981940     5.6748897330    12.0063763950
Ni      6.5527982300     1.4187224170    12.0063763950
Ni      7.7814479220     3.5468061070    12.0063763950
Ni      9.0100975760     5.6748897330    12.0063763950
Ni      2.0477494240     0.7093612090    14.1682640069
Ni      3.2763990780     2.8374448350    14.1694664342
Ni      4.5050487700     4.9655285250    14.1684443623