86
Step 1 | ATOMIC_POSITIONS (angstrom) | Cartesian Angstrom
Ni      1.2286390390     0.7093535490     9.0128649340
Ni      2.4572760100     2.8374169220     9.0128649340
Ni      3.6859498400     4.9655441370     9.0128649340
Ni      3.6859144660     0.7093535490     9.0128649340
Ni      4.9145514370     2.8374169220     9.0128649340
Ni      6.1432252670     4.9655441370     9.0128649340
Ni      6.1432636120     0.7093535490     9.0128649340
Ni      7.3719005830     2.8374169220     9.0128649340
Ni      8.6005744130     4.9655441370     9.0128649340
Ni      0.0000019230    -0.0000011100    11.0189462060
Ni      1.2286511800     2.1280835430    11.0189462060
Ni      2.4573004370     4.2561681970    11.0189462060
Ni      2.4573019230    -0.0000011100    11.0189462060
Ni      3.6859511800     2.1280835430    11.0189462060
Ni      4.9146004370     4.2561681970    11.0189462060
Ni      4.9146019230    -0.0000011100    11.0189462060
Ni      6.1432511800     2.1280835430    11.0189462060
Ni      7.3719004370     4.2561681970    11.0189462060
Ni      6.1438734720     3.5471661970    12.9811357840
Ni      7.3724754910     5.6753002550    12.9812984850
Ni      8.6011926510     3.5471005460    12.9812984900
Ni      4.9154250810     1.4190473550    12.9815171700
Ni      3.6866443280     3.5473571860    12.9815172510
Ni      9.8297970970     5.6752360910    12.9815758290
Ni      7.3727178060     1.4189936100    12.9817330850
Ni      4.9152433530     5.6754625070    12.9817330970
Ni      2.4581886360     1.4192341220    12.9820006980
Ni      1.2300181510     0.7101493710    14.9469571230
Ni      3.6871547190     0.7105440160    14.9472125230
Ni      2.4589274570     2.8378950180    14.9472126230
Ni      3.6873641450     4.9659340110    14.9472361150
Ni      6.1443087910     0.7103827880    14.9472361760
Ni      4.9159520710     2.8382250840    14.9474526980
Ni      6.1444225000     4.9663508800    14.9474869000
Ni      7.3731982530     2.8380497740    14.9474870240
Ni      8.6015404070     4.9661014020    14.9475110630
Cu      0.0002371770     0.0001345310    17.0095566530
Cu      2.4575439700     0.0002605240    17.0097303500
Cu      1.2289989080     2.1281620840    17.0097304640
Cu      2.4574811020     4.2563400380    17.0097910800
Cu      4.9148412440     0.0000691580    17.0097911200
Cu      3.6862398640     2.1282500140    17.0099390000
Cu      4.9147998590     4.2563702540    17.0100125200
Cu      6.1435260460     2.1281549480    17.0100126890
Cu      7.3720625000     4.2562615990    17.0100868050
Cu      2.4590518367     1.4200408078    19.0940946185
Cu      4.9159801534     5.6757468802    19.0952414895
Cu      7.3733512797     1.4196068671    19.0951474201
Cu      3.6874639526     3.5471115923    19.0943139657
Cu      4.9159039939     1.4200028209    19.0945099777
Cu      7.3732712666     5.6754031612    19.0955732618
Cu      8.6018250639     3.5474987878    19.0950589665
Cu      9.8305421203     5.6756760861    19.0955527072
Cu      6.1447156980     3.5475344896    19.0952285508
Cu      3.6882386686     4.9660968515    21.1872322151
Cu      6.1451168978     0.7110824462    21.1869325800
Cu      1.2309689115     0.7108274801    21.1873227833
Cu      2.4596636337     2.8382898037    21.1880232678
Cu      3.6878235802     0.7115876037    21.1881750628
Cu      8.6030018943     4.9665490076    21.1867973790
Cu      7.3738746309     2.8390562751    21.1873918183
Cu      6.1454389224     4.9661900575    21.1869579158
Cu      4.9158863456     2.8382280853    21.1876332998
Cu      3.6884009269     2.1356375879    23.2292564464
Cu      1.2251474299     2.1286496796    23.2329065280
Cu      2.4566988166    -0.0038486734    23.2334972809
Cu      4.9185395512     4.2619849229    23.2318925953
Cu      6.1494007470     2.1278818535    23.2328324086
Cu      0.0008913692     0.0006228163    23.2357894954
Cu      2.4555369517     4.2624389632    23.2324336080
Cu      4.9188797987    -0.0044513346    23.2333440406
Cu      7.3726827467     4.2570031793    23.2371843993
O       3.6547893222     2.1935908539    25.2725624289
H       4.0039766897     1.2718588829    25.3354504524
H       5.2409396067     2.9228525273    26.3677775772
H       3.7650315197     3.9275246844    26.3645541803
C       4.1374059646     2.9091461644    26.4217702794
O       4.1478792053     0.8386930161    27.6425679748
H       5.1281021131     0.8973091319    27.6505520255
C       3.6702408706     2.1882152287    27.6776132896
H       2.5548490318     2.1040792172    27.6741096373
C       4.1422567644     2.8826203402    28.9398856515
H       3.7983328835     3.9224457672    28.9726486060
H       5.2515523640     2.8706075883    28.9727061600
O       3.6601547437     2.1855301541    30.0901814864
H       4.0043193720     2.6620287251    30.8618733750
86
Step 2 | ATOMIC_POSITIONS (angstrom) | Cartesian Angstrom
Ni      1.2286390390     0.7093535490     9.0128649340
Ni      2.4572760100     2.8374169220     9.0128649340
Ni      3.6859498400     4.9655441370     9.0128649340
Ni      3.6859144660     0.7093535490     9.0128649340
Ni      4.9145514370     2.8374169220     9.0128649340
Ni      6.1432252670     4.9655441370     9.0128649340
Ni      6.1432636120     0.7093535490     9.0128649340
Ni      7.3719005830     2.8374169220     9.0128649340
Ni      8.6005744130     4.9655441370     9.0128649340
Ni      0.0000019230    -0.0000011100    11.0189462060
Ni      1.2286511800     2.1280835430    11.0189462060
Ni      2.4573004370     4.2561681970    11.0189462060
Ni      2.4573019230    -0.0000011100    11.0189462060
Ni      3.6859511800     2.1280835430    11.0189462060
Ni      4.9146004370     4.2561681970    11.0189462060
Ni      4.9146019230    -0.0000011100    11.0189462060
Ni      6.1432511800     2.1280835430    11.0189462060
Ni      7.3719004370     4.2561681970    11.0189462060
Ni      6.1438734720     3.5471661970    12.9811357840
Ni      7.3724754910     5.6753002550    12.9812984850
Ni      8.6011926510     3.5471005460    12.9812984900
Ni      4.9154250810     1.4190473550    12.9815171700
Ni      3.6866443280     3.5473571860    12.9815172510
Ni      9.8297970970     5.6752360910    12.9815758290
Ni      7.3727178060     1.4189936100    12.9817330850
Ni      4.9152433530     5.6754625070    12.9817330970
Ni      2.4581886360     1.4192341220    12.9820006980
Ni      1.2300181510     0.7101493710    14.9469571230
Ni      3.6871547190     0.7105440160    14.9472125230
Ni      2.4589274570     2.8378950180    14.9472126230
Ni      3.6873641450     4.9659340110    14.9472361150
Ni      6.1443087910     0.7103827880    14.9472361760
Ni      4.9159520710     2.8382250840    14.9474526980
Ni      6.1444225000     4.9663508800    14.9474869000
Ni      7.3731982530     2.8380497740    14.9474870240
Ni      8.6015404070     4.9661014020    14.9475110630
Cu      0.0002371770     0.0001345310    17.0095566530
Cu      2.4575439700     0.0002605240    17.0097303500
Cu      1.2289989080     2.1281620840    17.0097304640
Cu      2.4574811020     4.2563400380    17.0097910800
Cu      4.9148412440     0.0000691580    17.0097911200
Cu      3.6862398640     2.1282500140    17.0099390000
Cu      4.9147998590     4.2563702540    17.0100125200
Cu      6.1435260460     2.1281549480    17.0100126890
Cu      7.3720625000     4.2562615990    17.0100868050
Cu      2.4591925730     1.4205728160    19.0935677113
Cu      4.9157863000     5.6759742199    19.0961741628
Cu      7.3734840074     1.4195150438    19.0959127036
Cu      3.6873466083     3.5462216197    19.0936030446
Cu      4.9154889383     1.4205245005    19.0941200535
Cu      7.3732377694     5.6752796265    19.0966234920
Cu      8.6018981129     3.5471697575    19.0952391865
Cu      9.8307790296     5.6758252628    19.0965310586
Cu      6.1446701222     3.5473204548    19.0954490381
Cu      3.6880914196     4.9652900946    21.1862605374
Cu      6.1446432667     0.7113948323    21.1855714857
Cu      1.2313713464     0.7112088240    21.1866999224
Cu      2.4602414773     2.8380698954    21.1884004662
Cu      3.6878879123     0.7132658897    21.1890827312
Cu      8.6026734826     4.9658186885    21.1848909635
Cu      7.3738953480     2.8395603479    21.1864205411
Cu      6.1456354819     4.9656500517    21.1851961903
Cu      4.9154556378     2.8380000189    21.1869987099
Cu      3.6901682983     2.1464586077    23.2227336980
Cu      1.2176772521     2.1281920187    23.2307723879
Cu      2.4538845510    -0.0106145088    23.2323330000
Cu      4.9231689004     4.2700844083    23.2280561397
Cu      6.1569407368     2.1266743882    23.2306076790
Cu     -0.0000143893     0.0002565283    23.2382412684
Cu      2.4511171226     4.2711002605    23.2291224239
Cu      4.9232904003    -0.0115465616    23.2316330765
Cu      7.3727214285     4.2575936152    23.2418871993
O       3.6396141800     2.1786242861    25.2807714301
H       4.0003863007     1.2620395973    25.3445236745
H       5.2459351832     2.9298762749    26.3739088055
H       3.7610116405     3.9366192361    26.3573577413
C       4.1428715002     2.9139336660    26.4257313620
O       4.1511583734     0.8256685499    27.6353249026
H       5.1233354335     0.8924044460    27.6527510689
C       3.6745813783     2.1848137476    27.6854911830
H       2.5661250341     2.1054897916    27.6745804353
C       4.1448396493     2.8847385639    28.9513875735
H       3.7980264334     3.9351128835    28.9638733042
H       5.2566485612     2.8765269774    28.9611347212
O       3.6507992904     2.1790940200    30.0949933539
H       4.0016537399     2.6589251241    30.8640535648
86
Step 3 | ATOMIC_POSITIONS (angstrom) | Cartesian Angstrom
Ni      1.2286390390     0.7093535490     9.0128649340
Ni      2.4572760100     2.8374169220     9.0128649340
Ni      3.6859498400     4.9655441370     9.0128649340
Ni      3.6859144660     0.7093535490     9.0128649340
Ni      4.9145514370     2.8374169220     9.0128649340
Ni      6.1432252670     4.9655441370     9.0128649340
Ni      6.1432636120     0.7093535490     9.0128649340
Ni      7.3719005830     2.8374169220     9.0128649340
Ni      8.6005744130     4.9655441370     9.0128649340
Ni      0.0000019230    -0.0000011100    11.0189462060
Ni      1.2286511800     2.1280835430    11.0189462060
Ni      2.4573004370     4.2561681970    11.0189462060
Ni      2.4573019230    -0.0000011100    11.0189462060
Ni      3.6859511800     2.1280835430    11.0189462060
Ni      4.9146004370     4.2561681970    11.0189462060
Ni      4.9146019230    -0.0000011100    11.0189462060
Ni      6.1432511800     2.1280835430    11.0189462060
Ni      7.3719004370     4.2561681970    11.0189462060
Ni      6.1438734720     3.5471661970    12.9811357840
Ni      7.3724754910     5.6753002550    12.9812984850
Ni      8.6011926510     3.5471005460    12.9812984900
Ni      4.9154250810     1.4190473550    12.9815171700
Ni      3.6866443280     3.5473571860    12.9815172510
Ni      9.8297970970     5.6752360910    12.9815758290
Ni      7.3727178060     1.4189936100    12.9817330850
Ni      4.9152433530     5.6754625070    12.9817330970
Ni      2.4581886360     1.4192341220    12.9820006980
Ni      1.2300181510     0.7101493710    14.9469571230
Ni      3.6871547190     0.7105440160    14.9472125230
Ni      2.4589274570     2.8378950180    14.9472126230
Ni      3.6873641450     4.9659340110    14.9472361150
Ni      6.1443087910     0.7103827880    14.9472361760
Ni      4.9159520710     2.8382250840    14.9474526980
Ni      6.1444225000     4.9663508800    14.9474869000
Ni      7.3731982530     2.8380497740    14.9474870240
Ni      8.6015404070     4.9661014020    14.9475110630
Cu      0.0002371770     0.0001345310    17.0095566530
Cu      2.4575439700     0.0002605240    17.0097303500
Cu      1.2289989080     2.1281620840    17.0097304640
Cu      2.4574811020     4.2563400380    17.0097910800
Cu      4.9148412440     0.0000691580    17.0097911200
Cu      3.6862398640     2.1282500140    17.0099390000
Cu      4.9147998590     4.2563702540    17.0100125200
Cu      6.1435260460     2.1281549480    17.0100126890
Cu      7.3720625000     4.2562615990    17.0100868050
Cu      2.4593358973     1.4209622393    19.0929291171
Cu      4.9156172391     5.6761564416    19.0969697573
Cu      7.3735956391     1.4194480772    19.0965268877
Cu      3.6871997900     3.5454852829    19.0926837431
Cu      4.9150680850     1.4208839802    19.0935392392
Cu      7.3732043333     5.6753144951    19.0975518606
Cu      8.6020050402     3.5468492845    19.0952560048
Cu      9.8309734564     5.6759350455    19.0973291188
Cu      6.1446052826     3.5471163951    19.0954880201
Cu      3.6879379531     4.9647275121    21.1848676701
Cu      6.1442197628     0.7115615692    21.1840347665
Cu      1.2317589265     0.7114405900    21.1861371406
Cu      2.4603584686     2.8380267600    21.1885744107
Cu      3.6879333646     0.7146428157    21.1904049254
Cu      8.6018634501     4.9650874977    21.1823183984
Cu      7.3739344839     2.8403724381    21.1849829941
Cu      6.1462865527     4.9651945533    21.1828047341
Cu      4.9155146253     2.8379745606    21.1860163746
Cu      3.6921484510     2.1572071421    23.2187869098
Cu      1.2117552263     2.1277768630    23.2283336382
Cu      2.4522803307    -0.0153134279    23.2307621389
Cu      4.9275694801     4.2776589197    23.2239064733
Cu      6.1630884450     2.1255961987    23.2281769483
Cu     -0.0006830505     0.0000088033    23.2409797442
Cu      2.4470982573     4.2790479334    23.2255165910
Cu      4.9264514837    -0.0165330913    23.2295515456
Cu      7.3727704216     4.2580440066    23.2472719655
O       3.6280365358     2.1646911667    25.2961785761
H       3.9944897981     1.2527829646    25.3564414472
H       5.2500876290     2.9384623845    26.3784819195
H       3.7578856298     3.9418074568    26.3493462682
C       4.1433271672     2.9130139064    26.4270530335
O       4.1483079132     0.8215014731    27.6287356253
H       5.1256198585     0.8838375366    27.6556132451
C       3.6777296485     2.1816631240    27.6900823283
H       2.5793801834     2.1065895534    27.6760643952
C       4.1472524612     2.8855402518    28.9572259310
H       3.7996592746     3.9411334502    28.9554816147
H       5.2586888107     2.8836542468    28.9524668598
O       3.6463846933     2.1806781233    30.0988232943
H       3.9964321032     2.6523992071    30.8680685602
86
Step 4 | ATOMIC_POSITIONS (angstrom) | Cartesian Angstrom
Ni      1.2286390390     0.7093535490     9.0128649340
Ni      2.4572760100     2.8374169220     9.0128649340
Ni      3.6859498400     4.9655441370     9.0128649340
Ni      3.6859144660     0.7093535490     9.0128649340
Ni      4.9145514370     2.8374169220     9.0128649340
Ni      6.1432252670     4.9655441370     9.0128649340
Ni      6.1432636120     0.7093535490     9.0128649340
Ni      7.3719005830     2.8374169220     9.0128649340
Ni      8.6005744130     4.9655441370     9.0128649340
Ni      0.0000019230    -0.0000011100    11.0189462060
Ni      1.2286511800     2.1280835430    11.0189462060
Ni      2.4573004370     4.2561681970    11.0189462060
Ni      2.4573019230    -0.0000011100    11.0189462060
Ni      3.6859511800     2.1280835430    11.0189462060
Ni      4.9146004370     4.2561681970    11.0189462060
Ni      4.9146019230    -0.0000011100    11.0189462060
Ni      6.1432511800     2.1280835430    11.0189462060
Ni      7.3719004370     4.2561681970    11.0189462060
Ni      6.1438734720     3.5471661970    12.9811357840
Ni      7.3724754910     5.6753002550    12.9812984850
Ni      8.6011926510     3.5471005460    12.9812984900
Ni      4.9154250810     1.4190473550    12.9815171700
Ni      3.6866443280     3.5473571860    12.9815172510
Ni      9.8297970970     5.6752360910    12.9815758290
Ni      7.3727178060     1.4189936100    12.9817330850
Ni      4.9152433530     5.6754625070    12.9817330970
Ni      2.4581886360     1.4192341220    12.9820006980
Ni      1.2300181510     0.7101493710    14.9469571230
Ni      3.6871547190     0.7105440160    14.9472125230
Ni      2.4589274570     2.8378950180    14.9472126230
Ni      3.6873641450     4.9659340110    14.9472361150
Ni      6.1443087910     0.7103827880    14.9472361760
Ni      4.9159520710     2.8382250840    14.9474526980
Ni      6.1444225000     4.9663508800    14.9474869000
Ni      7.3731982530     2.8380497740    14.9474870240
Ni      8.6015404070     4.9661014020    14.9475110630
Cu      0.0002371770     0.0001345310    17.0095566530
Cu      2.4575439700     0.0002605240    17.0097303500
Cu      1.2289989080     2.1281620840    17.0097304640
Cu      2.4574811020     4.2563400380    17.0097910800
Cu      4.9148412440     0.0000691580    17.0097911200
Cu      3.6862398640     2.1282500140    17.0099390000
Cu      4.9147998590     4.2563702540    17.0100125200
Cu      6.1435260460     2.1281549480    17.0100126890
Cu      7.3720625000     4.2562615990    17.0100868050
Cu      2.4594700943     1.4211491774    19.0922862109
Cu      4.9154922377     5.6762823407    19.0974940966
Cu      7.3736770284     1.4194077935    19.0968979768
Cu      3.6870300427     3.5449826453    19.0916288541
Cu      4.9146693721     1.4210217569    19.0928330288
Cu      7.3731710906     5.6755598009    19.0981777605
Cu      8.6021455602     3.5465596161    19.0950111016
Cu      9.8310960015     5.6759945094    19.0977903445
Cu      6.1445178540     3.5469382453    19.0952390391
Cu      3.6877877922     4.9645098964    21.1831299848
Cu      6.1439381911     0.7115304599    21.1824618763
Cu      1.2320488194     0.7114687200    21.1856953251
Cu      2.4600634849     2.8381688100    21.1885231816
Cu      3.6879612123     0.7157444489    21.1920799421
Cu      8.6006025520     4.9644768002    21.1792913832
Cu      7.3739887844     2.8414117257    21.1832043213
Cu      6.1473803743     4.9649266924    21.1799650956
Cu      4.9160179510     2.8381698871    21.1847542002
Cu      3.6940748379     2.1670448990    23.2187487854
Cu      1.2082590292     2.1275189515    23.2257083615
Cu      2.4522492664    -0.0170761122    23.2288199762
Cu      4.9312866943     4.2839656882    23.2196690181
Cu      6.1670325646     2.1248403063    23.2256455766
Cu     -0.0009873384    -0.0000134061    23.2437991622
Cu      2.4439714515     4.2854165710    23.2218032830
Cu      4.9278634981    -0.0185059116    23.2271582705
Cu      7.3728467573     4.2583304916    23.2529818466
O       3.6180682514     2.1525054376    25.3120876715
H       3.9871663668     1.2419772452    25.3718016551
H       5.2504416517     2.9477098715    26.3813840228
H       3.7557967846     3.9406032641    26.3408763366
C       4.1428425139     2.9119337152    26.4282909581
O       4.1529434999     0.8218332970    27.6234225970
H       5.1227301700     0.8714262888    27.6589447257
C       3.6835753659     2.1821491440    27.6931308118
H       2.5889605203     2.1072674186    27.6785769524
C       4.1492735354     2.8864657996    28.9578472190
H       3.8027561714     3.9414308935    28.9473696157
H       5.2590883049     2.8914298743    28.9468892610
O       3.6434641438     2.1848089093    30.0962956966
H       3.9917292166     2.6466913422    30.8785568606
86
Step 5 | ATOMIC_POSITIONS (angstrom) | Cartesian Angstrom
Ni      1.2286390390     0.7093535490     9.0128649340
Ni      2.4572760100     2.8374169220     9.0128649340
Ni      3.6859498400     4.9655441370     9.0128649340
Ni      3.6859144660     0.7093535490     9.0128649340
Ni      4.9145514370     2.8374169220     9.0128649340
Ni      6.1432252670     4.9655441370     9.0128649340
Ni      6.1432636120     0.7093535490     9.0128649340
Ni      7.3719005830     2.8374169220     9.0128649340
Ni      8.6005744130     4.9655441370     9.0128649340
Ni      0.0000019230    -0.0000011100    11.0189462060
Ni      1.2286511800     2.1280835430    11.0189462060
Ni      2.4573004370     4.2561681970    11.0189462060
Ni      2.4573019230    -0.0000011100    11.0189462060
Ni      3.6859511800     2.1280835430    11.0189462060
Ni      4.9146004370     4.2561681970    11.0189462060
Ni      4.9146019230    -0.0000011100    11.0189462060
Ni      6.1432511800     2.1280835430    11.0189462060
Ni      7.3719004370     4.2561681970    11.0189462060
Ni      6.1438734720     3.5471661970    12.9811357840
Ni      7.3724754910     5.6753002550    12.9812984850
Ni      8.6011926510     3.5471005460    12.9812984900
Ni      4.9154250810     1.4190473550    12.9815171700
Ni      3.6866443280     3.5473571860    12.9815172510
Ni      9.8297970970     5.6752360910    12.9815758290
Ni      7.3727178060     1.4189936100    12.9817330850
Ni      4.9152433530     5.6754625070    12.9817330970
Ni      2.4581886360     1.4192341220    12.9820006980
Ni      1.2300181510     0.7101493710    14.9469571230
Ni      3.6871547190     0.7105440160    14.9472125230
Ni      2.4589274570     2.8378950180    14.9472126230
Ni      3.6873641450     4.9659340110    14.9472361150
Ni      6.1443087910     0.7103827880    14.9472361760
Ni      4.9159520710     2.8382250840    14.9474526980
Ni      6.1444225000     4.9663508800    14.9474869000
Ni      7.3731982530     2.8380497740    14.9474870240
Ni      8.6015404070     4.9661014020    14.9475110630
Cu      0.0002371770     0.0001345310    17.0095566530
Cu      2.4575439700     0.0002605240    17.0097303500
Cu      1.2289989080     2.1281620840    17.0097304640
Cu      2.4574811020     4.2563400380    17.0097910800
Cu      4.9148412440     0.0000691580    17.0097911200
Cu      3.6862398640     2.1282500140    17.0099390000
Cu      4.9147998590     4.2563702540    17.0100125200
Cu      6.1435260460     2.1281549480    17.0100126890
Cu      7.3720625000     4.2562615990    17.0100868050
Cu      2.4596034383     1.4211011313    19.0916600269
Cu      4.9154128514     5.6763636699    19.0976301408
Cu      7.3737309077     1.4193862140    19.0969459965
Cu      3.6868209941     3.5447128835    19.0903321903
Cu      4.9142603222     1.4209017811    19.0919529343
Cu      7.3731323771     5.6761188500    19.0983302385
Cu      8.6023368362     3.5462792037    19.0942998828
Cu      9.8311304943     5.6760043813    19.0977542055
Cu      6.1443927340     3.5467758140    19.0944802059
Cu      3.6876265539     4.9647293450    21.1808131286
Cu      6.1438746134     0.7112392296    21.1807330063
Cu      1.2321769432     0.7112390047    21.1853356932
Cu      2.4594592986     2.8385123440    21.1882276423
Cu      3.6879848944     0.7169108030    21.1942821330
Cu      8.5987462504     4.9640628476    21.1756065390
Cu      7.3740630199     2.8427339879    21.1809664916
Cu      6.1490666099     4.9649518822    21.1764535888
Cu      4.9169085205     2.8386202765    21.1831136309
Cu      3.6960408151     2.1765926728    23.2240881645
Cu      1.2075775301     2.1275700352    23.2225591407
Cu      2.4542064621    -0.0151892029    23.2261800094
Cu      4.9344650778     4.2892994917    23.2148354757
Cu      6.1685525737     2.1245711752    23.2226710478
Cu     -0.0008300848     0.0003515851    23.2469075782
Cu      2.4417427840     4.2903985496    23.2175157499
Cu      4.9272106198    -0.0167437240    23.2241022793
Cu      7.3730017477     4.2585336445    23.2595315003
O       3.6090379220     2.1384274246    25.3277391772
H       3.9762699538     1.2293337353    25.3939350126
H       5.2466629396     2.9586230385    26.3820837614
H       3.7530447563     3.9342156364    26.3308042034
C       4.1431607522     2.9096320224    26.4295652384
O       4.1533102833     0.8254309013    27.6186518173
H       5.1265212866     0.8542587807    27.6639774512
C       3.6901182872     2.1849464627    27.6943457934
H       2.5973909848     2.1074082975    27.6827232620
C       4.1541936176     2.8882501978    28.9546583056
H       3.8067742870     3.9383159194    28.9379749760
H       5.2587953887     2.9009514013    28.9442836965
O       3.6436796619     2.1946371923    30.0958477714
H       3.9838843028     2.6370946654    30.8889555374
86
Step 6 | ATOMIC_POSITIONS (angstrom) | Cartesian Angstrom
Ni      1.2286390390     0.7093535490     9.0128649340
Ni      2.4572760100     2.8374169220     9.0128649340
Ni      3.6859498400     4.9655441370     9.0128649340
Ni      3.6859144660     0.7093535490     9.0128649340
Ni      4.9145514370     2.8374169220     9.0128649340
Ni      6.1432252670     4.9655441370     9.0128649340
Ni      6.1432636120     0.7093535490     9.0128649340
Ni      7.3719005830     2.8374169220     9.0128649340
Ni      8.6005744130     4.9655441370     9.0128649340
Ni      0.0000019230    -0.0000011100    11.0189462060
Ni      1.2286511800     2.1280835430    11.0189462060
Ni      2.4573004370     4.2561681970    11.0189462060
Ni      2.4573019230    -0.0000011100    11.0189462060
Ni      3.6859511800     2.1280835430    11.0189462060
Ni      4.9146004370     4.2561681970    11.0189462060
Ni      4.9146019230    -0.0000011100    11.0189462060
Ni      6.1432511800     2.1280835430    11.0189462060
Ni      7.3719004370     4.2561681970    11.0189462060
Ni      6.1438734720     3.5471661970    12.9811357840
Ni      7.3724754910     5.6753002550    12.9812984850
Ni      8.6011926510     3.5471005460    12.9812984900
Ni      4.9154250810     1.4190473550    12.9815171700
Ni      3.6866443280     3.5473571860    12.9815172510
Ni      9.8297970970     5.6752360910    12.9815758290
Ni      7.3727178060     1.4189936100    12.9817330850
Ni      4.9152433530     5.6754625070    12.9817330970
Ni      2.4581886360     1.4192341220    12.9820006980
Ni      1.2300181510     0.7101493710    14.9469571230
Ni      3.6871547190     0.7105440160    14.9472125230
Ni      2.4589274570     2.8378950180    14.9472126230
Ni      3.6873641450     4.9659340110    14.9472361150
Ni      6.1443087910     0.7103827880    14.9472361760
Ni      4.9159520710     2.8382250840    14.9474526980
Ni      6.1444225000     4.9663508800    14.9474869000
Ni      7.3731982530     2.8380497740    14.9474870240
Ni      8.6015404070     4.9661014020    14.9475110630
Cu      0.0002371770     0.0001345310    17.0095566530
Cu      2.4575439700     0.0002605240    17.0097303500
Cu      1.2289989080     2.1281620840    17.0097304640
Cu      2.4574811020     4.2563400380    17.0097910800
Cu      4.9148412440     0.0000691580    17.0097911200
Cu      3.6862398640     2.1282500140    17.0099390000
Cu      4.9147998590     4.2563702540    17.0100125200
Cu      6.1435260460     2.1281549480    17.0100126890
Cu      7.3720625000     4.2562615990    17.0100868050
Cu      2.4596801997     1.4207898416    19.0914047336
Cu      4.9154252198     5.6763770520    19.0970806306
Cu      7.3737324895     1.4193808838    19.0964924883
Cu      3.6866519730     3.5448132937    19.0892516765
Cu      4.9139960071     1.4205284639    19.0912564618
Cu      7.3730980223     5.6768875625    19.0976126135
Cu      8.6025056310     3.5461234535    19.0931279096
Cu      9.8310250375     5.6759589558    19.0969330857
Cu      6.1442709780     3.5467034851    19.0932045844
Cu      3.6875142142     4.9654553568    21.1786215118
Cu      6.1441940063     0.7107421504    21.1794792362
Cu      1.2319691863     0.7107863171    21.1851278067
Cu      2.4590738967     2.8389204230    21.1878295081
Cu      3.6880215600     0.7182000097    21.1961534434
Cu      8.5969785294     4.9642170748    21.1727679762
Cu      7.3741330112     2.8437823907    21.1791764073
Cu      6.1507649949     4.9654696801    21.1736412537
Cu      4.9175973672     2.8391622887    21.1817994332
Cu      3.6972614779     2.1820420578    23.2348414111
Cu      1.2106279370     2.1282412076    23.2198487614
Cu      2.4578351200    -0.0094072811    23.2235414594
Cu      4.9358272859     4.2916516434    23.2109153336
Cu      6.1666316411     2.1252915263    23.2201094094
Cu     -0.0001287376     0.0012542458    23.2490969573
Cu      2.4414871459     4.2920300984    23.2139637923
Cu      4.9243776776    -0.0109493829    23.2212305727
Cu      7.3732567830     4.2587565031    23.2645280295
O       3.6045314733     2.1286199229    25.3361139448
H       3.9646362436     1.2161780918    25.4182631917
H       5.2429349799     2.9672835784    26.3788987720
H       3.7491370321     3.9250237899    26.3220093140
C       4.1399350325     2.9066311216    26.4288788942
O       4.1559088449     0.8287762411    27.6166100345
H       5.1299832186     0.8372224705    27.6695317701
C       3.6956899951     2.1882727786    27.6944269408
H       2.6012983819     2.1074966181    27.6876284173
C       4.1585581708     2.8908228398    28.9524353903
H       3.8099531992     3.9351855159    28.9295059262
H       5.2619486566     2.9092464570    28.9462442229
O       3.6441967988     2.2028187259    30.0915104953
H       3.9779969150     2.6302387826    30.8996668023
86
Step 7 | ATOMIC_POSITIONS (angstrom) | Cartesian Angstrom
Ni      1.2286390390     0.7093535490     9.0128649340
Ni      2.4572760100     2.8374169220     9.0128649340
Ni      3.6859498400     4.9655441370     9.0128649340
Ni      3.6859144660     0.7093535490     9.0128649340
Ni      4.9145514370     2.8374169220     9.0128649340
Ni      6.1432252670     4.9655441370     9.0128649340
Ni      6.1432636120     0.7093535490     9.0128649340
Ni      7.3719005830     2.8374169220     9.0128649340
Ni      8.6005744130     4.9655441370     9.0128649340
Ni      0.0000019230    -0.0000011100    11.0189462060
Ni      1.2286511800     2.1280835430    11.0189462060
Ni      2.4573004370     4.2561681970    11.0189462060
Ni      2.4573019230    -0.0000011100    11.0189462060
Ni      3.6859511800     2.1280835430    11.0189462060
Ni      4.9146004370     4.2561681970    11.0189462060
Ni      4.9146019230    -0.0000011100    11.0189462060
Ni      6.1432511800     2.1280835430    11.0189462060
Ni      7.3719004370     4.2561681970    11.0189462060
Ni      6.1438734720     3.5471661970    12.9811357840
Ni      7.3724754910     5.6753002550    12.9812984850
Ni      8.6011926510     3.5471005460    12.9812984900