86
Step 1 | ATOMIC_POSITIONS (angstrom) | Cartesian Angstrom
Ni      0.0000000000     0.0000000000    10.0000000900
Ni      8.6005476670     2.1280836470    10.0000000900
Ni      9.8291973330     4.2561672950    10.0000000900
Ni      2.4572993330     0.0000000000    10.0000000900
Ni      3.6859490000     2.1280836470    10.0000000900
Ni      4.9145986670     4.2561672950    10.0000000900
Ni      4.9145986670     0.0000000000    10.0000000900
Ni      6.1432483330     2.1280836470    10.0000000900
Ni      7.3718980000     4.2561672950    10.0000000900
Ni      1.6381995390     1.4187224170    12.0063763950
Ni      2.8668492300     3.5468061070    12.0063763950
Ni      4.0954988850     5.6748897330    12.0063763950
Ni      4.0954988480     1.4187224170    12.0063763950
Ni      5.3241485390     3.5468061070    12.0063763950
Ni      6.5527981940     5.6748897330    12.0063763950
Ni      6.5527982300     1.4187224170    12.0063763950
Ni      7.7814479220     3.5468061070    12.0063763950
Ni      9.0100975760     5.6748897330    12.0063763950
Ni      2.0477494240     0.7093612090    14.1640614080
Ni      3.2763990780     2.8374448350    14.1640729510
Ni      4.5050487700     4.9655285250    14.1640397250
Ni      4.5050488060     0.7093612090    14.1640710440
Ni      5.7336984610     2.8374448350    14.1640423650
Ni      6.9623481520     4.9655285250    14.1640482520
Ni      6.9623481150     0.7093612090    14.1640292020
Ni      8.1909977700     2.8374448350    14.1640591990
Ni      9.4196474610     4.9655285250    14.1640542750
Ni      0.0000000000     0.0000000000    16.3281461600
Ni      8.6005476670     2.1280836470    16.3282017120
Ni      9.8291973330     4.2561672950    16.3281943160
Ni      2.4572993330     0.0000000000    16.3281936330
Ni      3.6859490000     2.1280836470    16.3282178260
Ni      4.9145986670     4.2561672950    16.3281642570
Ni      4.9145986670     0.0000000000    16.3282096040
Ni      6.1432483330     2.1280836470    16.3281694310
Ni      7.3718980000     4.2561672950    16.3281777140
Cu      1.6381995390     1.4187224170    18.5439570380
Cu      2.8668492300     3.5468061070    18.5439633170
Cu      4.0954988850     5.6748897330    18.5439058500
Cu      4.0954988480     1.4187224170    18.5439876690
Cu      5.3241485390     3.5468061070    18.5439225600
Cu      6.5527981940     5.6748897330    18.5439394360
Cu      6.5527982300     1.4187224170    18.5439267690
Cu      7.7814479220     3.5468061070    18.5439293780
Cu      9.0100975760     5.6748897330    18.5439799570
Cu      2.0477494240     0.7093612090    20.7902126970
Cu      3.2763990780     2.8374448350    20.7902464750
Cu      4.5050487700     4.9655285250    20.7901894570
Cu      4.5050488060     0.7093612090    20.7902646290
Cu      5.7336984610     2.8374448350    20.7902077890
Cu      6.9623481520     4.9655285250    20.7902013200
Cu      6.9648115003     0.7093612090    20.7901985810
Cu      8.1909977700     2.8374448350    20.7901995150
Cu      9.4196474610     4.9655285250    20.7902560580
Cu      0.0033166650    -0.0059431710    23.0257949742
Cu      8.6033588281     2.1224486296    23.0260871374
Cu      9.8328643558     4.2508587822    23.0268408708
Cu      2.4601700557    -0.0058989477    23.0267931829
Cu      3.6896203481     2.1229985096    23.0279109840
Cu      4.9182043112     4.2498042939    23.0283001706
Cu      4.9180610662    -0.0054770724    23.0259504995
Cu      6.1455627254     2.1240029103    23.0292792934
Cu      7.3746058670     4.2504538681    23.0277141414
Cu      1.8391151516     1.0698912014    25.1888386277
Cu      3.0625633735     3.1978361186    25.1844858518
Cu      4.2933229315     5.3324350062    25.1829204695
Cu      4.2948210054     1.0653604977    25.1851163559
Cu      5.5271381310     3.2041237076    25.1504314295
Cu      6.7574944149     5.3318331589    25.1823232000
Cu      6.7565381961     1.0655665080    25.1855206748
Cu      7.9879152704     3.1975673635    25.1848891245
Cu      9.2111985469     5.3264053555    25.1888579990
O       5.9333641994     1.9993137730    29.4559215558
O       5.4398067201     3.3573137859    27.1168018422
O       5.4451265855     3.3461116359    31.9037431103
C       5.4547906534     3.3491395859    29.4919029995
C       5.9222348298     4.0692365726    28.2388812651
C       5.9275217379     4.0428122132    30.7536799673
H       4.3403207083     3.2647670878    29.4877384239
H       7.0259231594     4.0832763880    28.1808524416
H       5.5496254163     5.0886888162    28.1779192686
H       5.5833531155     5.0832395017    30.7862002110
H       7.0362150453     4.0314227191    30.7864517585
H       6.9126970629     2.0578269809    29.4645639499
H       5.7895823822     2.4290128407    27.1538396516
H       5.7894389121     3.8227715533    32.6758665733
86
Step 2 | ATOMIC_POSITIONS (angstrom) | Cartesian Angstrom
Ni      0.0000000000     0.0000000000    10.0000000900
Ni      8.6005476670     2.1280836470    10.0000000900
Ni      9.8291973330     4.2561672950    10.0000000900
Ni      2.4572993330     0.0000000000    10.0000000900
Ni      3.6859490000     2.1280836470    10.0000000900
Ni      4.9145986670     4.2561672950    10.0000000900
Ni      4.9145986670     0.0000000000    10.0000000900
Ni      6.1432483330     2.1280836470    10.0000000900
Ni      7.3718980000     4.2561672950    10.0000000900
Ni      1.6381995390     1.4187224170    12.0063763950
Ni      2.8668492300     3.5468061070    12.0063763950
Ni      4.0954988850     5.6748897330    12.0063763950
Ni      4.0954988480     1.4187224170    12.0063763950
Ni      5.3241485390     3.5468061070    12.0063763950
Ni      6.5527981940     5.6748897330    12.0063763950
Ni      6.5527982300     1.4187224170    12.0063763950
Ni      7.7814479220     3.5468061070    12.0063763950
Ni      9.0100975760     5.6748897330    12.0063763950
Ni      2.0477494240     0.7093612090    14.1640614080
Ni      3.2763990780     2.8374448350    14.1640729510
Ni      4.5050487700     4.9655285250    14.1640397250
Ni      4.5050488060     0.7093612090    14.1640710440
Ni      5.7336984610     2.8374448350    14.1640423650
Ni      6.9623481520     4.9655285250    14.1640482520
Ni      6.9623481150     0.7093612090    14.1640292020
Ni      8.1909977700     2.8374448350    14.1640591990
Ni      9.4196474610     4.9655285250    14.1640542750
Ni      0.0000000000     0.0000000000    16.3281461600
Ni      8.6005476670     2.1280836470    16.3282017120
Ni      9.8291973330     4.2561672950    16.3281943160
Ni      2.4572993330     0.0000000000    16.3281936330
Ni      3.6859490000     2.1280836470    16.3282178260
Ni      4.9145986670     4.2561672950    16.3281642570
Ni      4.9145986670     0.0000000000    16.3282096040
Ni      6.1432483330     2.1280836470    16.3281694310
Ni      7.3718980000     4.2561672950    16.3281777140
Cu      1.6381995390     1.4187224170    18.5439570380
Cu      2.8668492300     3.5468061070    18.5439633170
Cu      4.0954988850     5.6748897330    18.5439058500
Cu      4.0954988480     1.4187224170    18.5439876690
Cu      5.3241485390     3.5468061070    18.5439225600
Cu      6.5527981940     5.6748897330    18.5439394360
Cu      6.5527982300     1.4187224170    18.5439267690
Cu      7.7814479220     3.5468061070    18.5439293780
Cu      9.0100975760     5.6748897330    18.5439799570
Cu      2.0477494240     0.7093612090    20.7902126970
Cu      3.2763990780     2.8374448350    20.7902464750
Cu      4.5050487700     4.9655285250    20.7901894570
Cu      4.5050488060     0.7093612090    20.7902646290
Cu      5.7336984610     2.8374448350    20.7902077890
Cu      6.9623481520     4.9655285250    20.7902013200
Cu      6.9648115003     0.7093612090    20.7901985810
Cu      8.1909977700     2.8374448350    20.7901995150
Cu      9.4196474610     4.9655285250    20.7902560580
Cu      0.0114995891    -0.0205470751    23.0216494335
Cu      8.6107100870     2.1080937539    23.0233568572
Cu      9.8417369405     4.2376310161    23.0257533135
Cu      2.4673319685    -0.0201720766    23.0254860393
Cu      3.6985512977     2.1100303858    23.0295301465
Cu      4.9260703025     4.2358812352    23.0278932628
Cu      4.9267700174    -0.0194326095    23.0228012067
Cu      6.1525464024     2.1116876485    23.0317636760
Cu      7.3816581991     4.2361425922    23.0288660182
Cu      1.8386228794     1.0691307655    25.1929551907
Cu      3.0517192919     3.1965621590    25.1784219918
Cu      4.2864430860     5.3447280359    25.1732441374
Cu      4.2915223047     1.0559512734    25.1803526874
Cu      5.5312215067     3.2171301690    25.0831422831
Cu      6.7651181032     5.3431289982    25.1713055821
Cu      6.7612590811     1.0567415195    25.1821399195
Cu      7.9985850800     3.1958415183    25.1799226376
Cu      9.2110240200     5.3262748168    25.1928826006
O       5.9383532388     1.9819707827    29.4446866394
O       5.4132070477     3.3283649867    27.1627693544
O       5.4326899257     3.3378917334    31.9110565883
C       5.4607258272     3.3466758176    29.5101572071
C       5.9348622243     4.0793495159    28.2621097064
C       5.9312944771     4.0443249238    30.7699466623
H       4.3572098817     3.2669636184    29.4878870158
H       7.0334956889     4.0936266691    28.1898806212
H       5.5437274582     5.1022837370    28.1688320652
H       5.5831052596     5.1004055802    30.7738797821
H       7.0424451537     4.0400214458    30.7707434663
H       6.9060505620     2.0509127960    29.4679914980
H       5.7841814295     2.4159178891    27.1779013579
H       5.7855942535     3.8182126588    32.6789610158
86
Step 3 | ATOMIC_POSITIONS (angstrom) | Cartesian Angstrom
Ni      0.0000000000     0.0000000000    10.0000000900
Ni      8.6005476670     2.1280836470    10.0000000900
Ni      9.8291973330     4.2561672950    10.0000000900
Ni      2.4572993330     0.0000000000    10.0000000900
Ni      3.6859490000     2.1280836470    10.0000000900
Ni      4.9145986670     4.2561672950    10.0000000900
Ni      4.9145986670     0.0000000000    10.0000000900
Ni      6.1432483330     2.1280836470    10.0000000900
Ni      7.3718980000     4.2561672950    10.0000000900
Ni      1.6381995390     1.4187224170    12.0063763950
Ni      2.8668492300     3.5468061070    12.0063763950
Ni      4.0954988850     5.6748897330    12.0063763950
Ni      4.0954988480     1.4187224170    12.0063763950
Ni      5.3241485390     3.5468061070    12.0063763950
Ni      6.5527981940     5.6748897330    12.0063763950
Ni      6.5527982300     1.4187224170    12.0063763950
Ni      7.7814479220     3.5468061070    12.0063763950
Ni      9.0100975760     5.6748897330    12.0063763950
Ni      2.0477494240     0.7093612090    14.1640614080
Ni      3.2763990780     2.8374448350    14.1640729510
Ni      4.5050487700     4.9655285250    14.1640397250
Ni      4.5050488060     0.7093612090    14.1640710440
Ni      5.7336984610     2.8374448350    14.1640423650
Ni      6.9623481520     4.9655285250    14.1640482520
Ni      6.9623481150     0.7093612090    14.1640292020
Ni      8.1909977700     2.8374448350    14.1640591990
Ni      9.4196474610     4.9655285250    14.1640542750
Ni      0.0000000000     0.0000000000    16.3281461600
Ni      8.6005476670     2.1280836470    16.3282017120
Ni      9.8291973330     4.2561672950    16.3281943160
Ni      2.4572993330     0.0000000000    16.3281936330
Ni      3.6859490000     2.1280836470    16.3282178260
Ni      4.9145986670     4.2561672950    16.3281642570
Ni      4.9145986670     0.0000000000    16.3282096040
Ni      6.1432483330     2.1280836470    16.3281694310
Ni      7.3718980000     4.2561672950    16.3281777140
Cu      1.6381995390     1.4187224170    18.5439570380
Cu      2.8668492300     3.5468061070    18.5439633170
Cu      4.0954988850     5.6748897330    18.5439058500
Cu      4.0954988480     1.4187224170    18.5439876690
Cu      5.3241485390     3.5468061070    18.5439225600
Cu      6.5527981940     5.6748897330    18.5439394360
Cu      6.5527982300     1.4187224170    18.5439267690
Cu      7.7814479220     3.5468061070    18.5439293780
Cu      9.0100975760     5.6748897330    18.5439799570
Cu      2.0477494240     0.7093612090    20.7902126970
Cu      3.2763990780     2.8374448350    20.7902464750
Cu      4.5050487700     4.9655285250    20.7901894570
Cu      4.5050488060     0.7093612090    20.7902646290
Cu      5.7336984610     2.8374448350    20.7902077890
Cu      6.9623481520     4.9655285250    20.7902013200
Cu      6.9648115003     0.7093612090    20.7901985810
Cu      8.1909977700     2.8374448350    20.7901995150
Cu      9.4196474610     4.9655285250    20.7902560580
Cu      0.0179697490    -0.0320040283    23.0163701192
Cu      8.6172770511     2.0959850279    23.0204633056
Cu      9.8484414769     4.2268667676    23.0238831079
Cu      2.4731891803    -0.0310127936    23.0229738996
Cu      3.7055402175     2.0991067033    23.0298595251
Cu      4.9305445934     4.2278299340    23.0207662106
Cu      4.9338885070    -0.0312683995    23.0197167041
Cu      6.1601243027     2.0982355017    23.0285195345
Cu      7.3877605171     4.2243725093    23.0286208214
Cu      1.8387974832     1.0683212909    25.1961841051
Cu      3.0478140567     3.1951473982    25.1745964552
Cu      4.2837271680     5.3497458679    25.1668191523
Cu      4.2912410169     1.0523114341    25.1768106268
Cu      5.5341872541     3.2240968616    25.0565113125
Cu      6.7695895965     5.3481924163    25.1641845882
Cu      6.7629423027     1.0535134854    25.1796291125
Cu      8.0034258626     3.1943899099    25.1767646517
Cu      9.2112353328     5.3255820973    25.1960972937
O       5.9326284729     1.9821196253    29.4398454150
O       5.3955314987     3.3148604318    27.1781912787
O       5.4307790381     3.3416710227    31.9155395103
C       5.4670634162     3.3455070186    29.5217360902
C       5.9334359881     4.0774725085    28.2719720382
C       5.9320752907     4.0447862497    30.7773088158
H       4.3686257091     3.2684422895    29.4893710281
H       7.0402572129     4.1024752425    28.1961591906
H       5.5421629510     5.1055407023    28.1647357404
H       5.5854692922     5.1022795262    30.7669149368
H       7.0435485323     4.0464547310    30.7647911597
H       6.9116444457     2.0428906357    29.4712603001
H       5.7809495668     2.4063157411    27.1991635863
H       5.7806052030     3.8119076261    32.6839023854
86
Step 4 | ATOMIC_POSITIONS (angstrom) | Cartesian Angstrom
Ni      0.0000000000     0.0000000000    10.0000000900
Ni      8.6005476670     2.1280836470    10.0000000900
Ni      9.8291973330     4.2561672950    10.0000000900
Ni      2.4572993330     0.0000000000    10.0000000900
Ni      3.6859490000     2.1280836470    10.0000000900
Ni      4.9145986670     4.2561672950    10.0000000900
Ni      4.9145986670     0.0000000000    10.0000000900
Ni      6.1432483330     2.1280836470    10.0000000900
Ni      7.3718980000     4.2561672950    10.0000000900
Ni      1.6381995390     1.4187224170    12.0063763950
Ni      2.8668492300     3.5468061070    12.0063763950
Ni      4.0954988850     5.6748897330    12.0063763950
Ni      4.0954988480     1.4187224170    12.0063763950
Ni      5.3241485390     3.5468061070    12.0063763950
Ni      6.5527981940     5.6748897330    12.0063763950
Ni      6.5527982300     1.4187224170    12.0063763950
Ni      7.7814479220     3.5468061070    12.0063763950
Ni      9.0100975760     5.6748897330    12.0063763950
Ni      2.0477494240     0.7093612090    14.1640614080
Ni      3.2763990780     2.8374448350    14.1640729510
Ni      4.5050487700     4.9655285250    14.1640397250
Ni      4.5050488060     0.7093612090    14.1640710440
Ni      5.7336984610     2.8374448350    14.1640423650
Ni      6.9623481520     4.9655285250    14.1640482520
Ni      6.9623481150     0.7093612090    14.1640292020
Ni      8.1909977700     2.8374448350    14.1640591990
Ni      9.4196474610     4.9655285250    14.1640542750
Ni      0.0000000000     0.0000000000    16.3281461600
Ni      8.6005476670     2.1280836470    16.3282017120
Ni      9.8291973330     4.2561672950    16.3281943160
Ni      2.4572993330     0.0000000000    16.3281936330
Ni      3.6859490000     2.1280836470    16.3282178260
Ni      4.9145986670     4.2561672950    16.3281642570
Ni      4.9145986670     0.0000000000    16.3282096040
Ni      6.1432483330     2.1280836470    16.3281694310
Ni      7.3718980000     4.2561672950    16.3281777140
Cu      1.6381995390     1.4187224170    18.5439570380
Cu      2.8668492300     3.5468061070    18.5439633170
Cu      4.0954988850     5.6748897330    18.5439058500
Cu      4.0954988480     1.4187224170    18.5439876690
Cu      5.3241485390     3.5468061070    18.5439225600
Cu      6.5527981940     5.6748897330    18.5439394360
Cu      6.5527982300     1.4187224170    18.5439267690
Cu      7.7814479220     3.5468061070    18.5439293780
Cu      9.0100975760     5.6748897330    18.5439799570
Cu      2.0477494240     0.7093612090    20.7902126970
Cu      3.2763990780     2.8374448350    20.7902464750
Cu      4.5050487700     4.9655285250    20.7901894570
Cu      4.5050488060     0.7093612090    20.7902646290
Cu      5.7336984610     2.8374448350    20.7902077890
Cu      6.9623481520     4.9655285250    20.7902013200
Cu      6.9648115003     0.7093612090    20.7901985810
Cu      8.1909977700     2.8374448350    20.7901995150
Cu      9.4196474610     4.9655285250    20.7902560580
Cu      0.0306354796    -0.0543734224    23.0041624596
Cu      8.6310253110     2.0716842076    23.0141470006
Cu      9.8610814817     4.2053325985    23.0192171795
Cu      2.4850744451    -0.0518074853    23.0165099615
Cu      3.7194772521     2.0773183497    23.0291343147
Cu      4.9384525308     4.2134618999    23.0006123489
Cu      4.9478293202    -0.0553699901    23.0131993080
Cu      6.1762600636     2.0694577014    23.0175874058
Cu      7.3998607867     4.2007279308    23.0266222311
Cu      1.8398495327     1.0662957814    25.2022544476
Cu      3.0449552864     3.1918570375    25.1679735501
Cu      4.2813193695     5.3546575427    25.1551580163
Cu      4.2931584551     1.0486439393    25.1699583654
Cu      5.5400628456     3.2334578629    25.0254249173
Cu      6.7768800463     5.3539606557    25.1519448624
Cu      6.7645401075     1.0504853427    25.1745695377
Cu      8.0095458605     3.1912523912    25.1712665258
Cu      9.2122802804     5.3234748825    25.2022054577
O       5.9394826134     1.9862293828    29.4361888852
O       5.3697648900     3.2938665133    27.1996447731
O       5.4277022428     3.3489520744    31.9177470752
C       5.4784041622     3.3467426471    29.5368119647
C       5.9291966429     4.0746952129    28.2795764649
C       5.9350820527     4.0468167173    30.7871102241
H       4.3845585837     3.2713659241    29.4948448179
H       7.0446557138     4.1178626703    28.2069090921
H       5.5415885235     5.1019889829    28.1601735647
H       5.5907893763     5.0998020878    30.7558061299
H       7.0443652005     4.0583578547    30.7593115669
H       6.9091127793     2.0240425181    29.4775485876
H       5.7724197642     2.3909781016    27.2410916255
H       5.7736093336     3.8033140448    32.7029312930
86
Step 5 | ATOMIC_POSITIONS (angstrom) | Cartesian Angstrom
Ni      0.0000000000     0.0000000000    10.0000000900
Ni      8.6005476670     2.1280836470    10.0000000900
Ni      9.8291973330     4.2561672950    10.0000000900
Ni      2.4572993330     0.0000000000    10.0000000900
Ni      3.6859490000     2.1280836470    10.0000000900
Ni      4.9145986670     4.2561672950    10.0000000900
Ni      4.9145986670     0.0000000000    10.0000000900
Ni      6.1432483330     2.1280836470    10.0000000900
Ni      7.3718980000     4.2561672950    10.0000000900
Ni      1.6381995390     1.4187224170    12.0063763950
Ni      2.8668492300     3.5468061070    12.0063763950
Ni      4.0954988850     5.6748897330    12.0063763950
Ni      4.0954988480     1.4187224170    12.0063763950
Ni      5.3241485390     3.5468061070    12.0063763950
Ni      6.5527981940     5.6748897330    12.0063763950
Ni      6.5527982300     1.4187224170    12.0063763950
Ni      7.7814479220     3.5468061070    12.0063763950
Ni      9.0100975760     5.6748897330    12.0063763950
Ni      2.0477494240     0.7093612090    14.1640614080
Ni      3.2763990780     2.8374448350    14.1640729510
Ni      4.5050487700     4.9655285250    14.1640397250
Ni      4.5050488060     0.7093612090    14.1640710440
Ni      5.7336984610     2.8374448350    14.1640423650
Ni      6.9623481520     4.9655285250    14.1640482520
Ni      6.9623481150     0.7093612090    14.1640292020
Ni      8.1909977700     2.8374448350    14.1640591990
Ni      9.4196474610     4.9655285250    14.1640542750
Ni      0.0000000000     0.0000000000    16.3281461600
Ni      8.6005476670     2.1280836470    16.3282017120
Ni      9.8291973330     4.2561672950    16.3281943160
Ni      2.4572993330     0.0000000000    16.3281936330
Ni      3.6859490000     2.1280836470    16.3282178260
Ni      4.9145986670     4.2561672950    16.3281642570
Ni      4.9145986670     0.0000000000    16.3282096040
Ni      6.1432483330     2.1280836470    16.3281694310
Ni      7.3718980000     4.2561672950    16.3281777140
Cu      1.6381995390     1.4187224170    18.5439570380
Cu      2.8668492300     3.5468061070    18.5439633170
Cu      4.0954988850     5.6748897330    18.5439058500
Cu      4.0954988480     1.4187224170    18.5439876690
Cu      5.3241485390     3.5468061070    18.5439225600
Cu      6.5527981940     5.6748897330    18.5439394360
Cu      6.5527982300     1.4187224170    18.5439267690
Cu      7.7814479220     3.5468061070    18.5439293780
Cu      9.0100975760     5.6748897330    18.5439799570
Cu      2.0477494240     0.7093612090    20.7902126970
Cu      3.2763990780     2.8374448350    20.7902464750
Cu      4.5050487700     4.9655285250    20.7901894570
Cu      4.5050488060     0.7093612090    20.7902646290
Cu      5.7336984610     2.8374448350    20.7902077890
Cu      6.9623481520     4.9655285250    20.7902013200
Cu      6.9648115003     0.7093612090    20.7901985810
Cu      8.1909977700     2.8374448350    20.7901995150
Cu      9.4196474610     4.9655285250    20.7902560580
Cu      0.0474285095    -0.0840187906    22.9857691282
Cu      8.6505324034     2.0389668168    23.0050819310
Cu      9.8769975323     4.1760025662    23.0116930598
Cu      2.5016581823    -0.0788872566    23.0058142014
Cu      3.7386513979     2.0483071496    23.0257217047
Cu      4.9492854527     4.1937386366    22.9677069935
Cu      4.9659898970    -0.0886431382    23.0041075005
Cu      6.1982708007     2.0299991358    22.9982602618
Cu      7.4155778089     4.1684710918    23.0215083687
Cu      1.8424009428     1.0626695452    25.2096337377
Cu      3.0476247801     3.1866270642    25.1603235803
Cu      4.2822255492     5.3544030691    25.1404940404
Cu      4.2991125966     1.0476971663    25.1610068770
Cu      5.5479917960     3.2394768339    25.0086112846
Cu      6.7848123696     5.3557954935    25.1380715149
Cu      6.7650221429     1.0499918600    25.1673600587
Cu      8.0137489055     3.1863969680    25.1648200254
Cu      9.2148965348     5.3194620798    25.2097495549
O       5.9394362382     1.9927092013    29.4376026602
O       5.3496892685     3.2699383295    27.2175617553
O       5.4281089569     3.3630409303    31.9283030548
C       5.4893849026     3.3505496307    29.5448639452
C       5.9267244083     4.0684262153    28.2799541516
C       5.9443172284     4.0496421224    30.7933315362
H       4.3999686712     3.2742399667    29.5058994943
H       7.0384865957     4.1345735370    28.2172366136
H       5.5400504718     5.0916648686    28.1573519449
H       5.5966365752     5.0948478335    30.7445773008
H       7.0456537336     4.0731564691    30.7605698758
H       6.9184368236     1.9987372835    29.4872048083
H       5.7561339284     2.3767944231    27.2962542507
H       5.7626657628     3.7898136529    32.7259278046
86
Step 6 | ATOMIC_POSITIONS (angstrom) | Cartesian Angstrom
Ni      0.0000000000     0.0000000000    10.0000000900
Ni      8.6005476670     2.1280836470    10.0000000900
Ni      9.8291973330     4.2561672950    10.0000000900
Ni      2.4572993330     0.0000000000    10.0000000900
Ni      3.6859490000     2.1280836470    10.0000000900
Ni      4.9145986670     4.2561672950    10.0000000900
Ni      4.9145986670     0.0000000000    10.0000000900
Ni      6.1432483330     2.1280836470    10.0000000900
Ni      7.3718980000     4.2561672950    10.0000000900
Ni      1.6381995390     1.4187224170    12.0063763950
Ni      2.8668492300     3.5468061070    12.0063763950
Ni      4.0954988850     5.6748897330    12.0063763950
Ni      4.0954988480     1.4187224170    12.0063763950
Ni      5.3241485390     3.5468061070    12.0063763950
Ni      6.5527981940     5.6748897330    12.0063763950
Ni      6.5527982300     1.4187224170    12.0063763950
Ni      7.7814479220     3.5468061070    12.0063763950
Ni      9.0100975760     5.6748897330    12.0063763950
Ni      2.0477494240     0.7093612090    14.1640614080
Ni      3.2763990780     2.8374448350    14.1640729510
Ni      4.5050487700     4.9655285250    14.1640397250
Ni      4.5050488060     0.7093612090    14.1640710440
Ni      5.7336984610     2.8374448350    14.1640423650
Ni      6.9623481520     4.9655285250    14.1640482520
Ni      6.9623481150     0.7093612090    14.1640292020
Ni      8.1909977700     2.8374448350    14.1640591990
Ni      9.4196474610     4.9655285250    14.1640542750
Ni      0.0000000000     0.0000000000    16.3281461600
Ni      8.6005476670     2.1280836470    16.3282017120
Ni      9.8291973330     4.2561672950    16.3281943160
Ni      2.4572993330     0.0000000000    16.3281936330
Ni      3.6859490000     2.1280836470    16.3282178260
Ni      4.9145986670     4.2561672950    16.3281642570
Ni      4.9145986670     0.0000000000    16.3282096040
Ni      6.1432483330     2.1280836470    16.3281694310
Ni      7.3718980000     4.2561672950    16.3281777140
Cu      1.6381995390     1.4187224170    18.5439570380
Cu      2.8668492300     3.5468061070    18.5439633170
Cu      4.0954988850     5.6748897330    18.5439058500
Cu      4.0954988480     1.4187224170    18.5439876690
Cu      5.3241485390     3.5468061070    18.5439225600
Cu      6.5527981940     5.6748897330    18.5439394360
Cu      6.5527982300     1.4187224170    18.5439267690
Cu      7.7814479220     3.5468061070    18.5439293780
Cu      9.0100975760     5.6748897330    18.5439799570
Cu      2.0477494240     0.7093612090    20.7902126970
Cu      3.2763990780     2.8374448350    20.7902464750
Cu      4.5050487700     4.9655285250    20.7901894570
Cu      4.5050488060     0.7093612090    20.7902646290
Cu      5.7336984610     2.8374448350    20.7902077890
Cu      6.9623481520     4.9655285250    20.7902013200
Cu      6.9648115003     0.7093612090    20.7901985810
Cu      8.1909977700     2.8374448350    20.7901995150
Cu      9.4196474610     4.9655285250    20.7902560580
Cu      0.0663559305    -0.1175357833    22.9633957357
Cu      8.6737574467     2.0022223794    22.9944934308
Cu      9.8938133472     4.1420229714    23.0018068765
Cu      2.5215039726    -0.1090897488    22.9914895815
Cu      3.7613006421     2.0161849856    23.0182412757
Cu      4.9643124689     4.1667366079    22.9290830401
Cu      4.9855406575    -0.1273638160    22.9937484132
Cu      6.2220396380     1.9871792520    22.9736085890
Cu      7.4321533688     4.1312414733    23.0124812149
Cu      1.8468545708     1.0570021055    25.2166626203
Cu      3.0570835293     3.1795107084    25.1528682555
Cu      4.2877105141     5.3471127707    25.1241521060
Cu      4.3093090608     1.0490099770    25.1511869972
Cu      5.5568563121     3.2389014041    25.0098140694
Cu      6.7924821604     5.3516226081    25.1250696815
Cu      6.7652497931     1.0511659888    25.1581328772
Cu      8.0158513522     3.1797000534    25.1583854379
Cu      9.2197814723     5.3133285555    25.2171249972
O       5.9488114253     1.9948122323    29.4453547737
O       5.3413689280     3.2545075809    27.2268507127
O       5.4281733885     3.3754219482    31.9326858831
C       5.4990161253     3.3555917090    29.5478954305
C       5.9199200870     4.0599284523    28.2756625317
C       5.9534747008     4.0530247339    30.7986313672
H       4.4098403425     3.2771946576    29.5219956447
H       7.0273998198     4.1476869698    28.2218642982
H       5.5347481878     5.0782815170    28.1557959984
H       5.6013611124     5.0917603417    30.7356846919
H       7.0536153073     4.0880763235    30.7708145607
H       6.9234847518     1.9714011031    29.4990605277
H       5.7345732538     2.3580731273    27.3574581084
H       5.7546248247     3.7802558037    32.7569741653
86
Step 7 | ATOMIC_POSITIONS (angstrom) | Cartesian Angstrom
Ni      0.0000000000     0.0000000000    10.0000000900
Ni      8.6005476670     2.1280836470    10.0000000900
Ni      9.8291973330     4.2561672950    10.0000000900
Ni      2.4572993330     0.0000000000    10.0000000900
Ni      3.6859490000     2.1280836470    10.0000000900
Ni      4.9145986670     4.2561672950    10.0000000900
Ni      4.9145986670     0.0000000000    10.0000000900
Ni      6.1432483330     2.1280836470    10.0000000900
Ni      7.3718980000     4.2561672950    10.0000000900
Ni      1.6381995390     1.4187224170    12.0063763950
Ni      2.8668492300     3.5468061070    12.0063763950
Ni      4.0954988850     5.6748897330    12.0063763950
Ni      4.0954988480     1.4187224170    12.0063763950
Ni      5.3241485390     3.5468061070    12.0063763950
Ni      6.5527981940     5.6748897330    12.0063763950
Ni      6.5527982300     1.4187224170    12.0063763950
Ni      7.7814479220     3.5468061070    12.0063763950
Ni      9.0100975760     5.6748897330    12.0063763950
Ni      2.0477494240     0.7093612090    14.1640614080
Ni      3.2763990780     2.8374448350    14.1640729510
Ni      4.5050487700     4.9655285250    14.1640397250