86
Step 1 | ATOMIC_POSITIONS (angstrom) | Cartesian Angstrom
Ni      1.2286420027     0.7093562278     8.0127033495
Ni      0.0000022775     0.0000000000    10.0192033545
Ni      2.4637570809     1.4224515552    12.0711324136
Ni      1.2397802907     0.7157901456    14.1224527674
Ni      2.4572821841     2.8374249112     8.0127033495
Ni      1.2286424588     2.1280686834    10.0192033545
Ni      3.6926781159     3.5507357065    12.0705045449
Ni      2.4684725529     2.8434817294    14.1212345102
Ni      3.6859592251     4.9655574374     8.0127033495
Ni      2.4573194998     4.2562012095    10.0192033545
Ni      4.9217656993     5.6792526148    12.0709362359
Ni      3.6969571749     4.9715231220    14.1220203985
Ni      3.6859223655     0.7093562278     8.0127033495
Ni      2.4572826402     0.0000000000    10.0192033545
Ni      4.9213653839     1.4225857500    12.0705018304
Ni      3.6967638997     0.7160224207    14.1212311860
Ni      4.9145625469     2.8374249112     8.0127033495
Ni      3.6859228216     2.1280686834    10.0192033545
Ni      6.1503529497     3.5509085402    12.0699854915
Ni      4.9256539069     2.8438285306    14.1202327617
Ni      6.1432395878     4.9655574374     8.0127033495
Ni      4.9145998625     4.2562012095    10.0192033545
Ni      7.3794585706     5.6794809406    12.0703411417
Ni      6.1541912510     4.9717126524    14.1210383973
Ni      6.1432764474     0.7093562278     8.0127033495
Ni      4.9146367221     0.0000000000    10.0192033545
Ni      7.3792576901     1.4227490418    12.0709363656
Ni      6.1539445722     0.7158998925    14.1220190429
Ni      7.3719166287     2.8374249112     8.0127033495
Ni      6.1432769035     2.1280686834    10.0192033545
Ni      8.6083025545     3.5510600089    12.0703431006
Ni      7.3827250276     2.8438303041    14.1210406577
Ni      8.6005936697     4.9655574374     8.0127033495
Ni      7.3719539444     4.2562012095    10.0192033545
Ni      9.8373683369     5.6796094234    12.0707933550
Ni      8.6114301675     4.9718114503    14.1216528753
Cu      0.0606248935    -0.0000009076    22.6429392959
Cu      1.2861052596     2.1284696793    22.6238044195
Cu      2.5197103439     4.2585107386    22.6334804449
Cu      2.5148915496    -0.0058765714    22.6145995504
Cu      0.0125988505     0.0072754476    16.2332161102
Cu      2.4696349891     1.4258444684    18.3916416570
Cu      1.2664671261     0.7111605871    20.5063580237
Cu      3.7542135216     2.1234611699    22.7542853445
Cu      1.2416711544     2.1361120827    16.2320324925
Cu      3.6976153977     3.5539780780    18.3918749325
Cu      2.5032960082     2.8352088659    20.5353758700
Cu      4.9790314988     4.2626396841    22.6114260504
Cu      4.9835825608    -0.0120251724    22.5892158741
Cu      2.4707625323     0.0072639821    16.2320277932
Cu      4.9266420746     1.4252400817    18.3918761583
Cu      3.7226686298     0.7190406700    20.5233190214
Cu      6.2174461288     2.1261677666    22.6086623233
Cu      3.6999344853     2.1361584753    16.2305426330
Cu      6.1546566898     3.5533933395    18.3924014903
Cu      4.9462335065     2.8340278777    20.5315651871
Cu      7.4340516897     4.2594533414    22.6297914202
Cu      2.4703615692     4.2639064921    16.2323564383
Cu      4.9258612022     5.6821553099    18.3929147418
Cu      3.7220249418     4.9684095077    20.5061256730
Cu      4.9284376454     4.2641058199    16.2311095738
Cu      7.3827816611     5.6818035922    18.3933612343
Cu      6.1810265642     4.9665417678    20.4916163682
Cu      4.9278325409     0.0074438059    16.2323521866
Cu      7.3838191099     1.4248449337    18.3929204237
Cu      6.1826724802     0.7102911359    20.4961813776
Cu      6.1570438883     2.1360992535    16.2311101997
Cu      8.6119749333     3.5527772255    18.3933657681
Cu      7.4113862926     2.8407045415    20.4933464478
Cu      7.3856113588     4.2640840866    16.2316791968
Cu      9.8400295452     5.6811466362    18.3940799063
Cu      8.6380541496     4.9625036493    20.4902286029
O       5.3348674346     1.3799876370    27.5140318931
O       3.8790622121     1.8364510053    25.0832298598
O       5.4337484887     3.2462231353    29.4234381621
C       4.5511756996     2.5633678541    27.3182823182
C       4.5390451812     2.8728038984    25.8334188956
C       5.1576790349     3.7287465588    28.0939604130
H       3.5131917786     2.3786974484    27.6604346246
H       5.5715762272     3.0070124240    25.4709041124
H       3.9797145393     3.7921002154    25.6157972976
H       4.4553475464     4.5769535297    28.1192123834
H       6.0871405914     4.0536156142    27.5977878446
H       5.6896976118     1.4560921251    28.4222489984
H       4.4066168337     1.0139914079    25.1692667556
H       6.1185083249     3.8021217100    29.8280175257
86
Step 2 | ATOMIC_POSITIONS (angstrom) | Cartesian Angstrom
Ni      1.2286420027     0.7093562278     8.0127033495
Ni      0.0000022775     0.0000000000    10.0192033545
Ni      2.4637570809     1.4224515552    12.0711324136
Ni      1.2397802907     0.7157901456    14.1224527674
Ni      2.4572821841     2.8374249112     8.0127033495
Ni      1.2286424588     2.1280686834    10.0192033545
Ni      3.6926781159     3.5507357065    12.0705045449
Ni      2.4684725529     2.8434817294    14.1212345102
Ni      3.6859592251     4.9655574374     8.0127033495
Ni      2.4573194998     4.2562012095    10.0192033545
Ni      4.9217656993     5.6792526148    12.0709362359
Ni      3.6969571749     4.9715231220    14.1220203985
Ni      3.6859223655     0.7093562278     8.0127033495
Ni      2.4572826402     0.0000000000    10.0192033545
Ni      4.9213653839     1.4225857500    12.0705018304
Ni      3.6967638997     0.7160224207    14.1212311860
Ni      4.9145625469     2.8374249112     8.0127033495
Ni      3.6859228216     2.1280686834    10.0192033545
Ni      6.1503529497     3.5509085402    12.0699854915
Ni      4.9256539069     2.8438285306    14.1202327617
Ni      6.1432395878     4.9655574374     8.0127033495
Ni      4.9145998625     4.2562012095    10.0192033545
Ni      7.3794585706     5.6794809406    12.0703411417
Ni      6.1541912510     4.9717126524    14.1210383973
Ni      6.1432764474     0.7093562278     8.0127033495
Ni      4.9146367221     0.0000000000    10.0192033545
Ni      7.3792576901     1.4227490418    12.0709363656
Ni      6.1539445722     0.7158998925    14.1220190429
Ni      7.3719166287     2.8374249112     8.0127033495
Ni      6.1432769035     2.1280686834    10.0192033545
Ni      8.6083025545     3.5510600089    12.0703431006
Ni      7.3827250276     2.8438303041    14.1210406577
Ni      8.6005936697     4.9655574374     8.0127033495
Ni      7.3719539444     4.2562012095    10.0192033545
Ni      9.8373683369     5.6796094234    12.0707933550
Ni      8.6114301675     4.9718114503    14.1216528753
Cu      0.0628846335     0.0013107312    22.6447324453
Cu      1.2886494722     2.1296383119    22.6214735923
Cu      2.5206108837     4.2614241352    22.6368572085
Cu      2.5175701632    -0.0060907103    22.6170953184
Cu      0.0125988505     0.0072754476    16.2332161102
Cu      2.4696349891     1.4258444684    18.3916416570
Cu      1.2717476783     0.7136028946    20.5051762178
Cu      3.7531393988     2.1242194433    22.7506702655
Cu      1.2416711544     2.1361120827    16.2320324925
Cu      3.6976153977     3.5539780780    18.3918749325
Cu      2.5062188151     2.8411136055    20.5367386918
Cu      4.9814609363     4.2632735032    22.6077836622
Cu      4.9838467366    -0.0089482002    22.5924941268
Cu      2.4707625323     0.0072639821    16.2320277932
Cu      4.9266420746     1.4252400817    18.3918761583
Cu      3.7250482847     0.7218714165    20.5243364776
Cu      6.2179721276     2.1283744204    22.6045396860
Cu      3.6999344853     2.1361584753    16.2305426330
Cu      6.1546566898     3.5533933395    18.3924014903
Cu      4.9495334042     2.8367154116    20.5298740090
Cu      7.4366250747     4.2590088222    22.6361801148
Cu      2.4703615692     4.2639064921    16.2323564383
Cu      4.9258612022     5.6821553099    18.3929147418
Cu      3.7246552581     4.9717270709    20.5057375359
Cu      4.9284376454     4.2641058199    16.2311095738
Cu      7.3827816611     5.6818035922    18.3933612343
Cu      6.1849309395     4.9672035256    20.4918140906
Cu      4.9278325409     0.0074438059    16.2323521866
Cu      7.3838191099     1.4248449337    18.3929204237
Cu      6.1853477709     0.7129138415    20.4973899425
Cu      6.1570438883     2.1360992535    16.2311101997
Cu      8.6119749333     3.5527772255    18.3933657681
Cu      7.4154078956     2.8422527448    20.4925693494
Cu      7.3856113588     4.2640840866    16.2316791968
Cu      9.8400295452     5.6811466362    18.3940799063
Cu      8.6391424176     4.9662449657    20.4924850137
O       5.3650553167     1.3942575889    27.5015151650
O       3.8760276190     1.8434421147    25.0797300631
O       5.4372576083     3.2634868328    29.4212895731
C       4.5674690930     2.5697914717    27.3148982271
C       4.5442455276     2.8761248380    25.8300415113
C       5.1685792837     3.7404099703    28.0870660472
H       3.5339313272     2.3771170432    27.6649840959
H       5.5771946980     3.0071016819    25.4640787963
H       3.9854360828     3.7960477662    25.6133961618
H       4.4609365046     4.5854563206    28.1077574871
H       6.0990706510     4.0651235677    27.5933234487
H       5.6915514939     1.4491647101    28.4220079920
H       4.3894601569     1.0137282144    25.1724259164
H       6.1341804722     3.8118609469    29.8170159010
86
Step 3 | ATOMIC_POSITIONS (angstrom) | Cartesian Angstrom
Ni      1.2286420027     0.7093562278     8.0127033495
Ni      0.0000022775     0.0000000000    10.0192033545
Ni      2.4637570809     1.4224515552    12.0711324136
Ni      1.2397802907     0.7157901456    14.1224527674
Ni      2.4572821841     2.8374249112     8.0127033495
Ni      1.2286424588     2.1280686834    10.0192033545
Ni      3.6926781159     3.5507357065    12.0705045449
Ni      2.4684725529     2.8434817294    14.1212345102
Ni      3.6859592251     4.9655574374     8.0127033495
Ni      2.4573194998     4.2562012095    10.0192033545
Ni      4.9217656993     5.6792526148    12.0709362359
Ni      3.6969571749     4.9715231220    14.1220203985
Ni      3.6859223655     0.7093562278     8.0127033495
Ni      2.4572826402     0.0000000000    10.0192033545
Ni      4.9213653839     1.4225857500    12.0705018304
Ni      3.6967638997     0.7160224207    14.1212311860
Ni      4.9145625469     2.8374249112     8.0127033495
Ni      3.6859228216     2.1280686834    10.0192033545
Ni      6.1503529497     3.5509085402    12.0699854915
Ni      4.9256539069     2.8438285306    14.1202327617
Ni      6.1432395878     4.9655574374     8.0127033495
Ni      4.9145998625     4.2562012095    10.0192033545
Ni      7.3794585706     5.6794809406    12.0703411417
Ni      6.1541912510     4.9717126524    14.1210383973
Ni      6.1432764474     0.7093562278     8.0127033495
Ni      4.9146367221     0.0000000000    10.0192033545
Ni      7.3792576901     1.4227490418    12.0709363656
Ni      6.1539445722     0.7158998925    14.1220190429
Ni      7.3719166287     2.8374249112     8.0127033495
Ni      6.1432769035     2.1280686834    10.0192033545
Ni      8.6083025545     3.5510600089    12.0703431006
Ni      7.3827250276     2.8438303041    14.1210406577
Ni      8.6005936697     4.9655574374     8.0127033495
Ni      7.3719539444     4.2562012095    10.0192033545
Ni      9.8373683369     5.6796094234    12.0707933550
Ni      8.6114301675     4.9718114503    14.1216528753
Cu      0.0611186607     0.0006078924    22.6455476880
Cu      1.2869596454     2.1289100026    22.6201563153
Cu      2.5177965077     4.2625612558    22.6374769670
Cu      2.5156679184    -0.0077408288    22.6182097559
Cu      0.0125988505     0.0072754476    16.2332161102
Cu      2.4696349891     1.4258444684    18.3916416570
Cu      1.2725207694     0.7142695662    20.5046633683
Cu      3.7498085738     2.1243536379    22.7460999958
Cu      1.2416711544     2.1361120827    16.2320324925
Cu      3.6976153977     3.5539780780    18.3918749325
Cu      2.5066933880     2.8428414797    20.5362353021
Cu      4.9801252695     4.2632171966    22.6047979187
Cu      4.9819719381    -0.0087715882    22.5944654054
Cu      2.4707625323     0.0072639821    16.2320277932
Cu      4.9266420746     1.4252400817    18.3918761583
Cu      3.7249535772     0.7228065287    20.5246530536
Cu      6.2156128889     2.1280905248    22.6025029523
Cu      3.6999344853     2.1361584753    16.2305426330
Cu      6.1546566898     3.5533933395    18.3924014903
Cu      4.9494361485     2.8372693224    20.5275938990
Cu      7.4348530949     4.2570844349    22.6394118770
Cu      2.4703615692     4.2639064921    16.2323564383
Cu      4.9258612022     5.6821553099    18.3929147418
Cu      3.7246416282     4.9721404982    20.5053821750
Cu      4.9284376454     4.2641058199    16.2311095738
Cu      7.3827816611     5.6818035922    18.3933612343
Cu      6.1857365070     4.9672906720    20.4922064604
Cu      4.9278325409     0.0074438059    16.2323521866
Cu      7.3838191099     1.4248449337    18.3929204237
Cu      6.1851242225     0.7138234123    20.4979599587
Cu      6.1570438883     2.1360992535    16.2311101997
Cu      8.6119749333     3.5527772255    18.3933657681
Cu      7.4158005760     2.8425358688    20.4931554899
Cu      7.3856113588     4.2640840866    16.2316791968
Cu      9.8400295452     5.6811466362    18.3940799063
Cu      8.6383254232     4.9675325766    20.4935851183
O       5.3684450165     1.3946001501    27.4891264770
O       3.8711346039     1.8483504234    25.0739220527
O       5.4255667412     3.2639852288    29.4235105944
C       4.5665746102     2.5680710159    27.3111629040
C       4.5404099744     2.8779164877    25.8274254827
C       5.1647930194     3.7385154698    28.0862938189
H       3.5357857287     2.3723611479    27.6655449364
H       5.5746264875     3.0080241687    25.4641069076
H       3.9819687506     3.7994008470    25.6155979641
H       4.4578188755     4.5830968896    28.1021785947
H       6.0996834592     4.0610737592    27.5955261326
H       5.6827670086     1.4358769263    28.4128972187
H       4.3768039171     1.0158670015    25.1712916566
H       6.1215247626     3.8118785571    29.8168239788
86
Step 4 | ATOMIC_POSITIONS (angstrom) | Cartesian Angstrom
Ni      1.2286420027     0.7093562278     8.0127033495
Ni      0.0000022775     0.0000000000    10.0192033545
Ni      2.4637570809     1.4224515552    12.0711324136
Ni      1.2397802907     0.7157901456    14.1224527674
Ni      2.4572821841     2.8374249112     8.0127033495
Ni      1.2286424588     2.1280686834    10.0192033545
Ni      3.6926781159     3.5507357065    12.0705045449
Ni      2.4684725529     2.8434817294    14.1212345102
Ni      3.6859592251     4.9655574374     8.0127033495
Ni      2.4573194998     4.2562012095    10.0192033545
Ni      4.9217656993     5.6792526148    12.0709362359
Ni      3.6969571749     4.9715231220    14.1220203985
Ni      3.6859223655     0.7093562278     8.0127033495
Ni      2.4572826402     0.0000000000    10.0192033545
Ni      4.9213653839     1.4225857500    12.0705018304
Ni      3.6967638997     0.7160224207    14.1212311860
Ni      4.9145625469     2.8374249112     8.0127033495
Ni      3.6859228216     2.1280686834    10.0192033545
Ni      6.1503529497     3.5509085402    12.0699854915
Ni      4.9256539069     2.8438285306    14.1202327617
Ni      6.1432395878     4.9655574374     8.0127033495
Ni      4.9145998625     4.2562012095    10.0192033545
Ni      7.3794585706     5.6794809406    12.0703411417
Ni      6.1541912510     4.9717126524    14.1210383973
Ni      6.1432764474     0.7093562278     8.0127033495
Ni      4.9146367221     0.0000000000    10.0192033545
Ni      7.3792576901     1.4227490418    12.0709363656
Ni      6.1539445722     0.7158998925    14.1220190429
Ni      7.3719166287     2.8374249112     8.0127033495
Ni      6.1432769035     2.1280686834    10.0192033545
Ni      8.6083025545     3.5510600089    12.0703431006
Ni      7.3827250276     2.8438303041    14.1210406577
Ni      8.6005936697     4.9655574374     8.0127033495
Ni      7.3719539444     4.2562012095    10.0192033545
Ni      9.8373683369     5.6796094234    12.0707933550
Ni      8.6114301675     4.9718114503    14.1216528753
Cu      0.0609522269     0.0010243619    22.6438658775
Cu      1.2863487648     2.1294697299    22.6183110329
Cu      2.5167306738     4.2655663615    22.6375071733
Cu      2.5148983487    -0.0090633920    22.6181566430
Cu      0.0125988505     0.0072754476    16.2332161102
Cu      2.4696349891     1.4258444684    18.3916416570
Cu      1.2741889529     0.7155618570    20.5041055890
Cu      3.7485589561     2.1261092971    22.7398207530
Cu      1.2416711544     2.1361120827    16.2320324925
Cu      3.6976153977     3.5539780780    18.3918749325
Cu      2.5087512424     2.8448455400    20.5352304896
Cu      4.9804888377     4.2648345059    22.6017565615
Cu      4.9829354749    -0.0081962331    22.5963014272
Cu      2.4707625323     0.0072639821    16.2320277932
Cu      4.9266420746     1.4252400817    18.3918761583
Cu      3.7264358380     0.7248429918    20.5246879383
Cu      6.2155185086     2.1289174297    22.5994098745
Cu      3.6999344853     2.1361584753    16.2305426330
Cu      6.1546566898     3.5533933395    18.3924014903
Cu      4.9500800300     2.8385065434    20.5241493490
Cu      7.4347709836     4.2561592633    22.6405495071
Cu      2.4703615692     4.2639064921    16.2323564383
Cu      4.9258612022     5.6821553099    18.3929147418
Cu      3.7261433681     4.9729824999    20.5040439352
Cu      4.9284376454     4.2641058199    16.2311095738
Cu      7.3827816611     5.6818035922    18.3933612343
Cu      6.1879423224     4.9685307525    20.4933141675
Cu      4.9278325409     0.0074438059    16.2323521866
Cu      7.3838191099     1.4248449337    18.3929204237
Cu      6.1863395201     0.7152976568    20.4973140366
Cu      6.1570438883     2.1360992535    16.2311101997
Cu      8.6119749333     3.5527772255    18.3933657681
Cu      7.4173805501     2.8435040421    20.4933278049
Cu      7.3856113588     4.2640840866    16.2316791968
Cu      9.8400295452     5.6811466362    18.3940799063
Cu      8.6392385474     4.9696682837    20.4950117329
O       5.3775830372     1.3984600179    27.4728816659
O       3.8658737522     1.8537403806    25.0647304083
O       5.4143111985     3.2658161120    29.4191248641
C       4.5707197183     2.5705206373    27.3010489162
C       4.5402259085     2.8822337922    25.8171206719
C       5.1641475059     3.7405102728    28.0801809553
H       3.5430019318     2.3713214744    27.6609266733
H       5.5763398069     3.0070525062    25.4550271024
H       3.9845476324     3.8070300343    25.6106228710
H       4.4544671262     4.5858174444    28.0937385921
H       6.1020295320     4.0626581548    27.5963396741
H       5.6775145096     1.4252516814    28.4013352726
H       4.3672871470     1.0202348866    25.1639108747
H       6.1158312955     3.8075617667    29.8115368137
86
Step 5 | ATOMIC_POSITIONS (angstrom) | Cartesian Angstrom
Ni      1.2286420027     0.7093562278     8.0127033495
Ni      0.0000022775     0.0000000000    10.0192033545
Ni      2.4637570809     1.4224515552    12.0711324136
Ni      1.2397802907     0.7157901456    14.1224527674
Ni      2.4572821841     2.8374249112     8.0127033495
Ni      1.2286424588     2.1280686834    10.0192033545
Ni      3.6926781159     3.5507357065    12.0705045449
Ni      2.4684725529     2.8434817294    14.1212345102
Ni      3.6859592251     4.9655574374     8.0127033495
Ni      2.4573194998     4.2562012095    10.0192033545
Ni      4.9217656993     5.6792526148    12.0709362359
Ni      3.6969571749     4.9715231220    14.1220203985
Ni      3.6859223655     0.7093562278     8.0127033495
Ni      2.4572826402     0.0000000000    10.0192033545
Ni      4.9213653839     1.4225857500    12.0705018304
Ni      3.6967638997     0.7160224207    14.1212311860
Ni      4.9145625469     2.8374249112     8.0127033495
Ni      3.6859228216     2.1280686834    10.0192033545
Ni      6.1503529497     3.5509085402    12.0699854915
Ni      4.9256539069     2.8438285306    14.1202327617
Ni      6.1432395878     4.9655574374     8.0127033495
Ni      4.9145998625     4.2562012095    10.0192033545
Ni      7.3794585706     5.6794809406    12.0703411417
Ni      6.1541912510     4.9717126524    14.1210383973
Ni      6.1432764474     0.7093562278     8.0127033495
Ni      4.9146367221     0.0000000000    10.0192033545
Ni      7.3792576901     1.4227490418    12.0709363656
Ni      6.1539445722     0.7158998925    14.1220190429
Ni      7.3719166287     2.8374249112     8.0127033495
Ni      6.1432769035     2.1280686834    10.0192033545
Ni      8.6083025545     3.5510600089    12.0703431006
Ni      7.3827250276     2.8438303041    14.1210406577
Ni      8.6005936697     4.9655574374     8.0127033495
Ni      7.3719539444     4.2562012095    10.0192033545
Ni      9.8373683369     5.6796094234    12.0707933550
Ni      8.6114301675     4.9718114503    14.1216528753
Cu      0.0581556163     0.0004662020    22.6404330481
Cu      1.2826020744     2.1283065885    22.6183403967
Cu      2.5136381831     4.2666751666    22.6358500324
Cu      2.5110975573    -0.0115946278    22.6178273270
Cu      0.0125988505     0.0072754476    16.2332161102
Cu      2.4696349891     1.4258444684    18.3916416570
Cu      1.2730686424     0.7155405672    20.5040879686
Cu      3.7454086563     2.1268679099    22.7345754938
Cu      1.2416711544     2.1361120827    16.2320324925
Cu      3.6976153977     3.5539780780    18.3918749325
Cu      2.5088162443     2.8437450154    20.5333833483
Cu      4.9774221416     4.2651409325    22.6004598278
Cu      4.9821442745    -0.0097597609    22.5984650724
Cu      2.4707625323     0.0072639821    16.2320277932
Cu      4.9266420746     1.4252400817    18.3918761583
Cu      3.7262019957     0.7248732943    20.5248887402
Cu      6.2128064666     2.1277690534    22.5977820433
Cu      3.6999344853     2.1361584753    16.2305426330
Cu      6.1546566898     3.5533933395    18.3924014903
Cu      4.9482738949     2.8381877837    20.5207847186
Cu      7.4318103150     4.2545260947    22.6388791134
Cu      2.4703615692     4.2639064921    16.2323564383
Cu      4.9258612022     5.6821553099    18.3929147418
Cu      3.7257124376     4.9723395249    20.5032505294
Cu      4.9284376454     4.2641058199    16.2311095738
Cu      7.3827816611     5.6818035922    18.3933612343
Cu      6.1875270409     4.9690840311    20.4943137429
Cu      4.9278325409     0.0074438059    16.2323521866
Cu      7.3838191099     1.4248449337    18.3929204237
Cu      6.1855326482     0.7153718720    20.4963988308
Cu      6.1570438883     2.1360992535    16.2311101997
Cu      8.6119749333     3.5527772255    18.3933657681
Cu      7.4166742395     2.8435865682    20.4944426541
Cu      7.3856113588     4.2640840866    16.2316791968
Cu      9.8400295452     5.6811466362    18.3940799063
Cu      8.6392227251     4.9699649923    20.4956481316
O       5.3744011090     1.3952717296    27.4578356335
O       3.8601482659     1.8599271235    25.0566681586
O       5.3985843216     3.2616743405    29.4183376632
C       4.5668446706     2.5680654973    27.2920421356
C       4.5356505245     2.8853433262    25.8102074896
C       5.1579398927     3.7361897702    28.0769431925
H       3.5408503321     2.3689099588    27.6554125809
H       5.5729518659     3.0074081395    25.4492063910
H       3.9823295195     3.8136003193    25.6113567446
H       4.4489162266     4.5819977291    28.0869299939
H       6.0996908606     4.0570947890    27.6003180707
H       5.6663973652     1.4125102933    28.3886881250
H       4.3621178076     1.0262737086    25.1518388943
H       6.0989028071     3.8028351120    29.8119407847
86
Step 6 | ATOMIC_POSITIONS (angstrom) | Cartesian Angstrom
Ni      1.2286420027     0.7093562278     8.0127033495
Ni      0.0000022775     0.0000000000    10.0192033545
Ni      2.4637570809     1.4224515552    12.0711324136
Ni      1.2397802907     0.7157901456    14.1224527674
Ni      2.4572821841     2.8374249112     8.0127033495
Ni      1.2286424588     2.1280686834    10.0192033545
Ni      3.6926781159     3.5507357065    12.0705045449
Ni      2.4684725529     2.8434817294    14.1212345102
Ni      3.6859592251     4.9655574374     8.0127033495
Ni      2.4573194998     4.2562012095    10.0192033545
Ni      4.9217656993     5.6792526148    12.0709362359
Ni      3.6969571749     4.9715231220    14.1220203985
Ni      3.6859223655     0.7093562278     8.0127033495
Ni      2.4572826402     0.0000000000    10.0192033545
Ni      4.9213653839     1.4225857500    12.0705018304
Ni      3.6967638997     0.7160224207    14.1212311860
Ni      4.9145625469     2.8374249112     8.0127033495
Ni      3.6859228216     2.1280686834    10.0192033545
Ni      6.1503529497     3.5509085402    12.0699854915
Ni      4.9256539069     2.8438285306    14.1202327617
Ni      6.1432395878     4.9655574374     8.0127033495
Ni      4.9145998625     4.2562012095    10.0192033545
Ni      7.3794585706     5.6794809406    12.0703411417
Ni      6.1541912510     4.9717126524    14.1210383973
Ni      6.1432764474     0.7093562278     8.0127033495
Ni      4.9146367221     0.0000000000    10.0192033545
Ni      7.3792576901     1.4227490418    12.0709363656
Ni      6.1539445722     0.7158998925    14.1220190429
Ni      7.3719166287     2.8374249112     8.0127033495
Ni      6.1432769035     2.1280686834    10.0192033545
Ni      8.6083025545     3.5510600089    12.0703431006
Ni      7.3827250276     2.8438303041    14.1210406577
Ni      8.6005936697     4.9655574374     8.0127033495
Ni      7.3719539444     4.2562012095    10.0192033545
Ni      9.8373683369     5.6796094234    12.0707933550
Ni      8.6114301675     4.9718114503    14.1216528753
Cu      0.0554430001     0.0010936562    22.6358086928
Cu      1.2783937971     2.1281311785    22.6196903689
Cu      2.5111462263     4.2677179357    22.6341148295
Cu      2.5071497043    -0.0135793450    22.6164723163
Cu      0.0125988505     0.0072754476    16.2332161102
Cu      2.4696349891     1.4258444684    18.3916416570
Cu      1.2713127994     0.7160535923    20.5040221103
Cu      3.7424006922     2.1272893243    22.7324045774
Cu      1.2416711544     2.1361120827    16.2320324925
Cu      3.6976153977     3.5539780780    18.3918749325
Cu      2.5086842086     2.8417958807    20.5321841455
Cu      4.9735467162     4.2656753826    22.6017339979
Cu      4.9821435822    -0.0114285886    22.6012393917
Cu      2.4707625323     0.0072639821    16.2320277932
Cu      4.9266420746     1.4252400817    18.3918761583
Cu      3.7264459990     0.7245437405    20.5261375062
Cu      6.2099114466     2.1273051601    22.5965889135
Cu      3.6999344853     2.1361584753    16.2305426330
Cu      6.1546566898     3.5533933395    18.3924014903
Cu      4.9462191672     2.8383791996    20.5181220455
Cu      7.4287899471     4.2542579275    22.6357808365
Cu      2.4703615692     4.2639064921    16.2323564383
Cu      4.9258612022     5.6821553099    18.3929147418
Cu      3.7255190703     4.9721046283    20.5022315660
Cu      4.9284376454     4.2641058199    16.2311095738
Cu      7.3827816611     5.6818035922    18.3933612343
Cu      6.1867399648     4.9705292183    20.4955015139
Cu      4.9278325409     0.0074438059    16.2323521866
Cu      7.3838191099     1.4248449337    18.3929204237
Cu      6.1849025228     0.7157836004    20.4942788000
Cu      6.1570438883     2.1360992535    16.2311101997
Cu      8.6119749333     3.5527772255    18.3933657681
Cu      7.4157495317     2.8447464516    20.4955703153
Cu      7.3856113588     4.2640840866    16.2316791968
Cu      9.8400295452     5.6811466362    18.3940799063
Cu      8.6404012526     4.9702381307    20.4960973098
O       5.3677341840     1.3915900970    27.4436269666
O       3.8520105769     1.8621611376    25.0489609648
O       5.3799481321     3.2544269163    29.4159991704
C       4.5633004331     2.5676785441    27.2818595219
C       4.5308110122     2.8887054220    25.7997194741
C       5.1522825711     3.7315898812    28.0737391563
H       3.5371372716     2.3709363345    27.6473710785
H       5.5673828528     3.0071452626    25.4349978001
H       3.9798124769     3.8194820058    25.6056621678
H       4.4439506164     4.5783500704    28.0815472281
H       6.0991307669     4.0536658005    27.6071604943
H       5.6557949208     1.4006538489    28.3754642821
H       4.3595474915     1.0310335316    25.1401897609
H       6.0790304503     3.7919755716    29.8160689154
86
Step 7 | ATOMIC_POSITIONS (angstrom) | Cartesian Angstrom
Ni      1.2286420027     0.7093562278     8.0127033495
Ni      0.0000022775     0.0000000000    10.0192033545
Ni      2.4637570809     1.4224515552    12.0711324136
Ni      1.2397802907     0.7157901456    14.1224527674
Ni      2.4572821841     2.8374249112     8.0127033495
Ni      1.2286424588     2.1280686834    10.0192033545
Ni      3.6926781159     3.5507357065    12.0705045449
Ni      2.4684725529     2.8434817294    14.1212345102
Ni      3.6859592251     4.9655574374     8.0127033495
Ni      2.4573194998     4.2562012095    10.0192033545
Ni      4.9217656993     5.6792526148    12.0709362359
Ni      3.6969571749     4.9715231220    14.1220203985
Ni      3.6859223655     0.7093562278     8.0127033495
Ni      2.4572826402     0.0000000000    10.0192033545
Ni      4.9213653839     1.4225857500    12.0705018304
Ni      3.6967638997     0.7160224207    14.1212311860
Ni      4.9145625469     2.8374249112     8.0127033495
Ni      3.6859228216     2.1280686834    10.0192033545
Ni      6.1503529497     3.5509085402    12.0699854915
Ni      4.9256539069     2.8438285306    14.1202327617
Ni      6.1432395878     4.9655574374     8.0127033495