86
Step 1 | ATOMIC_POSITIONS (angstrom) | Cartesian Angstrom
Ni      0.0000000000     0.0000000000    10.0000000900
Ni      8.6005476670     2.1280836470    10.0000000900
Ni      9.8291973330     4.2561672950    10.0000000900
Ni      2.4572993330     0.0000000000    10.0000000900
Ni      3.6859490000     2.1280836470    10.0000000900
Ni      4.9145986670     4.2561672950    10.0000000900
Ni      4.9145986670     0.0000000000    10.0000000900
Ni      6.1432483330     2.1280836470    10.0000000900
Ni      7.3718980000     4.2561672950    10.0000000900
Ni      1.6381995390     1.4187224170    12.0063763950
Ni      2.8668492300     3.5468061070    12.0063763950
Ni      4.0954988850     5.6748897330    12.0063763950
Ni      4.0954988480     1.4187224170    12.0063763950
Ni      5.3241485390     3.5468061070    12.0063763950
Ni      6.5527981940     5.6748897330    12.0063763950
Ni      6.5527982300     1.4187224170    12.0063763950
Ni      7.7814479220     3.5468061070    12.0063763950
Ni      9.0100975760     5.6748897330    12.0063763950
Ni      2.0477494240     0.7093612090    14.1682640069
Ni      3.2763990780     2.8374448350    14.1694664342
Ni      4.5050487700     4.9655285250    14.1684443623
Ni      4.5050488060     0.7093612090    14.1695004662
Ni      5.7336984610     2.8374448350    14.1685544963
Ni      6.9623481520     4.9655285250    14.1685133228
Ni      6.9623481150     0.7093612090    14.1685281771
Ni      8.1909977700     2.8374448350    14.1685224029
Ni      9.4196474610     4.9655285250    14.1695899340
Ni      3.9004350644     6.0129143043    16.2389286943
Ni      1.4431619114     1.7567308651    16.2387602638
Ni      2.6717700991     3.8848417448    16.2409208678
Ni      6.3576719222     6.0129782697    16.2388414559
Ni      3.9003222331     1.7567333734    16.2408312895
Ni      5.1289591293     3.8848288655    16.2390166840
Ni      8.8150010628     6.0129606852    16.2409728396
Ni      6.3576354600     1.7567714643    16.2390718087
Ni      7.5863332680     3.8849190698    16.2390070605
Cu      2.0591143749     0.6896317499    18.3598398201
Cu      3.2877424181     2.8177057042    18.3629120737
Cu      4.5164478363     4.9458063103    18.3599878999
Cu      4.5163124330     0.6895554592    18.3629464957
Cu      5.7449364214     2.8176233245    18.3601130757
Cu      6.9736663147     4.9457479247    18.3599063084
Cu      6.9737072184     0.6896250089    18.3599065313
Cu      8.2023665102     2.8176990953    18.3595935429
Cu      9.4310638912     4.9458278499    18.3630150725
Cu      2.0477494240     0.7093612090    20.7919712670
Cu      3.2763990780     2.8374448350    20.7961318003
Cu      4.5050487700     4.9655285250    20.7922220263
Cu      4.5050488060     0.7093612090    20.7961900383
Cu      5.7336984610     2.8374448350    20.7923702014
Cu      6.9623481520     4.9655285250    20.7921027242
Cu      6.9623481150     0.7093612090    20.7920887738
Cu      8.1909977700     2.8374448350    20.7916091018
Cu      9.4196474610     4.9655285250    20.7962745486
Cu      0.0033543404    -0.0059786080    23.0302493366
Cu      8.6034563736     2.1225605924    23.0296072634
Cu      9.8327829443     4.2509000715    23.0354710285
Cu      2.4601771415    -0.0058556253    23.0309554140
Cu      3.6894437856     2.1230969040    23.0360577390
Cu      4.9179638534     4.2502266722    23.0321676209
Cu      4.9179668533    -0.0055154363    23.0340986634
Cu      6.1455529981     2.1240485902    23.0335519371
Cu      7.3746474466     4.2505803830    23.0317126076
Cu      1.8386148856     1.0711142538    25.1932291605
Cu      3.0623166729     3.1985389915    25.1933139463
Cu      4.2921731787     5.3333742693    25.1872148858
Cu      4.2948575005     1.0680278777    25.1952236391
Cu      5.5269074071     3.2021160991    25.1650050094
Cu      6.7572415791     5.3326430740    25.1865482673
Cu      6.7547250751     1.0686293666    25.1925375239
Cu      7.9864067783     3.1985535398    25.1901318352
Cu      9.2103687517     5.3273301855    25.1973380569
O       5.8931291336     2.2162554679    29.5136831391
O       5.3990964154     3.5760181565    27.1618269880
O       5.4048282525     3.5631751096    31.9616130855
C       5.4146510299     3.5664678011    29.5498832967
C       5.8821618763     4.2849694445    28.2958633844
C       5.8871648885     4.2596962888    30.8114585502
H       4.3000495031     3.4818220660    29.5454341935
H       6.9856719025     4.3004110466    28.2389484727
H       5.5093127490     5.3056537229    28.2357511138
H       5.5430445024     5.3002950518    30.8439223088
H       6.9959210309     4.2484709625    30.8441860708
H       6.8723447319     2.2749449101    29.5223710423
H       5.7494586390     2.6462964121    27.2118147334
H       5.7491274120     4.0398102056    32.7335980454
86
Step 2 | ATOMIC_POSITIONS (angstrom) | Cartesian Angstrom
Ni      0.0000000000     0.0000000000    10.0000000900
Ni      8.6005476670     2.1280836470    10.0000000900
Ni      9.8291973330     4.2561672950    10.0000000900
Ni      2.4572993330     0.0000000000    10.0000000900
Ni      3.6859490000     2.1280836470    10.0000000900
Ni      4.9145986670     4.2561672950    10.0000000900
Ni      4.9145986670     0.0000000000    10.0000000900
Ni      6.1432483330     2.1280836470    10.0000000900
Ni      7.3718980000     4.2561672950    10.0000000900
Ni      1.6381995390     1.4187224170    12.0063763950
Ni      2.8668492300     3.5468061070    12.0063763950
Ni      4.0954988850     5.6748897330    12.0063763950
Ni      4.0954988480     1.4187224170    12.0063763950
Ni      5.3241485390     3.5468061070    12.0063763950
Ni      6.5527981940     5.6748897330    12.0063763950
Ni      6.5527982300     1.4187224170    12.0063763950
Ni      7.7814479220     3.5468061070    12.0063763950
Ni      9.0100975760     5.6748897330    12.0063763950
Ni      2.0477494240     0.7093612090    14.1682640069
Ni      3.2763990780     2.8374448350    14.1694664342
Ni      4.5050487700     4.9655285250    14.1684443623
Ni      4.5050488060     0.7093612090    14.1695004662
Ni      5.7336984610     2.8374448350    14.1685544963
Ni      6.9623481520     4.9655285250    14.1685133228
Ni      6.9623481150     0.7093612090    14.1685281771
Ni      8.1909977700     2.8374448350    14.1685224029
Ni      9.4196474610     4.9655285250    14.1695899340
Ni      3.9004350644     6.0129143043    16.2389286943
Ni      1.4431619114     1.7567308651    16.2387602638
Ni      2.6717700991     3.8848417448    16.2409208678
Ni      6.3576719222     6.0129782697    16.2388414559
Ni      3.9003222331     1.7567333734    16.2408312895
Ni      5.1289591293     3.8848288655    16.2390166840
Ni      8.8150010628     6.0129606852    16.2409728396
Ni      6.3576354600     1.7567714643    16.2390718087
Ni      7.5863332680     3.8849190698    16.2390070605
Cu      2.0591143749     0.6896317499    18.3598398201
Cu      3.2877424181     2.8177057042    18.3629120737
Cu      4.5164478363     4.9458063103    18.3599878999
Cu      4.5163124330     0.6895554592    18.3629464957
Cu      5.7449364214     2.8176233245    18.3601130757
Cu      6.9736663147     4.9457479247    18.3599063084
Cu      6.9737072184     0.6896250089    18.3599065313
Cu      8.2023665102     2.8176990953    18.3595935429
Cu      9.4310638912     4.9458278499    18.3630150725
Cu      2.0477494240     0.7093612090    20.7919712670
Cu      3.2763990780     2.8374448350    20.7961318003
Cu      4.5050487700     4.9655285250    20.7922220263
Cu      4.5050488060     0.7093612090    20.7961900383
Cu      5.7336984610     2.8374448350    20.7923702014
Cu      6.9623481520     4.9655285250    20.7921027242
Cu      6.9623481150     0.7093612090    20.7920887738
Cu      8.1909977700     2.8374448350    20.7916091018
Cu      9.4196474610     4.9655285250    20.7962745486
Cu      0.0119995947    -0.0213331110    23.0267788989
Cu      8.6113765626     2.1076873548    23.0262923067
Cu      9.8420115138     4.2370130143    23.0350234191
Cu      2.4677494268    -0.0208949240    23.0302758453
Cu      3.6985432701     2.1096007214    23.0376968638
Cu      4.9261344140     4.2357748209    23.0320692581
Cu      4.9269204873    -0.0202483292    23.0306701455
Cu      6.1525931369     2.1116912126    23.0368738993
Cu      7.3821980544     4.2357006542    23.0328674957
Cu      1.8384571138     1.0703599479    25.1967651961
Cu      3.0513408243     3.1962751490    25.1865621492
Cu      4.2838672711     5.3463505679    25.1747400988
Cu      4.2927332207     1.0609047830    25.1933947729
Cu      5.5325360683     3.2094567132    25.1049281609
Cu      6.7663693897     5.3440643528    25.1730991167
Cu      6.7577302659     1.0630173877    25.1933292540
Cu      7.9962918708     3.1963777621    25.1858969352
Cu      9.2099434979     5.3267231397    25.2006353175
O       5.8963755184     2.1961083987    29.5018476116
O       5.3739429226     3.5518393755    27.2000384718
O       5.3912623611     3.5537038634    31.9700767891
C       5.4249022309     3.5630658438    29.5670020606
C       5.8912959391     4.2955949568    28.3139402902
C       5.8893524963     4.2624678238    30.8287003011
H       4.3159632851     3.4839193284    29.5456397074
H       6.9944576585     4.3106654622    28.2487731967
H       5.5038145996     5.3178430508    28.2260254810
H       5.5429474408     5.3186889126    30.8307741819
H       7.0038052864     4.2574526549    30.8271205289
H       6.8664844624     2.2683427053    29.5261645684
H       5.7434382407     2.6319693320    27.2366367925
H       5.7450872595     4.0350306311    32.7366175524
