86
Step 1 | ATOMIC_POSITIONS (angstrom) | Cartesian Angstrom
Ni      1.2286420027     0.7093562278     8.0127033495
Ni      0.0000022775     0.0000000000    10.0192033545
Ni      2.4637570809     1.4224515552    12.0711324136
Ni      1.2397802907     0.7157901456    14.1224527674
Ni      2.4572821841     2.8374249112     8.0127033495
Ni      1.2286424588     2.1280686834    10.0192033545
Ni      3.6926781159     3.5507357065    12.0705045449
Ni      2.4684725529     2.8434817294    14.1212345102
Ni      3.6859592251     4.9655574374     8.0127033495
Ni      2.4573194998     4.2562012095    10.0192033545
Ni      4.9217656993     5.6792526148    12.0709362359
Ni      3.6969571749     4.9715231220    14.1220203985
Ni      3.6859223655     0.7093562278     8.0127033495
Ni      2.4572826402     0.0000000000    10.0192033545
Ni      4.9213653839     1.4225857500    12.0705018304
Ni      3.6967638997     0.7160224207    14.1212311860
Ni      4.9145625469     2.8374249112     8.0127033495
Ni      3.6859228216     2.1280686834    10.0192033545
Ni      6.1503529497     3.5509085402    12.0699854915
Ni      4.9256539069     2.8438285306    14.1202327617
Ni      6.1432395878     4.9655574374     8.0127033495
Ni      4.9145998625     4.2562012095    10.0192033545
Ni      7.3794585706     5.6794809406    12.0703411417
Ni      6.1541912510     4.9717126524    14.1210383973
Ni      6.1432764474     0.7093562278     8.0127033495
Ni      4.9146367221     0.0000000000    10.0192033545
Ni      7.3792576901     1.4227490418    12.0709363656
Ni      6.1539445722     0.7158998925    14.1220190429
Ni      7.3719166287     2.8374249112     8.0127033495
Ni      6.1432769035     2.1280686834    10.0192033545
Ni      8.6083025545     3.5510600089    12.0703431006
Ni      7.3827250276     2.8438303041    14.1210406577
Ni      8.6005936697     4.9655574374     8.0127033495
Ni      7.3719539444     4.2562012095    10.0192033545
Ni      9.8373683369     5.6796094234    12.0707933550
Ni      8.6114301675     4.9718114503    14.1216528753
Cu      0.0003324277     0.0001909401    22.7034719634
Cu      1.2285751920     2.1286060149    22.7061513885
Cu      2.4578447435     4.2573723055    22.7059012943
Cu      2.4577145677    -0.0003268446    22.7061616561
Cu      0.0125988505     0.0072754476    16.2332161102
Cu      2.4696349891     1.4258444684    18.3916416570
Cu      1.2357013061     0.7134308093    20.5525806734
Cu      3.6858079916     2.1280021715    22.7084853044
Cu      1.2416711544     2.1361120827    16.2320324925
Cu      3.6976153977     3.5539780780    18.3918749325
Cu      2.4641651968     2.8415663609    20.5535203685
Cu      4.9148376865     4.2571744960    22.7082103455
Cu      4.9159128270    -0.0001300450    22.7059058638
Cu      2.4707625323     0.0072639821    16.2320277932
Cu      4.9266420746     1.4252400817    18.3918761583
Cu      3.6929504693     0.7132457861    20.5535179654
Cu      6.1442380243     2.1277879409    22.7082050689
Cu      3.6999344853     2.1361584753    16.2305426330
Cu      6.1546566898     3.5533933395    18.3924014903
Cu      4.9213317101     2.8413334155    20.5541973442
Cu      7.3733358851     4.2569997776    22.7080517064
Cu      2.4703615692     4.2639064921    16.2323564383
Cu      4.9258612022     5.6821553099    18.3929147418
Cu      3.6923908304     4.9692750903    20.5536695377
Cu      4.9284376454     4.2641058199    16.2311095738
Cu      7.3827816611     5.6818035922    18.3933612343
Cu      6.1495647783     4.9691763920    20.5547682837
Cu      4.9278325409     0.0074438059    16.2323521866
Cu      7.3838191099     1.4248449337    18.3929204237
Cu      6.1497113719     0.7130663237    20.5536678351
Cu      6.1570438883     2.1360992535    16.2311101997
Cu      8.6119749333     3.5527772255    18.3933657681
Cu      7.3782123231     2.8410932514    20.5547689064
Cu      7.3856113588     4.2640840866    16.2316791967
Cu      9.8400295452     5.6811466362    18.3940799063
Cu      8.6063487219     4.9688802328    20.5550099945
O       7.2211282254     2.3862011842    26.8342161953
O       6.7268079628     3.7561266974    24.4901888398
O       6.7330151157     3.7327140851    29.2822346517
C       6.7426924669     3.7359439385    26.8705460735
C       7.2095711336     4.4562133767    25.6284214919
C       7.2153572001     4.4295892004    28.1318026693
H       5.6281529010     3.6514114023    26.8660922361
H       8.3131501665     4.4695954030    25.5584662945
H       6.8374792316     5.4751423916    25.5556697085
H       6.8712640488     5.4698742881    28.1644912577
H       8.3241051620     4.4180554620    28.1646927347
H       8.2006785087     2.4443302239    26.8425281820
H       7.0802971722     2.8109871635    24.5293734635
H       7.0773586796     4.2094374324    30.0540695626
86
Step 2 | ATOMIC_POSITIONS (angstrom) | Cartesian Angstrom
Ni      1.2286420027     0.7093562278     8.0127033495
Ni      0.0000022775    -0.0000000000    10.0192033545
Ni      2.4637570809     1.4224515552    12.0711324136
Ni      1.2397802907     0.7157901456    14.1224527674
Ni      2.4572821841     2.8374249112     8.0127033495
Ni      1.2286424588     2.1280686834    10.0192033545
Ni      3.6926781159     3.5507357065    12.0705045449
Ni      2.4684725529     2.8434817294    14.1212345102
Ni      3.6859592251     4.9655574374     8.0127033495
Ni      2.4573194998     4.2562012095    10.0192033545
Ni      4.9217656993     5.6792526148    12.0709362359
Ni      3.6969571749     4.9715231220    14.1220203985
Ni      3.6859223655     0.7093562278     8.0127033495
Ni      2.4572826402    -0.0000000000    10.0192033545
Ni      4.9213653839     1.4225857500    12.0705018304
Ni      3.6967638997     0.7160224207    14.1212311860
Ni      4.9145625469     2.8374249112     8.0127033495
Ni      3.6859228216     2.1280686834    10.0192033545
Ni      6.1503529497     3.5509085402    12.0699854915
Ni      4.9256539069     2.8438285306    14.1202327617
Ni      6.1432395878     4.9655574374     8.0127033495
Ni      4.9145998625     4.2562012095    10.0192033545
Ni      7.3794585706     5.6794809406    12.0703411417
Ni      6.1541912510     4.9717126524    14.1210383973
Ni      6.1432764474     0.7093562278     8.0127033495
Ni      4.9146367221    -0.0000000000    10.0192033545
Ni      7.3792576901     1.4227490418    12.0709363656
Ni      6.1539445722     0.7158998925    14.1220190429
Ni      7.3719166287     2.8374249112     8.0127033495
Ni      6.1432769035     2.1280686834    10.0192033545
Ni      8.6083025545     3.5510600089    12.0703431006
Ni      7.3827250276     2.8438303041    14.1210406577
Ni      8.6005936697     4.9655574374     8.0127033495
Ni      7.3719539444     4.2562012095    10.0192033545
Ni      9.8373683369     5.6796094234    12.0707933550
Ni      8.6114301675     4.9718114503    14.1216528753
Cu      0.0003324277     0.0001909401    22.7034719634
Cu      1.2285751920     2.1286060149    22.7061513885
Cu      2.4578447435     4.2573723055    22.7059012943
Cu      2.4577145677    -0.0003268446    22.7061616561
Cu      0.0125988505     0.0072754476    16.2332161102
Cu      2.4696349891     1.4258444684    18.3916416570
Cu      1.2357013061     0.7134308093    20.5525806734
Cu      3.6858079916     2.1280021715    22.7084853044
Cu      1.2416711544     2.1361120827    16.2320324925
Cu      3.6976153977     3.5539780780    18.3918749325
Cu      2.4641651968     2.8415663609    20.5535203685
Cu      4.9148376865     4.2571744960    22.7082103455
Cu      4.9159128270    -0.0001300450    22.7059058638
Cu      2.4707625323     0.0072639821    16.2320277932
Cu      4.9266420746     1.4252400817    18.3918761583
Cu      3.6929504693     0.7132457861    20.5535179654
Cu      6.1442380243     2.1277879409    22.7082050689
Cu      3.6999344853     2.1361584753    16.2305426330
Cu      6.1546566898     3.5533933395    18.3924014903
Cu      4.9213317101     2.8413334155    20.5541973442
Cu      7.3733358851     4.2569997776    22.7080517064
Cu      2.4703615692     4.2639064921    16.2323564383
Cu      4.9258612022     5.6821553099    18.3929147418
Cu      3.6923908304     4.9692750903    20.5536695377
Cu      4.9284376454     4.2641058199    16.2311095738
Cu      7.3827816611     5.6818035922    18.3933612343
Cu      6.1495647783     4.9691763920    20.5547682837
Cu      4.9278325409     0.0074438059    16.2323521866
Cu      7.3838191099     1.4248449337    18.3929204237
Cu      6.1497113719     0.7130663237    20.5536678351
Cu      6.1570438883     2.1360992535    16.2311101997
Cu      8.6119749333     3.5527772255    18.3933657681
Cu      7.3782123231     2.8410932514    20.5547689064
Cu      7.3856113588     4.2640840866    16.2316791967
Cu      9.8400295452     5.6811466362    18.3940799063
Cu      8.6063487219     4.9688802328    20.5550099945
O       7.2243182676     2.3733535617    26.8258596111
O       6.7124478793     3.7454762289    24.5296087138
O       6.7238928447     3.7265640151    29.2874854548
C       6.7465024661     3.7326538588    26.8867608157
C       7.2179838076     4.4675544498    25.6551153828
C       7.2174673972     4.4309945340    28.1443134858
H       5.6397738513     3.6529066760    26.8664037228
H       8.3171775215     4.4763161951    25.5649937420
H       6.8335398433     5.4850575617    25.5500690920
H       6.8710680851     5.4824965173    28.1554130242
H       8.3288402327     4.4242497858    28.1529259637
H       8.1959988708     2.4391443857    26.8442507725
H       7.0765996359     2.8039385855    24.5410230848
H       7.0746482724     4.2062339613    30.0561597305
86
Step 3 | ATOMIC_POSITIONS (angstrom) | Cartesian Angstrom
Ni      1.2286420027     0.7093562278     8.0127033495
Ni      0.0000022775    -0.0000000000    10.0192033545
Ni      2.4637570809     1.4224515552    12.0711324136
Ni      1.2397802907     0.7157901456    14.1224527674
Ni      2.4572821841     2.8374249112     8.0127033495
Ni      1.2286424588     2.1280686834    10.0192033545
Ni      3.6926781159     3.5507357065    12.0705045449
Ni      2.4684725529     2.8434817294    14.1212345102
Ni      3.6859592251     4.9655574374     8.0127033495
Ni      2.4573194998     4.2562012095    10.0192033545
Ni      4.9217656993     5.6792526148    12.0709362359
Ni      3.6969571749     4.9715231220    14.1220203985
Ni      3.6859223655     0.7093562278     8.0127033495
Ni      2.4572826402    -0.0000000000    10.0192033545
Ni      4.9213653839     1.4225857500    12.0705018304
Ni      3.6967638997     0.7160224207    14.1212311860
Ni      4.9145625469     2.8374249112     8.0127033495
Ni      3.6859228216     2.1280686834    10.0192033545
Ni      6.1503529497     3.5509085402    12.0699854915
Ni      4.9256539069     2.8438285306    14.1202327617
Ni      6.1432395878     4.9655574374     8.0127033495
Ni      4.9145998625     4.2562012095    10.0192033545
Ni      7.3794585706     5.6794809406    12.0703411417
Ni      6.1541912510     4.9717126524    14.1210383973
Ni      6.1432764474     0.7093562278     8.0127033495
Ni      4.9146367221    -0.0000000000    10.0192033545
Ni      7.3792576901     1.4227490418    12.0709363656
Ni      6.1539445722     0.7158998925    14.1220190429
Ni      7.3719166287     2.8374249112     8.0127033495
Ni      6.1432769035     2.1280686834    10.0192033545
Ni      8.6083025545     3.5510600089    12.0703431006
Ni      7.3827250276     2.8438303041    14.1210406577
Ni      8.6005936697     4.9655574374     8.0127033495
Ni      7.3719539444     4.2562012095    10.0192033545
Ni      9.8373683369     5.6796094234    12.0707933550
Ni      8.6114301675     4.9718114503    14.1216528753
Cu      0.0003324277     0.0001909401    22.7034719634
Cu      1.2285751920     2.1286060149    22.7061513885
Cu      2.4578447435     4.2573723055    22.7059012943
Cu      2.4577145677    -0.0003268446    22.7061616561
Cu      0.0125988505     0.0072754476    16.2332161102
Cu      2.4696349891     1.4258444684    18.3916416570
Cu      1.2357013061     0.7134308093    20.5525806734
Cu      3.6858079916     2.1280021715    22.7084853044
Cu      1.2416711544     2.1361120827    16.2320324925
Cu      3.6976153977     3.5539780780    18.3918749325
Cu      2.4641651968     2.8415663609    20.5535203685
Cu      4.9148376865     4.2571744960    22.7082103455
Cu      4.9159128270    -0.0001300450    22.7059058638
Cu      2.4707625323     0.0072639821    16.2320277932
Cu      4.9266420746     1.4252400817    18.3918761583
Cu      3.6929504693     0.7132457861    20.5535179654
Cu      6.1442380243     2.1277879409    22.7082050689
Cu      3.6999344853     2.1361584753    16.2305426330
Cu      6.1546566898     3.5533933395    18.3924014903
Cu      4.9213317101     2.8413334155    20.5541973442
Cu      7.3733358851     4.2569997776    22.7080517064
Cu      2.4703615692     4.2639064921    16.2323564383
Cu      4.9258612022     5.6821553099    18.3929147418
Cu      3.6923908304     4.9692750903    20.5536695377
Cu      4.9284376454     4.2641058199    16.2311095738
Cu      7.3827816611     5.6818035922    18.3933612343
Cu      6.1495647783     4.9691763920    20.5547682837
Cu      4.9278325409     0.0074438059    16.2323521866
Cu      7.3838191099     1.4248449337    18.3929204237
Cu      6.1497113719     0.7130663237    20.5536678351
Cu      6.1570438883     2.1360992535    16.2311101997
Cu      8.6119749333     3.5527772255    18.3933657681
Cu      7.3782123231     2.8410932514    20.5547689064
Cu      7.3856113588     4.2640840866    16.2316791967
Cu      9.8400295452     5.6811466362    18.3940799063
Cu      8.6063487219     4.9688802328    20.5550099945
O       7.2200966745     2.3688615645    26.8183785903
O       6.6985851934     3.7296631577    24.5690933865
O       6.7190544116     3.7282776254    29.2947619327
C       6.7526064547     3.7297395715    26.9078492426
C       7.2231751545     4.4727709293    25.6770848629
C       7.2187185884     4.4311060667    28.1576492458
H       5.6536010419     3.6543975259    26.8688299226
H       8.3239457823     4.4872684909    25.5760822765
H       6.8303064864     5.4952984728    25.5480486366
H       6.8730454868     5.4888165519    28.1457454915
H       8.3311284472     4.4324383011    28.1431238038
H       8.1991613724     2.4295237466    26.8470741825
H       7.0694271575     2.8038996293    24.5620994824
H       7.0689416169     4.1990287922    30.0616521889
86
Step 4 | ATOMIC_POSITIONS (angstrom) | Cartesian Angstrom
Ni      1.2286420027     0.7093562278     8.0127033495
Ni      0.0000022775    -0.0000000000    10.0192033545
Ni      2.4637570809     1.4224515552    12.0711324136
Ni      1.2397802907     0.7157901456    14.1224527674
Ni      2.4572821841     2.8374249112     8.0127033495
Ni      1.2286424588     2.1280686834    10.0192033545
Ni      3.6926781159     3.5507357065    12.0705045449
Ni      2.4684725529     2.8434817294    14.1212345102
Ni      3.6859592251     4.9655574374     8.0127033495
Ni      2.4573194998     4.2562012095    10.0192033545
Ni      4.9217656993     5.6792526148    12.0709362359
Ni      3.6969571749     4.9715231220    14.1220203985
Ni      3.6859223655     0.7093562278     8.0127033495
Ni      2.4572826402    -0.0000000000    10.0192033545
Ni      4.9213653839     1.4225857500    12.0705018304
Ni      3.6967638997     0.7160224207    14.1212311860
Ni      4.9145625469     2.8374249112     8.0127033495
Ni      3.6859228216     2.1280686834    10.0192033545
Ni      6.1503529497     3.5509085402    12.0699854915
Ni      4.9256539069     2.8438285306    14.1202327617
Ni      6.1432395878     4.9655574374     8.0127033495
Ni      4.9145998625     4.2562012095    10.0192033545
Ni      7.3794585706     5.6794809406    12.0703411417
Ni      6.1541912510     4.9717126524    14.1210383973
Ni      6.1432764474     0.7093562278     8.0127033495
Ni      4.9146367221    -0.0000000000    10.0192033545
Ni      7.3792576901     1.4227490418    12.0709363656
Ni      6.1539445722     0.7158998925    14.1220190429
Ni      7.3719166287     2.8374249112     8.0127033495
Ni      6.1432769035     2.1280686834    10.0192033545
Ni      8.6083025545     3.5510600089    12.0703431006
Ni      7.3827250276     2.8438303041    14.1210406577
Ni      8.6005936697     4.9655574374     8.0127033495
Ni      7.3719539444     4.2562012095    10.0192033545
Ni      9.8373683369     5.6796094234    12.0707933550
Ni      8.6114301675     4.9718114503    14.1216528753
Cu      0.0003324277     0.0001909401    22.7034719634
Cu      1.2285751920     2.1286060149    22.7061513885
Cu      2.4578447435     4.2573723055    22.7059012943
Cu      2.4577145677    -0.0003268446    22.7061616561
Cu      0.0125988505     0.0072754476    16.2332161102
Cu      2.4696349891     1.4258444684    18.3916416570
Cu      1.2357013061     0.7134308093    20.5525806734
Cu      3.6858079916     2.1280021715    22.7084853044
Cu      1.2416711544     2.1361120827    16.2320324925
Cu      3.6976153977     3.5539780780    18.3918749325
Cu      2.4641651968     2.8415663609    20.5535203685
Cu      4.9148376865     4.2571744960    22.7082103455
Cu      4.9159128270    -0.0001300450    22.7059058638
Cu      2.4707625323     0.0072639821    16.2320277932
Cu      4.9266420746     1.4252400817    18.3918761583
Cu      3.6929504693     0.7132457861    20.5535179654
Cu      6.1442380243     2.1277879409    22.7082050689
Cu      3.6999344853     2.1361584753    16.2305426330
Cu      6.1546566898     3.5533933395    18.3924014903
Cu      4.9213317101     2.8413334155    20.5541973442
Cu      7.3733358851     4.2569997776    22.7080517064
Cu      2.4703615692     4.2639064921    16.2323564383
Cu      4.9258612022     5.6821553099    18.3929147418
Cu      3.6923908304     4.9692750903    20.5536695377
Cu      4.9284376454     4.2641058199    16.2311095738
Cu      7.3827816611     5.6818035922    18.3933612343
Cu      6.1495647783     4.9691763920    20.5547682837
Cu      4.9278325409     0.0074438059    16.2323521866
Cu      7.3838191099     1.4248449337    18.3929204237
Cu      6.1497113719     0.7130663237    20.5536678351
Cu      6.1570438883     2.1360992535    16.2311101997
Cu      8.6119749333     3.5527772255    18.3933657681
Cu      7.3782123231     2.8410932514    20.5547689064
Cu      7.3856113588     4.2640840866    16.2316791967
Cu      9.8400295452     5.6811466362    18.3940799063
Cu      8.6063487219     4.9688802328    20.5550099945
O       7.2269395364     2.3709055068    26.8169038266
O       6.6879320317     3.7236211020    24.5912220831
O       6.7164697112     3.7314489549    29.2967434335
C       6.7561449357     3.7308890880    26.9196899217
C       7.2250249363     4.4753618507    25.6872206491
C       7.2215978429     4.4314658258    28.1663716850
H       5.6624716494     3.6557497106    26.8733543569
H       8.3273976996     4.4973423397    25.5869580540
H       6.8301285207     5.4972494820    25.5509378057
H       6.8756533977     5.4875409875    28.1396931594
H       8.3305290567     4.4391226134    28.1402472907
H       8.1948177841     2.4182396179    26.8495540800
H       7.0647429824     2.8029050029    24.5852086725
H       7.0657549576     4.1951397513    30.0748034515
86
Step 5 | ATOMIC_POSITIONS (angstrom) | Cartesian Angstrom
Ni      1.2286420027     0.7093562278     8.0127033495
Ni      0.0000022775    -0.0000000000    10.0192033545
Ni      2.4637570809     1.4224515552    12.0711324136
Ni      1.2397802907     0.7157901456    14.1224527674
Ni      2.4572821841     2.8374249112     8.0127033495
Ni      1.2286424588     2.1280686834    10.0192033545
Ni      3.6926781159     3.5507357065    12.0705045449
Ni      2.4684725529     2.8434817294    14.1212345102
Ni      3.6859592251     4.9655574374     8.0127033495
Ni      2.4573194998     4.2562012095    10.0192033545
Ni      4.9217656993     5.6792526148    12.0709362359
Ni      3.6969571749     4.9715231220    14.1220203985
Ni      3.6859223655     0.7093562278     8.0127033495
Ni      2.4572826402    -0.0000000000    10.0192033545
Ni      4.9213653839     1.4225857500    12.0705018304
Ni      3.6967638997     0.7160224207    14.1212311860
Ni      4.9145625469     2.8374249112     8.0127033495
Ni      3.6859228216     2.1280686834    10.0192033545
Ni      6.1503529497     3.5509085402    12.0699854915
Ni      4.9256539069     2.8438285306    14.1202327617
Ni      6.1432395878     4.9655574374     8.0127033495
Ni      4.9145998625     4.2562012095    10.0192033545
Ni      7.3794585706     5.6794809406    12.0703411417
Ni      6.1541912510     4.9717126524    14.1210383973
Ni      6.1432764474     0.7093562278     8.0127033495
Ni      4.9146367221    -0.0000000000    10.0192033545
Ni      7.3792576901     1.4227490418    12.0709363656
Ni      6.1539445722     0.7158998925    14.1220190429
Ni      7.3719166287     2.8374249112     8.0127033495
Ni      6.1432769035     2.1280686834    10.0192033545
Ni      8.6083025545     3.5510600089    12.0703431006
Ni      7.3827250276     2.8438303041    14.1210406577
Ni      8.6005936697     4.9655574374     8.0127033495
Ni      7.3719539444     4.2562012095    10.0192033545
Ni      9.8373683369     5.6796094234    12.0707933550
Ni      8.6114301675     4.9718114503    14.1216528753
Cu      0.0003324277     0.0001909401    22.7034719634
Cu      1.2285751920     2.1286060149    22.7061513885
Cu      2.4578447435     4.2573723055    22.7059012943
Cu      2.4577145677    -0.0003268446    22.7061616561
Cu      0.0125988505     0.0072754476    16.2332161102
Cu      2.4696349891     1.4258444684    18.3916416570
Cu      1.2357013061     0.7134308093    20.5525806734
Cu      3.6858079916     2.1280021715    22.7084853044
Cu      1.2416711544     2.1361120827    16.2320324925
Cu      3.6976153977     3.5539780780    18.3918749325
Cu      2.4641651968     2.8415663609    20.5535203685
Cu      4.9148376865     4.2571744960    22.7082103455
Cu      4.9159128270    -0.0001300450    22.7059058638
Cu      2.4707625323     0.0072639821    16.2320277932
Cu      4.9266420746     1.4252400817    18.3918761583
Cu      3.6929504693     0.7132457861    20.5535179654
Cu      6.1442380243     2.1277879409    22.7082050689
Cu      3.6999344853     2.1361584753    16.2305426330
Cu      6.1546566898     3.5533933395    18.3924014903
Cu      4.9213317101     2.8413334155    20.5541973442
Cu      7.3733358851     4.2569997776    22.7080517064
Cu      2.4703615692     4.2639064921    16.2323564383
Cu      4.9258612022     5.6821553099    18.3929147418
Cu      3.6923908304     4.9692750903    20.5536695377
Cu      4.9284376454     4.2641058199    16.2311095738
Cu      7.3827816611     5.6818035922    18.3933612343
Cu      6.1495647783     4.9691763920    20.5547682837
Cu      4.9278325409     0.0074438059    16.2323521866
Cu      7.3838191099     1.4248449337    18.3929204237
Cu      6.1497113719     0.7130663237    20.5536678351
Cu      6.1570438883     2.1360992535    16.2311101997
Cu      8.6119749333     3.5527772255    18.3933657681
Cu      7.3782123231     2.8410932514    20.5547689064
Cu      7.3856113588     4.2640840866    16.2316791967
Cu      9.8400295452     5.6811466362    18.3940799063
Cu      8.6063487219     4.9688802328    20.5550099945
O       7.2282167208     2.3768907939    26.8188459787
O       6.6743977512     3.7166471379    24.6150163823
O       6.7163271506     3.7409717868    29.3074658505
C       6.7632850903     3.7349210575    26.9316923260
C       7.2276282218     4.4784861866    25.6981567391
C       7.2275162779     4.4324259395    28.1758268133
H       5.6730606396     3.6574701780    26.8835004660
H       8.3290389772     4.5135311629    25.6049993998
H       6.8310943812     5.4964256578    25.5600870303
H       6.8796697583     5.4826698827    28.1326755481
H       8.3299973223     4.4493604930    28.1416775817
H       8.1988159253     2.3994994105    26.8545585868
H       7.0565691605     2.8033549711    24.6269577223
H       7.0587469874     4.1864431802    30.0954383130
86
Step 6 | ATOMIC_POSITIONS (angstrom) | Cartesian Angstrom
Ni      1.2286420027     0.7093562278     8.0127033495
Ni      0.0000022775    -0.0000000000    10.0192033545
Ni      2.4637570809     1.4224515552    12.0711324136
Ni      1.2397802907     0.7157901456    14.1224527674
Ni      2.4572821841     2.8374249112     8.0127033495
Ni      1.2286424588     2.1280686834    10.0192033545
Ni      3.6926781159     3.5507357065    12.0705045449
Ni      2.4684725529     2.8434817294    14.1212345102
Ni      3.6859592251     4.9655574374     8.0127033495
Ni      2.4573194998     4.2562012095    10.0192033545
Ni      4.9217656993     5.6792526148    12.0709362359
Ni      3.6969571749     4.9715231220    14.1220203985
Ni      3.6859223655     0.7093562278     8.0127033495
Ni      2.4572826402    -0.0000000000    10.0192033545
Ni      4.9213653839     1.4225857500    12.0705018304
Ni      3.6967638997     0.7160224207    14.1212311860
Ni      4.9145625469     2.8374249112     8.0127033495
Ni      3.6859228216     2.1280686834    10.0192033545
Ni      6.1503529497     3.5509085402    12.0699854915
Ni      4.9256539069     2.8438285306    14.1202327617
Ni      6.1432395878     4.9655574374     8.0127033495
Ni      4.9145998625     4.2562012095    10.0192033545
Ni      7.3794585706     5.6794809406    12.0703411417
Ni      6.1541912510     4.9717126524    14.1210383973
Ni      6.1432764474     0.7093562278     8.0127033495
Ni      4.9146367221    -0.0000000000    10.0192033545
Ni      7.3792576901     1.4227490418    12.0709363656
Ni      6.1539445722     0.7158998925    14.1220190429
Ni      7.3719166287     2.8374249112     8.0127033495
Ni      6.1432769035     2.1280686834    10.0192033545
Ni      8.6083025545     3.5510600089    12.0703431006
Ni      7.3827250276     2.8438303041    14.1210406577
Ni      8.6005936697     4.9655574374     8.0127033495
Ni      7.3719539444     4.2562012095    10.0192033545
Ni      9.8373683369     5.6796094234    12.0707933550
Ni      8.6114301675     4.9718114503    14.1216528753
Cu      0.0003324277     0.0001909401    22.7034719634
Cu      1.2285751920     2.1286060149    22.7061513885
Cu      2.4578447435     4.2573723055    22.7059012943
Cu      2.4577145677    -0.0003268446    22.7061616561
Cu      0.0125988505     0.0072754476    16.2332161102
Cu      2.4696349891     1.4258444684    18.3916416570
Cu      1.2357013061     0.7134308093    20.5525806734
Cu      3.6858079916     2.1280021715    22.7084853044
Cu      1.2416711544     2.1361120827    16.2320324925
Cu      3.6976153977     3.5539780780    18.3918749325
Cu      2.4641651968     2.8415663609    20.5535203685
Cu      4.9148376865     4.2571744960    22.7082103455
Cu      4.9159128270    -0.0001300450    22.7059058638
Cu      2.4707625323     0.0072639821    16.2320277932
Cu      4.9266420746     1.4252400817    18.3918761583
Cu      3.6929504693     0.7132457861    20.5535179654
Cu      6.1442380243     2.1277879409    22.7082050689
Cu      3.6999344853     2.1361584753    16.2305426330
Cu      6.1546566898     3.5533933395    18.3924014903
Cu      4.9213317101     2.8413334155    20.5541973442
Cu      7.3733358851     4.2569997776    22.7080517064
Cu      2.4703615692     4.2639064921    16.2323564383
Cu      4.9258612022     5.6821553099    18.3929147418
Cu      3.6923908304     4.9692750903    20.5536695377
Cu      4.9284376454     4.2641058199    16.2311095738
Cu      7.3827816611     5.6818035922    18.3933612343
Cu      6.1495647783     4.9691763920    20.5547682837
Cu      4.9278325409     0.0074438059    16.2323521866
Cu      7.3838191099     1.4248449337    18.3929204237
Cu      6.1497113719     0.7130663237    20.5536678351
Cu      6.1570438883     2.1360992535    16.2311101997
Cu      8.6119749333     3.5527772255    18.3933657681
Cu      7.3782123231     2.8410932514    20.5547689064
Cu      7.3856113588     4.2640840866    16.2316791967
Cu      9.8400295452     5.6811466362    18.3940799063
Cu      8.6063487219     4.9688802328    20.5550099945
O       7.2314421592     2.3833037405    26.8266158517
O       6.6649874117     3.7149955123    24.6321863064
O       6.7172072714     3.7523213838    29.3199077319
C       6.7740301770     3.7412871310    26.9419437153
C       7.2263372300     4.4802135684    25.7064980070
C       7.2329496587     4.4342161658    28.1867611188
H       5.6814096844     3.6600748858    26.9003772831
H       8.3291108871     4.5329893789    25.6267209634
H       6.8319085579     5.4943923352    25.5769442923
H       6.8837269135     5.4768566239    28.1277905307
H       8.3348472757     4.4613081104    28.1520540066
H       8.2047611997     2.3752851669    26.8623374624
H       7.0448917247     2.8031761681    24.6860553782
H       7.0519884385     4.1784088205    30.1274551678
86
Step 7 | ATOMIC_POSITIONS (angstrom) | Cartesian Angstrom
Ni      1.2286420027     0.7093562278     8.0127033495
Ni      0.0000022775    -0.0000000000    10.0192033545
Ni      2.4637570809     1.4224515552    12.0711324136
Ni      1.2397802907     0.7157901456    14.1224527674
Ni      2.4572821841     2.8374249112     8.0127033495
Ni      1.2286424588     2.1280686834    10.0192033545
Ni      3.6926781159     3.5507357065    12.0705045449
Ni      2.4684725529     2.8434817294    14.1212345102
Ni      3.6859592251     4.9655574374     8.0127033495
Ni      2.4573194998     4.2562012095    10.0192033545
Ni      4.9217656993     5.6792526148    12.0709362359
Ni      3.6969571749     4.9715231220    14.1220203985
Ni      3.6859223655     0.7093562278     8.0127033495
Ni      2.4572826402    -0.0000000000    10.0192033545
Ni      4.9213653839     1.4225857500    12.0705018304
Ni      3.6967638997     0.7160224207    14.1212311860
Ni      4.9145625469     2.8374249112     8.0127033495
Ni      3.6859228216     2.1280686834    10.0192033545
Ni      6.1503529497     3.5509085402    12.0699854915
Ni      4.9256539069     2.8438285306    14.1202327617
Ni      6.1432395878     4.9655574374     8.0127033495