86
Step 1 | ATOMIC_POSITIONS (angstrom) | Cartesian Angstrom
Ni      1.2286420027     0.7093562278     8.0127033495
Ni      0.0000022775     0.0000000000    10.0192033545
Ni      2.4637570809     1.4224515552    12.0711324136
Ni      1.2397802907     0.7157901456    14.1224527674
Ni      2.4572821841     2.8374249112     8.0127033495
Ni      1.2286424588     2.1280686834    10.0192033545
Ni      3.6926781159     3.5507357065    12.0705045449
Ni      2.4684725529     2.8434817294    14.1212345102
Ni      3.6859592251     4.9655574374     8.0127033495
Ni      2.4573194998     4.2562012095    10.0192033545
Ni      4.9217656993     5.6792526148    12.0709362359
Ni      3.6969571749     4.9715231220    14.1220203985
Ni      3.6859223655     0.7093562278     8.0127033495
Ni      2.4572826402     0.0000000000    10.0192033545
Ni      4.9213653839     1.4225857500    12.0705018304
Ni      3.6967638997     0.7160224207    14.1212311860
Ni      4.9145625469     2.8374249112     8.0127033495
Ni      3.6859228216     2.1280686834    10.0192033545
Ni      6.1503529497     3.5509085402    12.0699854915
Ni      4.9256539069     2.8438285306    14.1202327617
Ni      6.1432395878     4.9655574374     8.0127033495
Ni      4.9145998625     4.2562012095    10.0192033545
Ni      7.3794585706     5.6794809406    12.0703411417
Ni      6.1541912510     4.9717126524    14.1210383973
Ni      6.1432764474     0.7093562278     8.0127033495
Ni      4.9146367221     0.0000000000    10.0192033545
Ni      7.3792576901     1.4227490418    12.0709363656
Ni      6.1539445722     0.7158998925    14.1220190429
Ni      7.3719166287     2.8374249112     8.0127033495
Ni      6.1432769035     2.1280686834    10.0192033545
Ni      8.6083025545     3.5510600089    12.0703431006
Ni      7.3827250276     2.8438303041    14.1210406577
Ni      8.6005936697     4.9655574374     8.0127033495
Ni      7.3719539444     4.2562012095    10.0192033545
Ni      9.8373683369     5.6796094234    12.0707933550
Ni      8.6114301675     4.9718114503    14.1216528753
Cu      0.0001502178     0.0000851726    22.7031859818
Cu      1.2211698134     2.1281841745    22.7000226298
Cu      2.4545186089     4.2649116737    22.6986106948
Cu      2.4542203823    -0.0080243060    22.6989109489
Cu      0.0125988505     0.0072754476    16.2332161102
Cu      2.4696349891     1.4258444684    18.3916416570
Cu      1.2357013061     0.7134308093    20.5525806734
Cu      3.6934382834     2.1385840695    22.6245202645
Cu      1.2416711544     2.1361120827    16.2320324925
Cu      3.6976153977     3.5539780780    18.3918749325
Cu      2.4641651968     2.8415663609    20.5535203685
Cu      4.9186052442     4.2631875768    22.7012523065
Cu      4.9196716496    -0.0062471515    22.7006584153
Cu      2.4707625323     0.0072639821    16.2320277932
Cu      4.9266420746     1.4252400817    18.3918761583
Cu      3.6929504693     0.7132457861    20.5535179654
Cu      6.1503319023     2.1273917726    22.7034693059
Cu      3.6999344853     2.1361584753    16.2305426330
Cu      6.1546566898     3.5533933395    18.3924014903
Cu      4.9213317101     2.8413334155    20.5541973442
Cu      7.3730863203     4.2572637153    22.7073638742
Cu      2.4703615692     4.2639064921    16.2323564383
Cu      4.9258612022     5.6821553099    18.3929147418
Cu      3.6923908304     4.9692750903    20.5536695377
Cu      4.9284376454     4.2641058199    16.2311095738
Cu      7.3827816611     5.6818035922    18.3933612343
Cu      6.1495647783     4.9691763920    20.5547682837
Cu      4.9278325409     0.0074438059    16.2323521866
Cu      7.3838191099     1.4248449337    18.3929204237
Cu      6.1497113719     0.7130663237    20.5536678351
Cu      6.1570438883     2.1360992535    16.2311101997
Cu      8.6119749333     3.5527772255    18.3933657681
Cu      7.3782123231     2.8410932514    20.5547689064
Cu      7.3856113588     4.2640840866    16.2316791967
Cu      9.8400295452     5.6811466362    18.3940799063
Cu      8.6063487219     4.9688802328    20.5550099945
O       3.9890615541     0.7881676937    26.8342479392
O       3.4907758750     2.1469643935    24.5397498751
O       3.5009208956     2.1345889398    29.2820577847
C       3.5103276735     2.1370970435    26.8695968658
C       3.9784708713     2.8598457820    25.6221557818
C       3.9835244914     2.8318046854    28.1317967060
H       2.3960984842     2.0533381986    26.8660868221
H       5.0817214964     2.8716639388    25.5582579576
H       3.6054998704     3.8773726171    25.5558124299
H       3.6392247185     3.8717920487    28.1645154694
H       5.0920339542     2.8199876283    28.1647285379
H       4.9686786041     0.8462235113    26.8425537623
H       3.8459545801     1.2127521349    24.5353084216
H       3.8453261940     2.6113867449    30.0540703716
