86
Step 1 | ATOMIC_POSITIONS (angstrom) | Cartesian Angstrom
Ni      0.0000000000     0.0000000000    10.0000000900
Ni      8.6005476670     2.1280836470    10.0000000900
Ni      9.8291973330     4.2561672950    10.0000000900
Ni      2.4572993330     0.0000000000    10.0000000900
Ni      3.6859490000     2.1280836470    10.0000000900
Ni      4.9145986670     4.2561672950    10.0000000900
Ni      4.9145986670     0.0000000000    10.0000000900
Ni      6.1432483330     2.1280836470    10.0000000900
Ni      7.3718980000     4.2561672950    10.0000000900
Ni      1.6381995390     1.4187224170    12.0063763950
Ni      2.8668492300     3.5468061070    12.0063763950
Ni      4.0954988850     5.6748897330    12.0063763950
Ni      4.0954988480     1.4187224170    12.0063763950
Ni      5.3241485390     3.5468061070    12.0063763950
Ni      6.5527981940     5.6748897330    12.0063763950
Ni      6.5527982300     1.4187224170    12.0063763950
Ni      7.7814479220     3.5468061070    12.0063763950
Ni      9.0100975760     5.6748897330    12.0063763950
Ni      2.0477494240     0.7093612090    14.0127530410
Ni      3.2763990780     2.8374448350    14.0127530410
Ni      4.5050487700     4.9655285250    14.0127530410
Ni      4.5050488060     0.7093612090    14.0127530410
Ni      5.7336984610     2.8374448350    14.0127530410
Ni      6.9623481520     4.9655285250    14.0127530410
Ni      6.9623481150     0.7093612090    14.0127530410
Ni      8.1909977700     2.8374448350    14.0127530410
Ni      9.4196474610     4.9655285250    14.0127530410
Ni      0.2219535440    -0.3844348150    16.0346322610
Ni      8.8225203380     1.7436790770    16.0347677870
Ni     10.0511134640     3.8717235960    16.0347600380
Ni      2.6792792770    -0.3844068560    16.0347600380
Ni      3.9079067200     1.7436614180    16.0347555120
Ni      5.1365311080     3.8717690310    16.0346226390
Ni      5.1365164550    -0.3844362570    16.0347677870
Ni      6.3652073280     1.7436393910    16.0346221070
Ni      7.5938385560     3.8717351570    16.0347555120
Cu      2.0723744710     0.6666908500    18.1188401140
Cu      3.3010364020     2.7947772280    18.1188294380
Cu      4.5296848840     4.9228575240    18.1186684400
Cu      4.5296771200     0.6666970110    18.1188367610
Cu      5.7583325920     2.7947772670    18.1186160230
Cu      6.9869807220     4.9228581720    18.1188294380
Cu      6.9869802900     0.6666970300    18.1186522440
Cu      8.2156318920     2.7947839910    18.1188367610
Cu      9.4442885520     4.9228674280    18.1188401140
Cu      2.0477494240     0.7093612090    20.5305373300
Cu      3.2763990780     2.8374448350    20.5305290830
Cu      4.5050487700     4.9655285250    20.5303270790
Cu      4.5050488060     0.7093612090    20.5305312910
Cu      5.7336984610     2.8374448350    20.5302848030
Cu      6.9623481520     4.9655285250    20.5305290830
Cu      6.9623481150     0.7093612090    20.5303102470
Cu      8.1909977700     2.8374448350    20.5305312910
Cu      9.4196474610     4.9655285250    20.5305373300
Cu      0.1996576410    -0.3458171780    22.6496925520
Cu      8.8002014820     1.7822648550    22.6499310210
Cu     10.0288585330     3.9103492740    22.6499306530
Cu      2.6569559250    -0.3458206820    22.6499306530
Cu      3.8856048760     1.7822645930    22.6499270560
Cu      5.1142599260     3.9103438500    22.6496806750
Cu      5.1142596180    -0.3458146710    22.6499310210
Cu      6.3429051830     1.7822678380    22.6496760870
Cu      7.5715581480     3.9103507070    22.6499270560
Cu      2.6490976166     1.0675871637    24.7101746674
Cu      3.8653973104     3.1972914728    24.6760403740
Cu      5.1020935999     5.3411218461    24.6796563351
Cu      5.1002551599     1.0479910050    24.6672679867
Cu      6.3425000843     3.2019258248    24.7620226507
Cu      7.5739458273     5.3371226760    24.6899492048
Cu      7.5751946326     1.0539762967    24.6833557918
Cu      8.8110248762     3.1957666030    24.6912284333
Cu     10.0228509346     5.3245401040    24.7284661541
O       6.5725443063     1.7920219702    29.2011739669
O       6.0633654155     2.9829014643    26.8335853684
O       5.9884460755     3.3508044825    31.6072253818
C       6.1157382286     3.1594024075    29.2229427737
C       6.5049941417     3.8375418181    27.9097059421
C       6.5913555221     3.9276964656    30.4452407986
H       5.0194091236     3.0761971073    29.2670298831
H       7.5948761168     3.9990842302    27.8329318779
H       6.0012620142     4.8011908369    27.7616814364
H       6.3051398693     4.9890388859    30.3368784975
H       7.6971372256     3.8877945580    30.4994072247
H       7.5451464970     1.7976707705    29.2724666365
H       6.2978736040     2.0578025584    27.0750822259
H       6.2791744771     3.8543831903    32.3859769888
