86
Step 1 | ATOMIC_POSITIONS (angstrom) | Cartesian Angstrom
Ni      1.2286390390     0.7093535490     9.0128649340
Ni      2.4572760100     2.8374169220     9.0128649340
Ni      3.6859498400     4.9655441370     9.0128649340
Ni      3.6859144660     0.7093535490     9.0128649340
Ni      4.9145514370     2.8374169220     9.0128649340
Ni      6.1432252670     4.9655441370     9.0128649340
Ni      6.1432636120     0.7093535490     9.0128649340
Ni      7.3719005830     2.8374169220     9.0128649340
Ni      8.6005744130     4.9655441370     9.0128649340
Ni      0.0000019230    -0.0000011100    11.0189462060
Ni      1.2286511800     2.1280835430    11.0189462060
Ni      2.4573004370     4.2561681970    11.0189462060
Ni      2.4573019230    -0.0000011100    11.0189462060
Ni      3.6859511800     2.1280835430    11.0189462060
Ni      4.9146004370     4.2561681970    11.0189462060
Ni      4.9146019230    -0.0000011100    11.0189462060
Ni      6.1432511800     2.1280835430    11.0189462060
Ni      7.3719004370     4.2561681970    11.0189462060
Ni      6.1438734720     3.5471661970    12.9811357840
Ni      7.3724754910     5.6753002550    12.9812984850
Ni      8.6011926510     3.5471005460    12.9812984900
Ni      4.9154250810     1.4190473550    12.9815171700
Ni      3.6866443280     3.5473571860    12.9815172510
Ni      9.8297970970     5.6752360910    12.9815758290
Ni      7.3727178060     1.4189936100    12.9817330850
Ni      4.9152433530     5.6754625070    12.9817330970
Ni      2.4581886360     1.4192341220    12.9820006980
Ni      1.2300181510     0.7101493710    14.9469571230
Ni      3.6871547190     0.7105440160    14.9472125230
Ni      2.4589274570     2.8378950180    14.9472126230
Ni      3.6873641450     4.9659340110    14.9472361150
Ni      6.1443087910     0.7103827880    14.9472361760
Ni      4.9159520710     2.8382250840    14.9474526980
Ni      6.1444225000     4.9663508800    14.9474869000
Ni      7.3731982530     2.8380497740    14.9474870240
Ni      8.6015404070     4.9661014020    14.9475110630
Cu      0.0002371770     0.0001345310    17.0095566530
Cu      2.4575439700     0.0002605240    17.0097303500
Cu      1.2289989080     2.1281620840    17.0097304640
Cu      2.4574811020     4.2563400380    17.0097910800
Cu      4.9148412440     0.0000691580    17.0097911200
Cu      3.6862398640     2.1282500140    17.0099390000
Cu      4.9147998590     4.2563702540    17.0100125200
Cu      6.1435260460     2.1281549480    17.0100126890
Cu      7.3720625000     4.2562615990    17.0100868050
Cu      2.4590516375     1.4200407780    19.0940952145
Cu      4.9159799982     5.6757475584    19.0952439787
Cu      7.3733512075     1.4196068156    19.0951497336
Cu      3.6874644282     3.5471120651    19.0943148790
Cu      4.9159045249     1.4200028704    19.0945105630
Cu      7.3732714687     5.6754038942    19.0955758510
Cu      8.6018251663     3.5474986566    19.0950612660
Cu      9.8305426950     5.6756770429    19.0955554068
Cu      6.1447156365     3.5475342464    19.0952307525
Cu      3.6882393839     4.9660968101    21.1872237828
Cu      6.1451175923     0.7110828374    21.1869209149
Cu      1.2309688805     0.7108274213    21.1873125156
Cu      2.4596641171     2.8382904033    21.1880174669
Cu      3.6878235021     0.7115881031    21.1881660133
Cu      8.6030017693     4.9665485852    21.1867853014
Cu      7.3738748115     2.8390570615    21.1873809291
Cu      6.1454388265     4.9661899256    21.1869470538
Cu      4.9158862315     2.8382289819    21.1876270780
Cu      3.6884005183     2.1356349362    23.2292614220
Cu      1.2251447469     2.1286504605    23.2329076936
Cu      2.4566983467    -0.0038496901    23.2335001547
Cu      4.9185412564     4.2619885964    23.2318912694
Cu      6.1494043224     2.1278813638    23.2328353573
Cu      0.0008906550     0.0006227625    23.2357975915
Cu      2.4555348845     4.2624425294    23.2324321456
Cu      4.9188813951    -0.0044527407    23.2333502941
Cu      7.3726836940     4.2570025109    23.2371929705
O       3.6547802133     2.1935915880    25.2725732850
H       4.0039775897     1.2718579222    25.3354650198
H       5.2409400697     2.9228526908    26.3677933985
H       3.7650315968     3.9275252837    26.3645695858
C       4.1374087573     2.9091473095    26.4217862927
O       4.1478757361     0.8386794689    27.6425856008
H       5.1281037340     0.8973099299    27.6505671619
C       3.6702367813     2.1882153427    27.6776293578
H       2.5548497578     2.1040791342    27.6741249557
C       4.1422587451     2.8826208577    28.9399006336
H       3.7983331879     3.9224460501    28.9726642183
H       5.2515524432     2.8706074111    28.9727216225
O       3.6601489374     2.1855203962    30.0901977502
H       4.0043202472     2.6620296024    30.8618899088
