86
Step 1 | ATOMIC_POSITIONS (angstrom) | Cartesian Angstrom
Ni      0.0000000000     0.0000000000    10.0000000900
Ni      8.6005476670     2.1280836470    10.0000000900
Ni      9.8291973330     4.2561672950    10.0000000900
Ni      2.4572993330     0.0000000000    10.0000000900
Ni      3.6859490000     2.1280836470    10.0000000900
Ni      4.9145986670     4.2561672950    10.0000000900
Ni      4.9145986670     0.0000000000    10.0000000900
Ni      6.1432483330     2.1280836470    10.0000000900
Ni      7.3718980000     4.2561672950    10.0000000900
Ni      1.6381995390     1.4187224170    12.0063763950
Ni      2.8668492300     3.5468061070    12.0063763950
Ni      4.0954988850     5.6748897330    12.0063763950
Ni      4.0954988480     1.4187224170    12.0063763950
Ni      5.3241485390     3.5468061070    12.0063763950
Ni      6.5527981940     5.6748897330    12.0063763950
Ni      6.5527982300     1.4187224170    12.0063763950
Ni      7.7814479220     3.5468061070    12.0063763950
Ni      9.0100975760     5.6748897330    12.0063763950
Ni      2.0477494240     0.7093612090    14.1640614080
Ni      3.2763990780     2.8374448350    14.1640729510
Ni      4.5050487700     4.9655285250    14.1640397250
Ni      4.5050488060     0.7093612090    14.1640710440
Ni      5.7336984610     2.8374448350    14.1640423650
Ni      6.9623481520     4.9655285250    14.1640482520
Ni      6.9623481150     0.7093612090    14.1640292020
Ni      8.1909977700     2.8374448350    14.1640591990
Ni      9.4196474610     4.9655285250    14.1640542750
Ni      0.0000000000     0.0000000000    16.3281461600
Ni      8.6005476670     2.1280836470    16.3282017120
Ni      9.8291973330     4.2561672950    16.3281943160
Ni      2.4572993330     0.0000000000    16.3281936330
Ni      3.6859490000     2.1280836470    16.3282178260
Ni      4.9145986670     4.2561672950    16.3281642570
Ni      4.9145986670     0.0000000000    16.3282096040
Ni      6.1432483330     2.1280836470    16.3281694310
Ni      7.3718980000     4.2561672950    16.3281777140
Cu      1.6381995390     1.4187224170    18.5439570380
Cu      2.8668492300     3.5468061070    18.5439633170
Cu      4.0954988850     5.6748897330    18.5439058500
Cu      4.0954988480     1.4187224170    18.5439876690
Cu      5.3241485390     3.5468061070    18.5439225600
Cu      6.5527981940     5.6748897330    18.5439394360
Cu      6.5527982300     1.4187224170    18.5439267690
Cu      7.7814479220     3.5468061070    18.5439293780
Cu      9.0100975760     5.6748897330    18.5439799570
Cu      2.0477494240     0.7093612090    20.7902126970
Cu      3.2763990780     2.8374448350    20.7902464750
Cu      4.5050487700     4.9655285250    20.7901894570
Cu      4.5050488060     0.7093612090    20.7902646290
Cu      5.7336984610     2.8374448350    20.7902077890
Cu      6.9623481520     4.9655285250    20.7902013200
Cu      6.9648115003     0.7093612090    20.7901985810
Cu      8.1909977700     2.8374448350    20.7901995150
Cu      9.4196474610     4.9655285250    20.7902560580
Cu      0.0033160944    -0.0059429925    23.0257379043
Cu      8.6033589628     2.1224462698    23.0260313533
Cu      9.8328649546     4.2508598477    23.0267871125
Cu      2.4601691610    -0.0058985105    23.0267408194
Cu      3.6896207639     2.1229978174    23.0278645265
Cu      4.9182048163     4.2498026037    23.0282626214
Cu      4.9180642255    -0.0054781153    23.0258963889
Cu      6.1455634332     2.1240013020    23.0292373769
Cu      7.3746070253     4.2504528668    23.0276679815
Cu      1.8391164674     1.0698900140    25.1888412135
Cu      3.0625646357     3.1978389244    25.1844813383
Cu      4.2933211955     5.3324327577    25.1829128903
Cu      4.2948199020     1.0653623117    25.1851120851
Cu      5.5271341105     3.2041205884    25.1504376340
Cu      6.7574926045     5.3318353767    25.1823119775
Cu      6.7565372306     1.0655662228    25.1855229433
Cu      7.9879172875     3.1975674724    25.1848852951
Cu      9.2112025518     5.3264029506    25.1888608785
O       5.9333731843     1.9993121218    29.4559198406
O       5.4398034958     3.3573054817    27.1167960209
O       5.4451250483     3.3461080031    31.9037395134
C       5.4547872470     3.3491381000    29.4918998866
C       5.9222383441     4.0692403530    28.2388783382
C       5.9275256822     4.0428117668    30.7536744976
H       4.3403199350     3.2647674154    29.4877341420
H       7.0259210424     4.0832759074    28.1808482663
H       5.5496253671     5.0886862687    28.1779143620
H       5.5833532836     5.0832337977    30.7861956504
H       7.0362103911     4.0314210424    30.7864463625
H       6.9126992411     2.0578272886    29.4645594767
H       5.7895820716     2.4290137809    27.1538365130
H       5.7894401838     3.8227731911    32.6758633933
86
Step 2 | ATOMIC_POSITIONS (angstrom) | Cartesian Angstrom
Ni      0.0000000000     0.0000000000    10.0000000900
Ni      8.6005476670     2.1280836470    10.0000000900
Ni      9.8291973330     4.2561672950    10.0000000900
Ni      2.4572993330     0.0000000000    10.0000000900
Ni      3.6859490000     2.1280836470    10.0000000900
Ni      4.9145986670     4.2561672950    10.0000000900
Ni      4.9145986670     0.0000000000    10.0000000900
Ni      6.1432483330     2.1280836470    10.0000000900
Ni      7.3718980000     4.2561672950    10.0000000900
Ni      1.6381995390     1.4187224170    12.0063763950
Ni      2.8668492300     3.5468061070    12.0063763950
Ni      4.0954988850     5.6748897330    12.0063763950
Ni      4.0954988480     1.4187224170    12.0063763950
Ni      5.3241485390     3.5468061070    12.0063763950
Ni      6.5527981940     5.6748897330    12.0063763950
Ni      6.5527982300     1.4187224170    12.0063763950
Ni      7.7814479220     3.5468061070    12.0063763950
Ni      9.0100975760     5.6748897330    12.0063763950
Ni      2.0477494240     0.7093612090    14.1640614080
Ni      3.2763990780     2.8374448350    14.1640729510
Ni      4.5050487700     4.9655285250    14.1640397250
Ni      4.5050488060     0.7093612090    14.1640710440
Ni      5.7336984610     2.8374448350    14.1640423650
Ni      6.9623481520     4.9655285250    14.1640482520
Ni      6.9623481150     0.7093612090    14.1640292020
Ni      8.1909977700     2.8374448350    14.1640591990
Ni      9.4196474610     4.9655285250    14.1640542750
Ni      0.0000000000     0.0000000000    16.3281461600
Ni      8.6005476670     2.1280836470    16.3282017120
Ni      9.8291973330     4.2561672950    16.3281943160
Ni      2.4572993330     0.0000000000    16.3281936330
Ni      3.6859490000     2.1280836470    16.3282178260
Ni      4.9145986670     4.2561672950    16.3281642570
Ni      4.9145986670     0.0000000000    16.3282096040
Ni      6.1432483330     2.1280836470    16.3281694310
Ni      7.3718980000     4.2561672950    16.3281777140
Cu      1.6381995390     1.4187224170    18.5439570380
Cu      2.8668492300     3.5468061070    18.5439633170
Cu      4.0954988850     5.6748897330    18.5439058500
Cu      4.0954988480     1.4187224170    18.5439876690
Cu      5.3241485390     3.5468061070    18.5439225600
Cu      6.5527981940     5.6748897330    18.5439394360
Cu      6.5527982300     1.4187224170    18.5439267690
Cu      7.7814479220     3.5468061070    18.5439293780
Cu      9.0100975760     5.6748897330    18.5439799570
Cu      2.0477494240     0.7093612090    20.7902126970
Cu      3.2763990780     2.8374448350    20.7902464750
Cu      4.5050487700     4.9655285250    20.7901894570
Cu      4.5050488060     0.7093612090    20.7902646290
Cu      5.7336984610     2.8374448350    20.7902077890
Cu      6.9623481520     4.9655285250    20.7902013200
Cu      6.9648115003     0.7093612090    20.7901985810
Cu      8.1909977700     2.8374448350    20.7901995150
Cu      9.4196474610     4.9655285250    20.7902560580
Cu      0.0114974242    -0.0205416870    23.0215608132
Cu      8.6107113126     2.1080891959    23.0232716359
Cu      9.8417308881     4.2376409394    23.0256745950
Cu      2.4673267604    -0.0201625454    23.0254053487
Cu      3.6985359953     2.1100242157    23.0294511708
Cu      4.9260586526     4.2359023940    23.0278139970
Cu      4.9267744545    -0.0194366762    23.0227188660
Cu      6.1525569504     2.1116692542    23.0316751685
Cu      7.3816735700     4.2361537699    23.0287832316
Cu      1.8386295819     1.0691214728    25.1929113933
Cu      3.0517232787     3.1965714113    25.1783664975
Cu      4.2864401545     5.3447251949    25.1731924522
Cu      4.2915170226     1.0559594486    25.1802991504
Cu      5.5312102535     3.2171140036    25.0832288157
Cu      6.7651089705     5.3431354546    25.1712541154
Cu      6.7612565606     1.0567387780    25.1821026241
Cu      7.9985898084     3.1958471506    25.1798806717
Cu      9.2110349987     5.3262642179    25.1928349086
O       5.9383523162     1.9819712652    29.4446974135
O       5.4132202949     3.3283559358    27.1627302213
O       5.4326955652     3.3378919523    31.9110506495
C       5.4607121351     3.3466666539    29.5101366613
C       5.9348591292     4.0793307369    28.2620991353
C       5.9312967169     4.0443171119    30.7699347927
H       4.3572118075     3.2669623604    29.4878826486
H       7.0334894739     4.0936241123    28.1898739340
H       5.5437273076     5.1022783543    28.1688294038
H       5.5831021533     5.1004028754    30.7738796517
H       7.0424483558     4.0400167189    30.7707433854
H       6.9060573918     2.0509147904    29.4679878519
H       5.7841853576     2.4159210244    27.1778927328
H       5.7855951143     3.8182130351    32.6789542911
86
Step 3 | ATOMIC_POSITIONS (angstrom) | Cartesian Angstrom
Ni      0.0000000000     0.0000000000    10.0000000900
Ni      8.6005476670     2.1280836470    10.0000000900
Ni      9.8291973330     4.2561672950    10.0000000900
Ni      2.4572993330     0.0000000000    10.0000000900
Ni      3.6859490000     2.1280836470    10.0000000900
Ni      4.9145986670     4.2561672950    10.0000000900
Ni      4.9145986670     0.0000000000    10.0000000900
Ni      6.1432483330     2.1280836470    10.0000000900
Ni      7.3718980000     4.2561672950    10.0000000900
Ni      1.6381995390     1.4187224170    12.0063763950
Ni      2.8668492300     3.5468061070    12.0063763950
Ni      4.0954988850     5.6748897330    12.0063763950
Ni      4.0954988480     1.4187224170    12.0063763950
Ni      5.3241485390     3.5468061070    12.0063763950
Ni      6.5527981940     5.6748897330    12.0063763950
Ni      6.5527982300     1.4187224170    12.0063763950
Ni      7.7814479220     3.5468061070    12.0063763950
Ni      9.0100975760     5.6748897330    12.0063763950
Ni      2.0477494240     0.7093612090    14.1640614080
Ni      3.2763990780     2.8374448350    14.1640729510
Ni      4.5050487700     4.9655285250    14.1640397250
Ni      4.5050488060     0.7093612090    14.1640710440
Ni      5.7336984610     2.8374448350    14.1640423650
Ni      6.9623481520     4.9655285250    14.1640482520
Ni      6.9623481150     0.7093612090    14.1640292020
Ni      8.1909977700     2.8374448350    14.1640591990
Ni      9.4196474610     4.9655285250    14.1640542750
Ni      0.0000000000     0.0000000000    16.3281461600
Ni      8.6005476670     2.1280836470    16.3282017120
Ni      9.8291973330     4.2561672950    16.3281943160
Ni      2.4572993330     0.0000000000    16.3281936330
Ni      3.6859490000     2.1280836470    16.3282178260
Ni      4.9145986670     4.2561672950    16.3281642570
Ni      4.9145986670     0.0000000000    16.3282096040
Ni      6.1432483330     2.1280836470    16.3281694310
Ni      7.3718980000     4.2561672950    16.3281777140
Cu      1.6381995390     1.4187224170    18.5439570380
Cu      2.8668492300     3.5468061070    18.5439633170
Cu      4.0954988850     5.6748897330    18.5439058500
Cu      4.0954988480     1.4187224170    18.5439876690
Cu      5.3241485390     3.5468061070    18.5439225600
Cu      6.5527981940     5.6748897330    18.5439394360
Cu      6.5527982300     1.4187224170    18.5439267690
Cu      7.7814479220     3.5468061070    18.5439293780
Cu      9.0100975760     5.6748897330    18.5439799570
Cu      2.0477494240     0.7093612090    20.7902126970
Cu      3.2763990780     2.8374448350    20.7902464750
Cu      4.5050487700     4.9655285250    20.7901894570
Cu      4.5050488060     0.7093612090    20.7902646290
Cu      5.7336984610     2.8374448350    20.7902077890
Cu      6.9623481520     4.9655285250    20.7902013200
Cu      6.9648115003     0.7093612090    20.7901985810
Cu      8.1909977700     2.8374448350    20.7901995150
Cu      9.4196474610     4.9655285250    20.7902560580
Cu      0.0179898102    -0.0320313062    23.0162999385
Cu      8.6172932232     2.0959479310    23.0204022409
Cu      9.8484503487     4.2268445912    23.0238307283
Cu      2.4732032773    -0.0310399353    23.0229222648
Cu      3.7055423556     2.0990669173    23.0298005536
Cu      4.9305566821     4.2278196322    23.0206939437
Cu      4.9339115754    -0.0313100643    23.0196562868
Cu      6.1601563697     2.0981886387    23.0284494826
Cu      7.3877971016     4.2243518113    23.0285621543
Cu      1.8387985683     1.0683234350    25.1961247423
Cu      3.0477684123     3.1951400407    25.1744938072
Cu      4.2836838633     5.3498026082    25.1667056314
Cu      4.2912323945     1.0522841576    25.1767152873
Cu      5.5341900047     3.2240756420    25.0564682493
Cu      6.7696247939     5.3482497024    25.1640609709
Cu      6.7629528734     1.0534798402    25.1795575863
Cu      8.0034756536     3.1943762760    25.1766807380
Cu      9.2112442817     5.3255835245    25.1960338645
O       5.9326263177     1.9821132307    29.4398267082
O       5.3954931924     3.3147948223    27.1782192524
O       5.4307690703     3.3416632316    31.9155388355
C       5.4670774205     3.3454914640    29.5217453745
C       5.9334349992     4.0774653104    28.2719773970
C       5.9320777121     4.0447865784    30.7773030983
H       4.3686519158     3.2684429442    29.4893546504
H       7.0402686359     4.1024929191    28.1961570428
H       5.5421555788     5.1055439890    28.1647050389
H       5.5854698695     5.1022948651    30.7668791352
H       7.0435621000     4.0464669853    30.7647522571
H       6.9116434354     2.0428751814    29.4712524062
H       5.7809492498     2.4062806537    27.1991954052
H       5.7805942415     3.8118926355    32.6838898606
86
Step 4 | ATOMIC_POSITIONS (angstrom) | Cartesian Angstrom
Ni      0.0000000000     0.0000000000    10.0000000900
Ni      8.6005476670     2.1280836470    10.0000000900
Ni      9.8291973330     4.2561672950    10.0000000900
Ni      2.4572993330     0.0000000000    10.0000000900
Ni      3.6859490000     2.1280836470    10.0000000900
Ni      4.9145986670     4.2561672950    10.0000000900
Ni      4.9145986670     0.0000000000    10.0000000900
Ni      6.1432483330     2.1280836470    10.0000000900
Ni      7.3718980000     4.2561672950    10.0000000900
Ni      1.6381995390     1.4187224170    12.0063763950
Ni      2.8668492300     3.5468061070    12.0063763950
Ni      4.0954988850     5.6748897330    12.0063763950
Ni      4.0954988480     1.4187224170    12.0063763950
Ni      5.3241485390     3.5468061070    12.0063763950
Ni      6.5527981940     5.6748897330    12.0063763950
Ni      6.5527982300     1.4187224170    12.0063763950
Ni      7.7814479220     3.5468061070    12.0063763950
Ni      9.0100975760     5.6748897330    12.0063763950
Ni      2.0477494240     0.7093612090    14.1640614080
Ni      3.2763990780     2.8374448350    14.1640729510
Ni      4.5050487700     4.9655285250    14.1640397250
Ni      4.5050488060     0.7093612090    14.1640710440
Ni      5.7336984610     2.8374448350    14.1640423650
Ni      6.9623481520     4.9655285250    14.1640482520
Ni      6.9623481150     0.7093612090    14.1640292020
Ni      8.1909977700     2.8374448350    14.1640591990
Ni      9.4196474610     4.9655285250    14.1640542750
Ni      0.0000000000     0.0000000000    16.3281461600
Ni      8.6005476670     2.1280836470    16.3282017120
Ni      9.8291973330     4.2561672950    16.3281943160
Ni      2.4572993330     0.0000000000    16.3281936330
Ni      3.6859490000     2.1280836470    16.3282178260
Ni      4.9145986670     4.2561672950    16.3281642570
Ni      4.9145986670     0.0000000000    16.3282096040
Ni      6.1432483330     2.1280836470    16.3281694310
Ni      7.3718980000     4.2561672950    16.3281777140
Cu      1.6381995390     1.4187224170    18.5439570380
Cu      2.8668492300     3.5468061070    18.5439633170
Cu      4.0954988850     5.6748897330    18.5439058500
Cu      4.0954988480     1.4187224170    18.5439876690
Cu      5.3241485390     3.5468061070    18.5439225600
Cu      6.5527981940     5.6748897330    18.5439394360
Cu      6.5527982300     1.4187224170    18.5439267690
Cu      7.7814479220     3.5468061070    18.5439293780
Cu      9.0100975760     5.6748897330    18.5439799570
Cu      2.0477494240     0.7093612090    20.7902126970
Cu      3.2763990780     2.8374448350    20.7902464750
Cu      4.5050487700     4.9655285250    20.7901894570
Cu      4.5050488060     0.7093612090    20.7902646290
Cu      5.7336984610     2.8374448350    20.7902077890
Cu      6.9623481520     4.9655285250    20.7902013200
Cu      6.9648115003     0.7093612090    20.7901985810
Cu      8.1909977700     2.8374448350    20.7901995150
Cu      9.4196474610     4.9655285250    20.7902560580
Cu      0.0305237704    -0.0541600270    23.0042265903
Cu      8.6308931930     2.0719055447    23.0141662037
Cu      9.8609519298     4.2055303796    23.0192254800
Cu      2.4849683991    -0.0516182013    23.0165372938
Cu      3.7193417148     2.0775090098    23.0290891526
Cu      4.9383940803     4.2135875045    23.0007571086
Cu      4.9477035238    -0.0551596220    23.0132209203
Cu      6.1761220954     2.0697210743    23.0176421120
Cu      7.3997684528     4.2009477059    23.0265942935
Cu      1.8398389183     1.0663334312    25.2020742276
Cu      3.0449561232     3.1918617844    25.1678763995
Cu      4.2813027733     5.3546462762    25.1551079080
Cu      4.2931572665     1.0486661604    25.1698653073
Cu      5.5400128921     3.2332870690    25.0257635996
Cu      6.7768504150     5.3539344225    25.1518889492
Cu      6.7645179192     1.0505023697    25.1744915432
Cu      8.0095101915     3.1912504040    25.1711893249
Cu      9.2122802113     5.3235131937    25.2020228200
O       5.9394946692     1.9862083149    29.4362299043
O       5.3700246188     3.2940512598    27.1993966663
O       5.4277322498     3.3488679234    31.9176525898
C       5.4782959249     3.3467314199    29.5366272705
C       5.9292266920     4.0746977444    28.2794252701
C       5.9350664222     4.0468010537    30.7869757069
H       4.3844003348     3.2713313044    29.4947695887
H       7.0445827015     4.1177149357    28.2067762752
H       5.5415973096     5.1019688950    28.1601866012
H       5.5907448642     5.0997954108    30.7558766890
H       7.0443511972     4.0582475058    30.7593413424
H       6.9090985371     2.0241957037    29.4774663247
H       5.7725069627     2.3910872196    27.2407012238
H       5.7736830854     3.8033993967    32.7027668147
86
Step 5 | ATOMIC_POSITIONS (angstrom) | Cartesian Angstrom
Ni      0.0000000000     0.0000000000    10.0000000900
Ni      8.6005476670     2.1280836470    10.0000000900
Ni      9.8291973330     4.2561672950    10.0000000900
Ni      2.4572993330     0.0000000000    10.0000000900
Ni      3.6859490000     2.1280836470    10.0000000900
Ni      4.9145986670     4.2561672950    10.0000000900
Ni      4.9145986670     0.0000000000    10.0000000900
Ni      6.1432483330     2.1280836470    10.0000000900
Ni      7.3718980000     4.2561672950    10.0000000900
Ni      1.6381995390     1.4187224170    12.0063763950
Ni      2.8668492300     3.5468061070    12.0063763950
Ni      4.0954988850     5.6748897330    12.0063763950
Ni      4.0954988480     1.4187224170    12.0063763950
Ni      5.3241485390     3.5468061070    12.0063763950
Ni      6.5527981940     5.6748897330    12.0063763950
Ni      6.5527982300     1.4187224170    12.0063763950
Ni      7.7814479220     3.5468061070    12.0063763950
Ni      9.0100975760     5.6748897330    12.0063763950
Ni      2.0477494240     0.7093612090    14.1640614080
Ni      3.2763990780     2.8374448350    14.1640729510
Ni      4.5050487700     4.9655285250    14.1640397250
Ni      4.5050488060     0.7093612090    14.1640710440
Ni      5.7336984610     2.8374448350    14.1640423650
Ni      6.9623481520     4.9655285250    14.1640482520
Ni      6.9623481150     0.7093612090    14.1640292020
Ni      8.1909977700     2.8374448350    14.1640591990
Ni      9.4196474610     4.9655285250    14.1640542750
Ni      0.0000000000     0.0000000000    16.3281461600
Ni      8.6005476670     2.1280836470    16.3282017120
Ni      9.8291973330     4.2561672950    16.3281943160
Ni      2.4572993330     0.0000000000    16.3281936330
Ni      3.6859490000     2.1280836470    16.3282178260
Ni      4.9145986670     4.2561672950    16.3281642570
Ni      4.9145986670     0.0000000000    16.3282096040
Ni      6.1432483330     2.1280836470    16.3281694310
Ni      7.3718980000     4.2561672950    16.3281777140
Cu      1.6381995390     1.4187224170    18.5439570380
Cu      2.8668492300     3.5468061070    18.5439633170
Cu      4.0954988850     5.6748897330    18.5439058500
Cu      4.0954988480     1.4187224170    18.5439876690
Cu      5.3241485390     3.5468061070    18.5439225600
Cu      6.5527981940     5.6748897330    18.5439394360
Cu      6.5527982300     1.4187224170    18.5439267690
Cu      7.7814479220     3.5468061070    18.5439293780
Cu      9.0100975760     5.6748897330    18.5439799570
Cu      2.0477494240     0.7093612090    20.7902126970
Cu      3.2763990780     2.8374448350    20.7902464750
Cu      4.5050487700     4.9655285250    20.7901894570
Cu      4.5050488060     0.7093612090    20.7902646290
Cu      5.7336984610     2.8374448350    20.7902077890
Cu      6.9623481520     4.9655285250    20.7902013200
Cu      6.9648115003     0.7093612090    20.7901985810
Cu      8.1909977700     2.8374448350    20.7901995150
Cu      9.4196474610     4.9655285250    20.7902560580
Cu      0.0475316762    -0.0841742394    22.9856263089
Cu      8.6506264324     2.0387868588    23.0050006203
Cu      9.8770720414     4.1758413266    23.0116287101
Cu      2.5017506495    -0.0790459442    23.0057381884
Cu      3.7387618877     2.0481445203    23.0256536833
Cu      4.9493823439     4.1935959903    22.9675357402
Cu      4.9660920766    -0.0888400810    23.0040191397
Cu      6.1983922104     2.0298087413    22.9981353126
Cu      7.4156782103     4.1682895761    23.0214428985
Cu      1.8424158153     1.0626807150    25.2094999863
Cu      3.0476175317     3.1865535421    25.1600545392
Cu      4.2821846497     5.3544261936    25.1401875154
Cu      4.2991774692     1.0476841492    25.1607364194
Cu      5.5480364008     3.2394126278    25.0085081380
Cu      6.7849032819     5.3558271516    25.1377547587
Cu      6.7650030421     1.0499852987    25.1671426677
Cu      8.0137842902     3.1863186538    25.1646101574
Cu      9.2149246142     5.3194733389    25.2096184602
O       5.9395062420     1.9927667974    29.4376050589
O       5.3495756294     3.2697511001    27.2175938338
O       5.4281290557     3.3631095815    31.9282784050
C       5.4894712093     3.3505841229    29.5448740783
C       5.9266937758     4.0683643409    28.2798808990
C       5.9443650889     4.0496525520    30.7933140911
H       4.4000522256     3.2742418575    29.5059231928
H       7.0384347006     4.1346681163    28.2172548394
H       5.5400451851     5.0915389024    28.1572859008
H       5.5966814588     5.0947799133    30.7444603002
H       7.0456537631     4.0732452234    30.7605318299
H       6.9184630094     1.9985627676    29.4872292365
H       5.7560531367     2.3766729875    27.2965730884
H       5.7625969608     3.7897136701    32.7260397994
86
Step 6 | ATOMIC_POSITIONS (angstrom) | Cartesian Angstrom
Ni      0.0000000000     0.0000000000    10.0000000900
Ni      8.6005476670     2.1280836470    10.0000000900
Ni      9.8291973330     4.2561672950    10.0000000900
Ni      2.4572993330     0.0000000000    10.0000000900
Ni      3.6859490000     2.1280836470    10.0000000900
Ni      4.9145986670     4.2561672950    10.0000000900
Ni      4.9145986670     0.0000000000    10.0000000900
Ni      6.1432483330     2.1280836470    10.0000000900
Ni      7.3718980000     4.2561672950    10.0000000900
Ni      1.6381995390     1.4187224170    12.0063763950
Ni      2.8668492300     3.5468061070    12.0063763950
Ni      4.0954988850     5.6748897330    12.0063763950
Ni      4.0954988480     1.4187224170    12.0063763950
Ni      5.3241485390     3.5468061070    12.0063763950
Ni      6.5527981940     5.6748897330    12.0063763950
Ni      6.5527982300     1.4187224170    12.0063763950
Ni      7.7814479220     3.5468061070    12.0063763950
Ni      9.0100975760     5.6748897330    12.0063763950
Ni      2.0477494240     0.7093612090    14.1640614080
Ni      3.2763990780     2.8374448350    14.1640729510
Ni      4.5050487700     4.9655285250    14.1640397250
Ni      4.5050488060     0.7093612090    14.1640710440
Ni      5.7336984610     2.8374448350    14.1640423650
Ni      6.9623481520     4.9655285250    14.1640482520
Ni      6.9623481150     0.7093612090    14.1640292020
Ni      8.1909977700     2.8374448350    14.1640591990
Ni      9.4196474610     4.9655285250    14.1640542750
Ni      0.0000000000     0.0000000000    16.3281461600
Ni      8.6005476670     2.1280836470    16.3282017120
Ni      9.8291973330     4.2561672950    16.3281943160
Ni      2.4572993330     0.0000000000    16.3281936330
Ni      3.6859490000     2.1280836470    16.3282178260
Ni      4.9145986670     4.2561672950    16.3281642570
Ni      4.9145986670     0.0000000000    16.3282096040
Ni      6.1432483330     2.1280836470    16.3281694310
Ni      7.3718980000     4.2561672950    16.3281777140
Cu      1.6381995390     1.4187224170    18.5439570380
Cu      2.8668492300     3.5468061070    18.5439633170
Cu      4.0954988850     5.6748897330    18.5439058500
Cu      4.0954988480     1.4187224170    18.5439876690
Cu      5.3241485390     3.5468061070    18.5439225600
Cu      6.5527981940     5.6748897330    18.5439394360
Cu      6.5527982300     1.4187224170    18.5439267690
Cu      7.7814479220     3.5468061070    18.5439293780
Cu      9.0100975760     5.6748897330    18.5439799570
Cu      2.0477494240     0.7093612090    20.7902126970
Cu      3.2763990780     2.8374448350    20.7902464750
Cu      4.5050487700     4.9655285250    20.7901894570
Cu      4.5050488060     0.7093612090    20.7902646290
Cu      5.7336984610     2.8374448350    20.7902077890
Cu      6.9623481520     4.9655285250    20.7902013200
Cu      6.9648115003     0.7093612090    20.7901985810
Cu      8.1909977700     2.8374448350    20.7901995150
Cu      9.4196474610     4.9655285250    20.7902560580
Cu      0.0663459643    -0.1174880716    22.9634362166
Cu      8.6737002746     2.0022746284    22.9945324968
Cu      9.8937953736     4.1420700476    23.0018540868
Cu      2.5214705793    -0.1090712787    22.9915570046
Cu      3.7612745420     2.0162230534    23.0182494328
Cu      4.9643336682     4.1667396463    22.9292462982
Cu      4.9855218741    -0.1273153864    22.9937700558
Cu      6.2220067816     1.9872738347    22.9737067263
Cu      7.4321490214     4.1312842744    23.0125237943
Cu      1.8468430752     1.0570561375    25.2164500875
Cu      3.0569991116     3.1794612364    25.1526094749
Cu      4.2876175739     5.3471965131    25.1238918415
Cu      4.3093125456     1.0489827539    25.1509605086
Cu      5.5568409935     3.2388430911    25.0095774082
Cu      6.7925511581     5.3516926275    25.1247648331
Cu      6.7652270460     1.0511442403    25.1579541576
Cu      8.0158882400     3.1796535100    25.1581732379
Cu      9.2197736431     5.3133816845    25.2169173693
O       5.9488526002     1.9948292398    29.4452673903
O       5.3412749399     3.2543926453    27.2268764022
O       5.4281714593     3.3753731091    31.9326059645
C       5.4990466360     3.3555692985    29.5479067678
C       5.9199219732     4.0599336145    28.2756458233
C       5.9534551076     4.0530248412    30.7986011129
H       4.4098786952     3.2771751809    29.5218971420
H       7.0274720973     4.1476984341    28.2218362811
H       5.5347533493     5.0782757532    28.1556981575
H       5.6013707151     5.0917513522    30.7355965494
H       7.0535862878     4.0880771320    30.7706673977
H       6.9234333336     1.9714036733    29.4990022253
H       5.7346432105     2.3580208156    27.3573872438
H       5.7546134590     3.7802196995    32.7568703888
86
Step 7 | ATOMIC_POSITIONS (angstrom) | Cartesian Angstrom
Ni      0.0000000000     0.0000000000    10.0000000900
Ni      8.6005476670     2.1280836470    10.0000000900
Ni      9.8291973330     4.2561672950    10.0000000900
Ni      2.4572993330     0.0000000000    10.0000000900
Ni      3.6859490000     2.1280836470    10.0000000900
Ni      4.9145986670     4.2561672950    10.0000000900
Ni      4.9145986670     0.0000000000    10.0000000900
Ni      6.1432483330     2.1280836470    10.0000000900
Ni      7.3718980000     4.2561672950    10.0000000900
Ni      1.6381995390     1.4187224170    12.0063763950
Ni      2.8668492300     3.5468061070    12.0063763950
Ni      4.0954988850     5.6748897330    12.0063763950
Ni      4.0954988480     1.4187224170    12.0063763950
Ni      5.3241485390     3.5468061070    12.0063763950
Ni      6.5527981940     5.6748897330    12.0063763950
Ni      6.5527982300     1.4187224170    12.0063763950
Ni      7.7814479220     3.5468061070    12.0063763950
Ni      9.0100975760     5.6748897330    12.0063763950
Ni      2.0477494240     0.7093612090    14.1640614080
Ni      3.2763990780     2.8374448350    14.1640729510
Ni      4.5050487700     4.9655285250    14.1640397250