86
Step 1 | ATOMIC_POSITIONS (angstrom) | Cartesian Angstrom
Ni      0.0000000000     0.0000000000    10.0000000900
Ni      8.6005476670     2.1280836470    10.0000000900
Ni      9.8291973330     4.2561672950    10.0000000900
Ni      2.4572993330     0.0000000000    10.0000000900
Ni      3.6859490000     2.1280836470    10.0000000900
Ni      4.9145986670     4.2561672950    10.0000000900
Ni      4.9145986670     0.0000000000    10.0000000900
Ni      6.1432483330     2.1280836470    10.0000000900
Ni      7.3718980000     4.2561672950    10.0000000900
Ni      1.6381995390     1.4187224170    12.0063763950
Ni      2.8668492300     3.5468061070    12.0063763950
Ni      4.0954988850     5.6748897330    12.0063763950
Ni      4.0954988480     1.4187224170    12.0063763950
Ni      5.3241485390     3.5468061070    12.0063763950
Ni      6.5527981940     5.6748897330    12.0063763950
Ni      6.5527982300     1.4187224170    12.0063763950
Ni      7.7814479220     3.5468061070    12.0063763950
Ni      9.0100975760     5.6748897330    12.0063763950
Ni      2.0477494240     0.7093612090    14.1640614080
Ni      3.2763990780     2.8374448350    14.1640729510
Ni      4.5050487700     4.9655285250    14.1640397250
Ni      4.5050488060     0.7093612090    14.1640710440
Ni      5.7336984610     2.8374448350    14.1640423650
Ni      6.9623481520     4.9655285250    14.1640482520
Ni      6.9623481150     0.7093612090    14.1640292020
Ni      8.1909977700     2.8374448350    14.1640591990
Ni      9.4196474610     4.9655285250    14.1640542750
Ni      0.0000000000     0.0000000000    16.3281461600
Ni      8.6005476670     2.1280836470    16.3282017120
Ni      9.8291973330     4.2561672950    16.3281943160
Ni      2.4572993330     0.0000000000    16.3281936330
Ni      3.6859490000     2.1280836470    16.3282178260
Ni      4.9145986670     4.2561672950    16.3281642570
Ni      4.9145986670     0.0000000000    16.3282096040
Ni      6.1432483330     2.1280836470    16.3281694310
Ni      7.3718980000     4.2561672950    16.3281777140
Cu      1.6381995390     1.4187224170    18.5439570380
Cu      2.8668492300     3.5468061070    18.5439633170
Cu      4.0954988850     5.6748897330    18.5439058500
Cu      4.0954988480     1.4187224170    18.5439876690
Cu      5.3241485390     3.5468061070    18.5439225600
Cu      6.5527981940     5.6748897330    18.5439394360
Cu      6.5527982300     1.4187224170    18.5439267690
Cu      7.7814479220     3.5468061070    18.5439293780
Cu      9.0100975760     5.6748897330    18.5439799570
Cu      2.0480902747     0.7089932437    20.7903006545
Cu      3.2766993274     2.8375708429    20.7901414803
Cu      4.5053030770     4.9651790075    20.7899310643
Cu      4.5051464443     0.7097298294    20.7903825575
Cu      5.7336744912     2.8373577620    20.7896781093
Cu      6.9621518488     4.9653637030    20.7899543349
Cu      6.9642652854     0.7097015910    20.7904406506
Cu      8.1908141761     2.8377860687    20.7901397038
Cu      9.4197841475     4.9651613940    20.7903689332
Cu      0.0033166661    -0.0059431709    23.0257949774
Cu      8.6033588283     2.1224486292    23.0260871417
Cu      9.8328643561     4.2508587823    23.0268408745
Cu      2.4601700556    -0.0058989470    23.0267931869
Cu      3.6896203479     2.1229985090    23.0279109877
Cu      4.9182043114     4.2498042945    23.0283001718
Cu      4.9180610662    -0.0054770718    23.0259505034
Cu      6.1455627258     2.1240029103    23.0292792961
Cu      7.3746058673     4.2504538673    23.0277141440
Cu      1.8391151524     1.0698912020    25.1888386322
Cu      3.0625633704     3.1978361174    25.1844858571
Cu      4.2933229315     5.3324350089    25.1829204745
Cu      4.2948210040     1.0653604947    25.1851163602
Cu      5.5271381328     3.2041237082    25.1504314313
Cu      6.7574944164     5.3318331604    25.1823232059
Cu      6.7565381970     1.0655665063    25.1855206781
Cu      7.9879152729     3.1975673632    25.1848891292
Cu      9.2111985453     5.3264053562    25.1888580047
O       5.9333642010     1.9993137685    29.4559215550
O       5.4398067167     3.3573137845    27.1168018386
O       5.4451265771     3.3461116351    31.9037431085
C       5.4547906550     3.3491395869    29.4919030025
C       5.9222348281     4.0692365720    28.2388812671
C       5.9275217399     4.0428122121    30.7536799697
H       4.3403207068     3.2647670885    29.4877384257
H       7.0259231601     4.0832763877    28.1808524424
H       5.5496254163     5.0886888163    28.1779192696
H       5.5833531154     5.0832395033    30.7862002131
H       7.0362150454     4.0314227191    30.7864517594
H       6.9126970628     2.0578269808    29.4645639510
H       5.7895823815     2.4290128412    27.1538396520
H       5.7894389121     3.8227715541    32.6758665742
86
Step 2 | ATOMIC_POSITIONS (angstrom) | Cartesian Angstrom
Ni      0.0000000000     0.0000000000    10.0000000900
Ni      8.6005476670     2.1280836470    10.0000000900
Ni      9.8291973330     4.2561672950    10.0000000900
Ni      2.4572993330     0.0000000000    10.0000000900
Ni      3.6859490000     2.1280836470    10.0000000900
Ni      4.9145986670     4.2561672950    10.0000000900
Ni      4.9145986670     0.0000000000    10.0000000900
Ni      6.1432483330     2.1280836470    10.0000000900
Ni      7.3718980000     4.2561672950    10.0000000900
Ni      1.6381995390     1.4187224170    12.0063763950
Ni      2.8668492300     3.5468061070    12.0063763950
Ni      4.0954988850     5.6748897330    12.0063763950
Ni      4.0954988480     1.4187224170    12.0063763950
Ni      5.3241485390     3.5468061070    12.0063763950
Ni      6.5527981940     5.6748897330    12.0063763950
Ni      6.5527982300     1.4187224170    12.0063763950
Ni      7.7814479220     3.5468061070    12.0063763950
Ni      9.0100975760     5.6748897330    12.0063763950
Ni      2.0477494240     0.7093612090    14.1640614080
Ni      3.2763990780     2.8374448350    14.1640729510
Ni      4.5050487700     4.9655285250    14.1640397250
Ni      4.5050488060     0.7093612090    14.1640710440
Ni      5.7336984610     2.8374448350    14.1640423650
Ni      6.9623481520     4.9655285250    14.1640482520
Ni      6.9623481150     0.7093612090    14.1640292020
Ni      8.1909977700     2.8374448350    14.1640591990
Ni      9.4196474610     4.9655285250    14.1640542750
Ni      0.0000000000     0.0000000000    16.3281461600
Ni      8.6005476670     2.1280836470    16.3282017120
Ni      9.8291973330     4.2561672950    16.3281943160
Ni      2.4572993330     0.0000000000    16.3281936330
Ni      3.6859490000     2.1280836470    16.3282178260
Ni      4.9145986670     4.2561672950    16.3281642570
Ni      4.9145986670     0.0000000000    16.3282096040
Ni      6.1432483330     2.1280836470    16.3281694310
Ni      7.3718980000     4.2561672950    16.3281777140
Cu      1.6381995390     1.4187224170    18.5439570380
Cu      2.8668492300     3.5468061070    18.5439633170
Cu      4.0954988850     5.6748897330    18.5439058500
Cu      4.0954988480     1.4187224170    18.5439876690
Cu      5.3241485390     3.5468061070    18.5439225600
Cu      6.5527981940     5.6748897330    18.5439394360
Cu      6.5527982300     1.4187224170    18.5439267690
Cu      7.7814479220     3.5468061070    18.5439293780
Cu      9.0100975760     5.6748897330    18.5439799570
Cu      2.0488426560     0.7081514226    20.7907651750
Cu      3.2774108924     2.8376640082    20.7903214005
Cu      4.5059377054     4.9642947181    20.7897937229
Cu      4.5053771858     0.7104376371    20.7908626619
Cu      5.7337477518     2.8369863268    20.7888667529
Cu      6.9618639441     4.9648639003    20.7898040346
Cu      6.9630976337     0.7103949614    20.7912824115
Cu      8.1905036003     2.8384124029    20.7902624170
Cu      9.4201322865     4.9643115152    20.7909055732
Cu      0.0115089927    -0.0205538255    23.0216411186
Cu      8.6107061062     2.1080944065    23.0233240949
Cu      9.8417406209     4.2376232463    23.0257854337
Cu      2.4673339997    -0.0201799027    23.0255167504
Cu      3.6985384025     2.1100317819    23.0295224847
Cu      4.9260654166     4.2358891407    23.0278753642
Cu      4.9267747097    -0.0194388134    23.0228001887
Cu      6.1525356136     2.1117081927    23.0317016782
Cu      7.3816590497     4.2361577853    23.0288396619
Cu      1.8386232535     1.0691295218    25.1929646695
Cu      3.0517165242     3.1965629458    25.1784304961
Cu      4.2864418114     5.3447304776    25.1732536487
Cu      4.2915217094     1.0559504055    25.1803610486
Cu      5.5312215933     3.2171288734    25.0831573927
Cu      6.7651184125     5.3431327992    25.1713132265
Cu      6.7612585471     1.0567408601    25.1821489415
Cu      7.9985882665     3.1958418157    25.1799295083
Cu      9.2110246579     5.3262737888    25.1928917101
O       5.9383550767     1.9819721460    29.4446842658
O       5.4132097217     3.3283641331    27.1627616832
O       5.4326911639     3.3378934488    31.9110535111
C       5.4607239868     3.3466756122    29.5101553392
C       5.9348622967     4.0793493407    28.2621068449
C       5.9312948102     4.0443243691    30.7699439021
H       4.3572094508     3.2669636242    29.4878856114
H       7.0334954491     4.0936264286    28.1898788279
H       5.5437273551     5.1022838122    28.1688310481
H       5.5831050312     5.1004051745    30.7738785764
H       7.0424445960     4.0400212575    30.7707425234
H       6.9060505011     2.0509127877    29.4679898825
H       5.7841815133     2.4159192115    27.1778983807
H       5.7855943680     3.8182129683    32.6789595605
86
Step 3 | ATOMIC_POSITIONS (angstrom) | Cartesian Angstrom
Ni      0.0000000000     0.0000000000    10.0000000900
Ni      8.6005476670     2.1280836470    10.0000000900
Ni      9.8291973330     4.2561672950    10.0000000900
Ni      2.4572993330     0.0000000000    10.0000000900
Ni      3.6859490000     2.1280836470    10.0000000900
Ni      4.9145986670     4.2561672950    10.0000000900
Ni      4.9145986670     0.0000000000    10.0000000900
Ni      6.1432483330     2.1280836470    10.0000000900
Ni      7.3718980000     4.2561672950    10.0000000900
Ni      1.6381995390     1.4187224170    12.0063763950
Ni      2.8668492300     3.5468061070    12.0063763950
Ni      4.0954988850     5.6748897330    12.0063763950
Ni      4.0954988480     1.4187224170    12.0063763950
Ni      5.3241485390     3.5468061070    12.0063763950
Ni      6.5527981940     5.6748897330    12.0063763950
Ni      6.5527982300     1.4187224170    12.0063763950
Ni      7.7814479220     3.5468061070    12.0063763950
Ni      9.0100975760     5.6748897330    12.0063763950
Ni      2.0477494240     0.7093612090    14.1640614080
Ni      3.2763990780     2.8374448350    14.1640729510
Ni      4.5050487700     4.9655285250    14.1640397250
Ni      4.5050488060     0.7093612090    14.1640710440
Ni      5.7336984610     2.8374448350    14.1640423650
Ni      6.9623481520     4.9655285250    14.1640482520
Ni      6.9623481150     0.7093612090    14.1640292020
Ni      8.1909977700     2.8374448350    14.1640591990
Ni      9.4196474610     4.9655285250    14.1640542750
Ni      0.0000000000     0.0000000000    16.3281461600
Ni      8.6005476670     2.1280836470    16.3282017120
Ni      9.8291973330     4.2561672950    16.3281943160
Ni      2.4572993330     0.0000000000    16.3281936330
Ni      3.6859490000     2.1280836470    16.3282178260
Ni      4.9145986670     4.2561672950    16.3281642570
Ni      4.9145986670     0.0000000000    16.3282096040
Ni      6.1432483330     2.1280836470    16.3281694310
Ni      7.3718980000     4.2561672950    16.3281777140
Cu      1.6381995390     1.4187224170    18.5439570380
Cu      2.8668492300     3.5468061070    18.5439633170
Cu      4.0954988850     5.6748897330    18.5439058500
Cu      4.0954988480     1.4187224170    18.5439876690
Cu      5.3241485390     3.5468061070    18.5439225600
Cu      6.5527981940     5.6748897330    18.5439394360
Cu      6.5527982300     1.4187224170    18.5439267690
Cu      7.7814479220     3.5468061070    18.5439293780
Cu      9.0100975760     5.6748897330    18.5439799570
Cu      2.0492752422     0.7076085184    20.7915547763
Cu      3.2779202963     2.8373609511    20.7912102576
Cu      4.5063920881     4.9636634121    20.7901590804
Cu      4.5055393434     0.7106233320    20.7915745643
Cu      5.7340050953     2.8364802613    20.7889521717
Cu      6.9619732502     4.9643193685    20.7904481581
Cu      6.9624912977     0.7106840053    20.7922523431
Cu      8.1905251015     2.8385192176    20.7908223659
Cu      9.4204330074     4.9637447654    20.7917906780
Cu      0.0180184159    -0.0320569124    23.0163729675
Cu      8.6172770324     2.0959584788    23.0203816323
Cu      9.8484737225     4.2268089219    23.0240309245
Cu      2.4732132546    -0.0310700374    23.0231123799
Cu      3.7055230536     2.0990802989    23.0298953063
Cu      4.9305520022     4.2278122548    23.0207678710
Cu      4.9339226981    -0.0313127665    23.0197406020
Cu      6.1601007177     2.0982798767    23.0283734574
Cu      7.3877775523     4.2243855185    23.0285882514
Cu      1.8387977416     1.0683177740    25.1962018849
Cu      3.0477971050     3.1951467673    25.1746015828
Cu      4.2837198829     5.3497627033    25.1668184490
Cu      4.2912357610     1.0522985182    25.1768125585
Cu      5.5341963891     3.2241112392    25.0564306930
Cu      6.7695983950     5.3482087922    25.1641811875
Cu      6.7629448379     1.0535064135    25.1796325657
Cu      8.0034424891     3.1943896712    25.1767619491
Cu      9.2112366050     5.3255791634    25.1961162567
O       5.9326281796     1.9821019550    29.4398246164
O       5.3954943654     3.3148314989    27.1782458951
O       5.4307669758     3.3416681540    31.9155457493
C       5.4670806654     3.3455042316    29.5217556400
C       5.9334429345     4.0774850915    28.2719942156
C       5.9320762357     4.0447902221    30.7773237542
H       4.3686450562     3.2684446600    29.4893680676
H       7.0402697992     4.1024900608    28.1961674420
H       5.5421565294     5.1055546750    28.1647197143
H       5.5854707728     5.1022973551    30.7668941605
H       7.0435568468     4.0464669015    30.7647672313
H       6.9116452470     2.0428800337    29.4712613678
H       5.7809455065     2.4062892342    27.1991944158
H       5.7805985348     3.8118997965    32.6839036715
86
Step 4 | ATOMIC_POSITIONS (angstrom) | Cartesian Angstrom
Ni      0.0000000000     0.0000000000    10.0000000900
Ni      8.6005476670     2.1280836470    10.0000000900
Ni      9.8291973330     4.2561672950    10.0000000900
Ni      2.4572993330     0.0000000000    10.0000000900
Ni      3.6859490000     2.1280836470    10.0000000900
Ni      4.9145986670     4.2561672950    10.0000000900
Ni      4.9145986670     0.0000000000    10.0000000900
Ni      6.1432483330     2.1280836470    10.0000000900
Ni      7.3718980000     4.2561672950    10.0000000900
Ni      1.6381995390     1.4187224170    12.0063763950
Ni      2.8668492300     3.5468061070    12.0063763950
Ni      4.0954988850     5.6748897330    12.0063763950
Ni      4.0954988480     1.4187224170    12.0063763950
Ni      5.3241485390     3.5468061070    12.0063763950
Ni      6.5527981940     5.6748897330    12.0063763950
Ni      6.5527982300     1.4187224170    12.0063763950
Ni      7.7814479220     3.5468061070    12.0063763950
Ni      9.0100975760     5.6748897330    12.0063763950
Ni      2.0477494240     0.7093612090    14.1640614080
Ni      3.2763990780     2.8374448350    14.1640729510
Ni      4.5050487700     4.9655285250    14.1640397250
Ni      4.5050488060     0.7093612090    14.1640710440
Ni      5.7336984610     2.8374448350    14.1640423650
Ni      6.9623481520     4.9655285250    14.1640482520
Ni      6.9623481150     0.7093612090    14.1640292020
Ni      8.1909977700     2.8374448350    14.1640591990
Ni      9.4196474610     4.9655285250    14.1640542750
Ni      0.0000000000     0.0000000000    16.3281461600
Ni      8.6005476670     2.1280836470    16.3282017120
Ni      9.8291973330     4.2561672950    16.3281943160
Ni      2.4572993330     0.0000000000    16.3281936330
Ni      3.6859490000     2.1280836470    16.3282178260
Ni      4.9145986670     4.2561672950    16.3281642570
Ni      4.9145986670     0.0000000000    16.3282096040
Ni      6.1432483330     2.1280836470    16.3281694310
Ni      7.3718980000     4.2561672950    16.3281777140
Cu      1.6381995390     1.4187224170    18.5439570380
Cu      2.8668492300     3.5468061070    18.5439633170
Cu      4.0954988850     5.6748897330    18.5439058500
Cu      4.0954988480     1.4187224170    18.5439876690
Cu      5.3241485390     3.5468061070    18.5439225600
Cu      6.5527981940     5.6748897330    18.5439394360
Cu      6.5527982300     1.4187224170    18.5439267690
Cu      7.7814479220     3.5468061070    18.5439293780
Cu      9.0100975760     5.6748897330    18.5439799570
Cu      2.0499427722     0.7066813586    20.7933113167
Cu      3.2788819428     2.8363901348    20.7937144643
Cu      4.5070884894     4.9627454140    20.7902542582
Cu      4.5058190479     0.7105519104    20.7932598563
Cu      5.7346493669     2.8354034569    20.7895178407
Cu      6.9625254633     4.9630978854    20.7924651085
Cu      6.9616535764     0.7109804332    20.7940166965
Cu      8.1908688465     2.8383169980    20.7923304576
Cu      9.4210541652     4.9627341527    20.7938621458
Cu      0.0308077804    -0.0545838980    23.0042637509
Cu      8.6310568128     2.0715350467    23.0140303769
Cu      9.8612121829     4.2051019893    23.0197614345
Cu      2.4851789102    -0.0520312808    23.0170099533
Cu      3.7194882727     2.0771577746    23.0294208032
Cu      4.9385111102     4.2133425811    23.0007102474
Cu      4.9479716066    -0.0555493419    23.0133656965
Cu      6.1762401509     2.0694980839    23.0173231994
Cu      7.3999507099     4.2006694034    23.0267051253
Cu      1.8398470110     1.0662905659    25.2022921834
Cu      3.0449262002     3.1918426568    25.1679777552
Cu      4.2813039888     5.3546966454    25.1551187236
Cu      4.2931613063     1.0486198310    25.1699441874
Cu      5.5401032985     3.2334879448    25.0251404959
Cu      6.7769145155     5.3539920364    25.1519063146
Cu      6.7645342537     1.0504884988    25.1745462645
Cu      8.0095816073     3.1912436284    25.1712235770
Cu      9.2122823649     5.3234672541    25.2022565782
O       5.9394884475     1.9861944157    29.4361397390
O       5.3696354161     3.2937604744    27.1998210135
O       5.4276647091     3.3489508022    31.9177711035
C       5.4784661714     3.3467381974    29.5368857368
C       5.9292022267     4.0747190090    28.2796498539
C       5.9350889336     4.0468315085    30.7871643480
H       4.3846306755     3.2713766306    29.4948502457
H       7.0446927743     4.1179240075    28.2069500334
H       5.5415727466     5.1020160246    28.1601312534
H       5.5908021556     5.0998406113    30.7557415820
H       7.0443866650     4.0584075312    30.7592489472
H       6.9091143668     2.0239854704    29.4775648417
H       5.7723932330     2.3908947206    27.2412402621
H       5.7735820809     3.8032818591    32.7029716652
86
Step 5 | ATOMIC_POSITIONS (angstrom) | Cartesian Angstrom
Ni      0.0000000000     0.0000000000    10.0000000900
Ni      8.6005476670     2.1280836470    10.0000000900
Ni      9.8291973330     4.2561672950    10.0000000900
Ni      2.4572993330     0.0000000000    10.0000000900
Ni      3.6859490000     2.1280836470    10.0000000900
Ni      4.9145986670     4.2561672950    10.0000000900
Ni      4.9145986670     0.0000000000    10.0000000900
Ni      6.1432483330     2.1280836470    10.0000000900
Ni      7.3718980000     4.2561672950    10.0000000900
Ni      1.6381995390     1.4187224170    12.0063763950
Ni      2.8668492300     3.5468061070    12.0063763950
Ni      4.0954988850     5.6748897330    12.0063763950
Ni      4.0954988480     1.4187224170    12.0063763950
Ni      5.3241485390     3.5468061070    12.0063763950
Ni      6.5527981940     5.6748897330    12.0063763950
Ni      6.5527982300     1.4187224170    12.0063763950
Ni      7.7814479220     3.5468061070    12.0063763950
Ni      9.0100975760     5.6748897330    12.0063763950
Ni      2.0477494240     0.7093612090    14.1640614080
Ni      3.2763990780     2.8374448350    14.1640729510
Ni      4.5050487700     4.9655285250    14.1640397250
Ni      4.5050488060     0.7093612090    14.1640710440
Ni      5.7336984610     2.8374448350    14.1640423650
Ni      6.9623481520     4.9655285250    14.1640482520
Ni      6.9623481150     0.7093612090    14.1640292020
Ni      8.1909977700     2.8374448350    14.1640591990
Ni      9.4196474610     4.9655285250    14.1640542750
Ni      0.0000000000     0.0000000000    16.3281461600
Ni      8.6005476670     2.1280836470    16.3282017120
Ni      9.8291973330     4.2561672950    16.3281943160
Ni      2.4572993330     0.0000000000    16.3281936330
Ni      3.6859490000     2.1280836470    16.3282178260
Ni      4.9145986670     4.2561672950    16.3281642570
Ni      4.9145986670     0.0000000000    16.3282096040
Ni      6.1432483330     2.1280836470    16.3281694310
Ni      7.3718980000     4.2561672950    16.3281777140
Cu      1.6381995390     1.4187224170    18.5439570380
Cu      2.8668492300     3.5468061070    18.5439633170
Cu      4.0954988850     5.6748897330    18.5439058500
Cu      4.0954988480     1.4187224170    18.5439876690
Cu      5.3241485390     3.5468061070    18.5439225600
Cu      6.5527981940     5.6748897330    18.5439394360
Cu      6.5527982300     1.4187224170    18.5439267690
Cu      7.7814479220     3.5468061070    18.5439293780
Cu      9.0100975760     5.6748897330    18.5439799570
Cu      2.0506084914     0.7056025324    20.7956254112
Cu      3.2801364277     2.8346248228    20.7980395676
Cu      4.5076078471     4.9622119603    20.7880559957
Cu      4.5061464140     0.7097740059    20.7958756663
Cu      5.7356395263     2.8339700880    20.7903310782
Cu      6.9636913189     4.9612615955    20.7961038867
Cu      6.9610582428     0.7109617590    20.7955530204
Cu      8.1917806489     2.8374611185    20.7948369251
Cu      9.4219388852     4.9614632104    20.7968996508
Cu      0.0478203587    -0.0845202533    22.9861435646
Cu      8.6506440213     2.0385539794    23.0051161426
Cu      9.8773084260     4.1754592312    23.0130943481
Cu      2.5019074983    -0.0794069240    23.0070683820
Cu      3.7387485533     2.0478449718    23.0267288349
Cu      4.9494145507     4.1934678849    22.9679609239
Cu      4.9663419147    -0.0890789933    23.0046850303
Cu      6.1982950459     2.0299606619    22.9980156118
Cu      7.4158365303     4.1682225728    23.0220628674
Cu      1.8423946366     1.0626659488    25.2097168106
Cu      3.0475930618     3.1865767221    25.1603937520
Cu      4.2822097728     5.3544556546    25.1404364828
Cu      4.2991311398     1.0476405736    25.1609928756
Cu      5.5480939561     3.2394910048    25.0081406634
Cu      6.7848889412     5.3558140596    25.1380611069
Cu      6.7650064542     1.0500104678    25.1672862564
Cu      8.0138101784     3.1863651850    25.1647484862
Cu      9.2149085578     5.3194488828    25.2098822423
O       5.9394404321     1.9926856710    29.4375366320
O       5.3494488001     3.2697493928    27.2178674816
O       5.4280630907     3.3630730060    31.9283598209
C       5.4894899987     3.3505466410    29.5449985814
C       5.9267193573     4.0684318542    28.2800687163
C       5.9443422795     4.0496636202    30.7934245556
H       4.4001161407     3.2742609539    29.5059258173
H       7.0385417613     4.1346970890    28.2173191652
H       5.5400260675     5.0916906052    28.1572854903
H       5.5966687291     5.0948870498    30.7444620959
H       7.0456827522     4.0732570480    30.7604800177
H       6.9184633087     1.9986034964    29.4872457257
H       5.7560695741     2.3766489128    27.2965772841
H       5.7626009027     3.7897340324    32.7260231305
86
Step 6 | ATOMIC_POSITIONS (angstrom) | Cartesian Angstrom
Ni      0.0000000000     0.0000000000    10.0000000900
Ni      8.6005476670     2.1280836470    10.0000000900
Ni      9.8291973330     4.2561672950    10.0000000900
Ni      2.4572993330     0.0000000000    10.0000000900
Ni      3.6859490000     2.1280836470    10.0000000900
Ni      4.9145986670     4.2561672950    10.0000000900
Ni      4.9145986670     0.0000000000    10.0000000900
Ni      6.1432483330     2.1280836470    10.0000000900
Ni      7.3718980000     4.2561672950    10.0000000900
Ni      1.6381995390     1.4187224170    12.0063763950
Ni      2.8668492300     3.5468061070    12.0063763950
Ni      4.0954988850     5.6748897330    12.0063763950
Ni      4.0954988480     1.4187224170    12.0063763950
Ni      5.3241485390     3.5468061070    12.0063763950
Ni      6.5527981940     5.6748897330    12.0063763950
Ni      6.5527982300     1.4187224170    12.0063763950
Ni      7.7814479220     3.5468061070    12.0063763950
Ni      9.0100975760     5.6748897330    12.0063763950
Ni      2.0477494240     0.7093612090    14.1640614080
Ni      3.2763990780     2.8374448350    14.1640729510
Ni      4.5050487700     4.9655285250    14.1640397250
Ni      4.5050488060     0.7093612090    14.1640710440
Ni      5.7336984610     2.8374448350    14.1640423650
Ni      6.9623481520     4.9655285250    14.1640482520
Ni      6.9623481150     0.7093612090    14.1640292020
Ni      8.1909977700     2.8374448350    14.1640591990
Ni      9.4196474610     4.9655285250    14.1640542750
Ni      0.0000000000     0.0000000000    16.3281461600
Ni      8.6005476670     2.1280836470    16.3282017120
Ni      9.8291973330     4.2561672950    16.3281943160
Ni      2.4572993330     0.0000000000    16.3281936330
Ni      3.6859490000     2.1280836470    16.3282178260
Ni      4.9145986670     4.2561672950    16.3281642570
Ni      4.9145986670     0.0000000000    16.3282096040
Ni      6.1432483330     2.1280836470    16.3281694310
Ni      7.3718980000     4.2561672950    16.3281777140
Cu      1.6381995390     1.4187224170    18.5439570380
Cu      2.8668492300     3.5468061070    18.5439633170
Cu      4.0954988850     5.6748897330    18.5439058500
Cu      4.0954988480     1.4187224170    18.5439876690
Cu      5.3241485390     3.5468061070    18.5439225600
Cu      6.5527981940     5.6748897330    18.5439394360
Cu      6.5527982300     1.4187224170    18.5439267690
Cu      7.7814479220     3.5468061070    18.5439293780
Cu      9.0100975760     5.6748897330    18.5439799570
Cu      2.0512477207     0.7043871537    20.7976947993
Cu      3.2816369508     2.8321378224    20.8038905439
Cu      4.5076674993     4.9625375549    20.7806353175
Cu      4.5065484345     0.7079659215    20.7992458521
Cu      5.7369165693     2.8323360936    20.7904216506
Cu      6.9654512214     4.9588696951    20.8010739208
Cu      6.9610152050     0.7103508477    20.7952915197
Cu      8.1934094459     2.8357493577    20.7981333574
Cu      9.4230840049     4.9598791622    20.8003581363
Cu      0.0675768194    -0.1193864908    22.9636224735
Cu      8.6746337543     2.0003287322    22.9948640004
Cu      9.8948818146     4.1401108558    23.0044937866
Cu      2.5224777332    -0.1108684485    22.9936838607
Cu      3.7621914051     2.0143022619    23.0206375214
Cu      4.9648168883     4.1657349624    22.9281703644
Cu      4.9867948000    -0.1292375314    22.9949532730
Cu      6.2228456036     1.9857372490    22.9731174677
Cu      7.4331816497     4.1296021676    23.0140178396
Cu      1.8469320570     1.0568766804    25.2170643670
Cu      3.0571942785     3.1792136056    25.1529744734
Cu      4.2877598271     5.3471095947    25.1236920991
Cu      4.3095674764     1.0488624166    25.1510334301
Cu      5.5572842471     3.2389889403    25.0088195746
Cu      6.7928690846     5.3515984770    25.1248433528
Cu      6.7652434685     1.0511909711    25.1577904579
Cu      8.0160767285     3.1794552963    25.1581635705
Cu      9.2199082172     5.3131641802    25.2176602676
O       5.9489573344     1.9949534107    29.4453575449
O       5.3404798458     3.2535850247    27.2277586000
O       5.4281157386     3.3758835579    31.9329704694
C       5.4994991772     3.3557087766    29.5483351850
C       5.9197650559     4.0597240449    28.2758242907
C       5.9537673358     4.0531417896    30.7989678600
H       4.4104798602     3.2773145976    29.5224066825
H       7.0272904405     4.1483445069    28.2222540280
H       5.5346418896     5.0779765847    28.1556278664
H       5.6015836828     5.0916600011    30.7351967141
H       7.0537519287     4.0886716190    30.7707962482
H       6.9237081851     1.9704189707    29.4994255870
H       5.7339532188     2.3573882462    27.3596576199
H       5.7542393297     3.7797803811    32.7579156491
86
Step 7 | ATOMIC_POSITIONS (angstrom) | Cartesian Angstrom
Ni      0.0000000000     0.0000000000    10.0000000900
Ni      8.6005476670     2.1280836470    10.0000000900
Ni      9.8291973330     4.2561672950    10.0000000900
Ni      2.4572993330     0.0000000000    10.0000000900
Ni      3.6859490000     2.1280836470    10.0000000900
Ni      4.9145986670     4.2561672950    10.0000000900
Ni      4.9145986670     0.0000000000    10.0000000900
Ni      6.1432483330     2.1280836470    10.0000000900
Ni      7.3718980000     4.2561672950    10.0000000900
Ni      1.6381995390     1.4187224170    12.0063763950
Ni      2.8668492300     3.5468061070    12.0063763950
Ni      4.0954988850     5.6748897330    12.0063763950
Ni      4.0954988480     1.4187224170    12.0063763950
Ni      5.3241485390     3.5468061070    12.0063763950
Ni      6.5527981940     5.6748897330    12.0063763950
Ni      6.5527982300     1.4187224170    12.0063763950
Ni      7.7814479220     3.5468061070    12.0063763950
Ni      9.0100975760     5.6748897330    12.0063763950
Ni      2.0477494240     0.7093612090    14.1640614080
Ni      3.2763990780     2.8374448350    14.1640729510
Ni      4.5050487700     4.9655285250    14.1640397250