86
Step 1 | ATOMIC_POSITIONS (angstrom) | Cartesian Angstrom
Ni      1.2286420027     0.7093562278     8.0127033495
Ni      0.0000022775     0.0000000000    10.0192033545
Ni      2.4637570809     1.4224515552    12.0711324136
Ni      1.2397802907     0.7157901456    14.1224527674
Ni      2.4572821841     2.8374249112     8.0127033495
Ni      1.2286424588     2.1280686834    10.0192033545
Ni      3.6926781159     3.5507357065    12.0705045449
Ni      2.4684725529     2.8434817294    14.1212345102
Ni      3.6859592251     4.9655574374     8.0127033495
Ni      2.4573194998     4.2562012095    10.0192033545
Ni      4.9217656993     5.6792526148    12.0709362359
Ni      3.6969571749     4.9715231220    14.1220203985
Ni      3.6859223655     0.7093562278     8.0127033495
Ni      2.4572826402     0.0000000000    10.0192033545
Ni      4.9213653839     1.4225857500    12.0705018304
Ni      3.6967638997     0.7160224207    14.1212311860
Ni      4.9145625469     2.8374249112     8.0127033495
Ni      3.6859228216     2.1280686834    10.0192033545
Ni      6.1503529497     3.5509085402    12.0699854915
Ni      4.9256539069     2.8438285306    14.1202327617
Ni      6.1432395878     4.9655574374     8.0127033495
Ni      4.9145998625     4.2562012095    10.0192033545
Ni      7.3794585706     5.6794809406    12.0703411417
Ni      6.1541912510     4.9717126524    14.1210383973
Ni      6.1432764474     0.7093562278     8.0127033495
Ni      4.9146367221     0.0000000000    10.0192033545
Ni      7.3792576901     1.4227490418    12.0709363656
Ni      6.1539445722     0.7158998925    14.1220190429
Ni      7.3719166287     2.8374249112     8.0127033495
Ni      6.1432769035     2.1280686834    10.0192033545
Ni      8.6083025545     3.5510600089    12.0703431006
Ni      7.3827250276     2.8438303041    14.1210406577
Ni      8.6005936697     4.9655574374     8.0127033495
Ni      7.3719539444     4.2562012095    10.0192033545
Ni      9.8373683369     5.6796094234    12.0707933550
Ni      8.6114301675     4.9718114503    14.1216528753
Cu      0.0001434990     0.0000906242    22.7032657951
Cu      1.2211557031     2.1281760089    22.7001021747
Cu      2.4545119149     4.2649298565    22.6986878886
Cu      2.4542219815    -0.0080343745    22.6989880459
Cu      0.0125988505     0.0072754476    16.2332161102
Cu      2.4696349891     1.4258444684    18.3916416570
Cu      1.2360706144     0.7137523260    20.5513032205
Cu      3.6934530922     2.1385867933    22.6245264301
Cu      1.2416711544     2.1361120827    16.2320324925
Cu      3.6976153977     3.5539780780    18.3918749325
Cu      2.4648932457     2.8410373258    20.5534651004
Cu      4.9186194957     4.2631947442    22.7013341799
Cu      4.9196784764    -0.0062552117    22.7007243758
Cu      2.4707625323     0.0072639821    16.2320277932
Cu      4.9266420746     1.4252400817    18.3918761583
Cu      3.6928793870     0.7148469533    20.5538825723
Cu      6.1503407260     2.1273874105    22.7035455019
Cu      3.6999344853     2.1361584753    16.2305426330
Cu      6.1546566898     3.5533933395    18.3924014903
Cu      4.9202505145     2.8406759466    20.5540723085
Cu      7.3730794437     4.2572703384    22.7074419108
Cu      2.4703615692     4.2639064921    16.2323564383
Cu      4.9258612022     5.6821553099    18.3929147418
Cu      3.6923315911     4.9686611145    20.5523429080
Cu      4.9284376454     4.2641058199    16.2311095738
Cu      7.3827816611     5.6818035922    18.3933612343
Cu      6.1496845839     4.9688314213    20.5517676799
Cu      4.9278325409     0.0074438059    16.2323521866
Cu      7.3838191099     1.4248449337    18.3929204237
Cu      6.1493462258     0.7133048091    20.5513655162
Cu      6.1570438883     2.1360992535    16.2311101997
Cu      8.6119749333     3.5527772255    18.3933657681
Cu      7.3783790532     2.8413756920    20.5526002190
Cu      7.3856113588     4.2640840866    16.2316791967
Cu      9.8400295452     5.6811466362    18.3940799063
Cu      8.6063726714     4.9684546601    20.5520708808
O       3.9890494839     0.7881410231    26.8342799082
O       3.4907545318     2.1469744170    24.5397640303
O       3.5009096087     2.1345780284    29.2821015580
C       3.5103246687     2.1371018882    26.8696254295
C       3.9784746710     2.8598498318    25.6221924600
C       3.9835260508     2.8318104501    28.1318256140
H       2.3961027286     2.0533393660    26.8661179397
H       5.0817234143     2.8716645817    25.5582900904
H       3.6055004609     3.8773759119    25.5558448788
H       3.6392259146     3.8717977353    28.1645465002
H       5.0920377948     2.8199896148    28.1647600355
H       4.9686790262     0.8462237640    26.8425868015
H       3.8459538844     1.2127536074    24.5353374130
H       3.8453257544     2.6113861376    30.0541015960
