86
Step 1 | ATOMIC_POSITIONS (angstrom) | Cartesian Angstrom
Ni      0.0000000000     0.0000000000    10.0000000900
Ni      8.6005476670     2.1280836470    10.0000000900
Ni      9.8291973330     4.2561672950    10.0000000900
Ni      2.4572993330     0.0000000000    10.0000000900
Ni      3.6859490000     2.1280836470    10.0000000900
Ni      4.9145986670     4.2561672950    10.0000000900
Ni      4.9145986670     0.0000000000    10.0000000900
Ni      6.1432483330     2.1280836470    10.0000000900
Ni      7.3718980000     4.2561672950    10.0000000900
Ni      1.6381995390     1.4187224170    12.0063763950
Ni      2.8668492300     3.5468061070    12.0063763950
Ni      4.0954988850     5.6748897330    12.0063763950
Ni      4.0954988480     1.4187224170    12.0063763950
Ni      5.3241485390     3.5468061070    12.0063763950
Ni      6.5527981940     5.6748897330    12.0063763950
Ni      6.5527982300     1.4187224170    12.0063763950
Ni      7.7814479220     3.5468061070    12.0063763950
Ni      9.0100975760     5.6748897330    12.0063763950
Ni      2.0477494240     0.7093612090    14.1640614080
Ni      3.2763990780     2.8374448350    14.1640729510
Ni      4.5050487700     4.9655285250    14.1640397250
Ni      4.5050488060     0.7093612090    14.1640710440
Ni      5.7336984610     2.8374448350    14.1640423650
Ni      6.9623481520     4.9655285250    14.1640482520
Ni      6.9623481150     0.7093612090    14.1640292020
Ni      8.1909977700     2.8374448350    14.1640591990
Ni      9.4196474610     4.9655285250    14.1640542750
Ni      0.0000000000     0.0000000000    16.3281461600
Ni      8.6005476670     2.1280836470    16.3282017120
Ni      9.8291973330     4.2561672950    16.3281943160
Ni      2.4572993330     0.0000000000    16.3281936330
Ni      3.6859490000     2.1280836470    16.3282178260
Ni      4.9145986670     4.2561672950    16.3281642570
Ni      4.9145986670     0.0000000000    16.3282096040
Ni      6.1432483330     2.1280836470    16.3281694310
Ni      7.3718980000     4.2561672950    16.3281777140
Cu      1.6381995390     1.4187224170    18.5439570380
Cu      2.8668492300     3.5468061070    18.5439633170
Cu      4.0954988850     5.6748897330    18.5439058500
Cu      4.0954988480     1.4187224170    18.5439876690
Cu      5.3241485390     3.5468061070    18.5439225600
Cu      6.5527981940     5.6748897330    18.5439394360
Cu      6.5527982300     1.4187224170    18.5439267690
Cu      7.7814479220     3.5468061070    18.5439293780
Cu      9.0100975760     5.6748897330    18.5439799570
Cu      2.0480902747     0.7089932437    20.7903006545
Cu      3.2766993274     2.8375708429    20.7901414803
Cu      4.5053030770     4.9651790075    20.7899310643
Cu      4.5051464443     0.7097298294    20.7903825575
Cu      5.7336744912     2.8373577620    20.7896781093
Cu      6.9621518488     4.9653637030    20.7899543349
Cu      6.9642652854     0.7097015910    20.7904406506
Cu      8.1908141761     2.8377860687    20.7901397038
Cu      9.4197841475     4.9651613940    20.7903689332
Cu      0.0033166661    -0.0059431709    23.0257949774
Cu      8.6033588283     2.1224486292    23.0260871417
Cu      9.8328643561     4.2508587823    23.0268408745
Cu      2.4601700556    -0.0058989470    23.0267931869
Cu      3.6896203479     2.1229985090    23.0279109877
Cu      4.9182043114     4.2498042945    23.0283001718
Cu      4.9180610662    -0.0054770718    23.0259505034
Cu      6.1455627258     2.1240029103    23.0292792961
Cu      7.3746058673     4.2504538673    23.0277141440
Cu      1.8391151524     1.0698912020    25.1888386322
Cu      3.0625633704     3.1978361174    25.1844858571
Cu      4.2933229315     5.3324350089    25.1829204745
Cu      4.2948210040     1.0653604947    25.1851163602
Cu      5.5271381328     3.2041237082    25.1504314313
Cu      6.7574944164     5.3318331604    25.1823232059
Cu      6.7565381970     1.0655665063    25.1855206781
Cu      7.9879152729     3.1975673632    25.1848891292
Cu      9.2111985453     5.3264053562    25.1888580047
O       5.9333642010     1.9993137685    29.4559215550
O       5.4398067167     3.3573137845    27.1168018386
O       5.4451265771     3.3461116351    31.9037431085
C       5.4547906550     3.3491395869    29.4919030025
C       5.9222348281     4.0692365720    28.2388812671
C       5.9275217399     4.0428122121    30.7536799697
H       4.3403207068     3.2647670885    29.4877384257
H       7.0259231601     4.0832763877    28.1808524424
H       5.5496254163     5.0886888163    28.1779192696
H       5.5833531154     5.0832395033    30.7862002131
H       7.0362150454     4.0314227191    30.7864517594
H       6.9126970628     2.0578269808    29.4645639510
H       5.7895823815     2.4290128412    27.1538396520
H       5.7894389121     3.8227715541    32.6758665742
86
Step 2 | ATOMIC_POSITIONS (angstrom) | Cartesian Angstrom
Ni      0.0000000000     0.0000000000    10.0000000900
Ni      8.6005476670     2.1280836470    10.0000000900
Ni      9.8291973330     4.2561672950    10.0000000900
Ni      2.4572993330     0.0000000000    10.0000000900
Ni      3.6859490000     2.1280836470    10.0000000900
Ni      4.9145986670     4.2561672950    10.0000000900
Ni      4.9145986670     0.0000000000    10.0000000900
Ni      6.1432483330     2.1280836470    10.0000000900
Ni      7.3718980000     4.2561672950    10.0000000900
Ni      1.6381995390     1.4187224170    12.0063763950
Ni      2.8668492300     3.5468061070    12.0063763950
Ni      4.0954988850     5.6748897330    12.0063763950
Ni      4.0954988480     1.4187224170    12.0063763950
Ni      5.3241485390     3.5468061070    12.0063763950
Ni      6.5527981940     5.6748897330    12.0063763950
Ni      6.5527982300     1.4187224170    12.0063763950
Ni      7.7814479220     3.5468061070    12.0063763950
Ni      9.0100975760     5.6748897330    12.0063763950
Ni      2.0477494240     0.7093612090    14.1640614080
Ni      3.2763990780     2.8374448350    14.1640729510
Ni      4.5050487700     4.9655285250    14.1640397250
Ni      4.5050488060     0.7093612090    14.1640710440
Ni      5.7336984610     2.8374448350    14.1640423650
Ni      6.9623481520     4.9655285250    14.1640482520
Ni      6.9623481150     0.7093612090    14.1640292020
Ni      8.1909977700     2.8374448350    14.1640591990
Ni      9.4196474610     4.9655285250    14.1640542750
Ni      0.0000000000     0.0000000000    16.3281461600
Ni      8.6005476670     2.1280836470    16.3282017120
Ni      9.8291973330     4.2561672950    16.3281943160
Ni      2.4572993330     0.0000000000    16.3281936330
Ni      3.6859490000     2.1280836470    16.3282178260
Ni      4.9145986670     4.2561672950    16.3281642570
Ni      4.9145986670     0.0000000000    16.3282096040
Ni      6.1432483330     2.1280836470    16.3281694310
Ni      7.3718980000     4.2561672950    16.3281777140
Cu      1.6381995390     1.4187224170    18.5439570380
Cu      2.8668492300     3.5468061070    18.5439633170
Cu      4.0954988850     5.6748897330    18.5439058500
Cu      4.0954988480     1.4187224170    18.5439876690
Cu      5.3241485390     3.5468061070    18.5439225600
Cu      6.5527981940     5.6748897330    18.5439394360
Cu      6.5527982300     1.4187224170    18.5439267690
Cu      7.7814479220     3.5468061070    18.5439293780
Cu      9.0100975760     5.6748897330    18.5439799570
Cu      2.0488426560     0.7081514226    20.7907651750
Cu      3.2774108924     2.8376640082    20.7903214005
Cu      4.5059377054     4.9642947181    20.7897937229
Cu      4.5053771858     0.7104376371    20.7908626619
Cu      5.7337477518     2.8369863268    20.7888667529
Cu      6.9618639441     4.9648639003    20.7898040346
Cu      6.9630976337     0.7103949614    20.7912824115
Cu      8.1905036003     2.8384124029    20.7902624170
Cu      9.4201322865     4.9643115152    20.7909055732
Cu      0.0115089927    -0.0205538255    23.0216411186
Cu      8.6107061062     2.1080944065    23.0233240949
Cu      9.8417406209     4.2376232463    23.0257854337
Cu      2.4673339997    -0.0201799027    23.0255167504
Cu      3.6985384025     2.1100317819    23.0295224847
Cu      4.9260654166     4.2358891407    23.0278753642
Cu      4.9267747097    -0.0194388134    23.0228001887
Cu      6.1525356136     2.1117081927    23.0317016782
Cu      7.3816590497     4.2361577853    23.0288396619
Cu      1.8386232535     1.0691295218    25.1929646695
Cu      3.0517165242     3.1965629458    25.1784304961
Cu      4.2864418114     5.3447304776    25.1732536487
Cu      4.2915217094     1.0559504055    25.1803610486
Cu      5.5312215933     3.2171288734    25.0831573927
Cu      6.7651184125     5.3431327992    25.1713132265
Cu      6.7612585471     1.0567408601    25.1821489415
Cu      7.9985882665     3.1958418157    25.1799295083
Cu      9.2110246579     5.3262737888    25.1928917101
O       5.9383550767     1.9819721460    29.4446842658
O       5.4132097217     3.3283641331    27.1627616832
O       5.4326911639     3.3378934488    31.9110535111
C       5.4607239868     3.3466756122    29.5101553392
C       5.9348622967     4.0793493407    28.2621068449
C       5.9312948102     4.0443243691    30.7699439021
H       4.3572094508     3.2669636242    29.4878856114
H       7.0334954491     4.0936264286    28.1898788279
H       5.5437273551     5.1022838122    28.1688310481
H       5.5831050312     5.1004051745    30.7738785764
H       7.0424445960     4.0400212575    30.7707425234
H       6.9060505011     2.0509127877    29.4679898825
H       5.7841815133     2.4159192115    27.1778983807
H       5.7855943680     3.8182129683    32.6789595605
86
Step 3 | ATOMIC_POSITIONS (angstrom) | Cartesian Angstrom
Ni      0.0000000000     0.0000000000    10.0000000900
Ni      8.6005476670     2.1280836470    10.0000000900
Ni      9.8291973330     4.2561672950    10.0000000900
Ni      2.4572993330     0.0000000000    10.0000000900
Ni      3.6859490000     2.1280836470    10.0000000900
Ni      4.9145986670     4.2561672950    10.0000000900
Ni      4.9145986670     0.0000000000    10.0000000900
Ni      6.1432483330     2.1280836470    10.0000000900
Ni      7.3718980000     4.2561672950    10.0000000900
Ni      1.6381995390     1.4187224170    12.0063763950
Ni      2.8668492300     3.5468061070    12.0063763950
Ni      4.0954988850     5.6748897330    12.0063763950
Ni      4.0954988480     1.4187224170    12.0063763950
Ni      5.3241485390     3.5468061070    12.0063763950
Ni      6.5527981940     5.6748897330    12.0063763950
Ni      6.5527982300     1.4187224170    12.0063763950
Ni      7.7814479220     3.5468061070    12.0063763950
Ni      9.0100975760     5.6748897330    12.0063763950
Ni      2.0477494240     0.7093612090    14.1640614080
Ni      3.2763990780     2.8374448350    14.1640729510
Ni      4.5050487700     4.9655285250    14.1640397250
Ni      4.5050488060     0.7093612090    14.1640710440
Ni      5.7336984610     2.8374448350    14.1640423650
Ni      6.9623481520     4.9655285250    14.1640482520
Ni      6.9623481150     0.7093612090    14.1640292020
Ni      8.1909977700     2.8374448350    14.1640591990
Ni      9.4196474610     4.9655285250    14.1640542750
Ni      0.0000000000     0.0000000000    16.3281461600
Ni      8.6005476670     2.1280836470    16.3282017120
Ni      9.8291973330     4.2561672950    16.3281943160
Ni      2.4572993330     0.0000000000    16.3281936330
Ni      3.6859490000     2.1280836470    16.3282178260
Ni      4.9145986670     4.2561672950    16.3281642570
Ni      4.9145986670     0.0000000000    16.3282096040
Ni      6.1432483330     2.1280836470    16.3281694310
Ni      7.3718980000     4.2561672950    16.3281777140
Cu      1.6381995390     1.4187224170    18.5439570380
Cu      2.8668492300     3.5468061070    18.5439633170
Cu      4.0954988850     5.6748897330    18.5439058500
Cu      4.0954988480     1.4187224170    18.5439876690
Cu      5.3241485390     3.5468061070    18.5439225600
Cu      6.5527981940     5.6748897330    18.5439394360
Cu      6.5527982300     1.4187224170    18.5439267690
Cu      7.7814479220     3.5468061070    18.5439293780
Cu      9.0100975760     5.6748897330    18.5439799570
Cu      2.0492752422     0.7076085184    20.7915547763
Cu      3.2779202963     2.8373609511    20.7912102576
Cu      4.5063920881     4.9636634121    20.7901590804
Cu      4.5055393434     0.7106233320    20.7915745643
Cu      5.7340050953     2.8364802613    20.7889521717
Cu      6.9619732502     4.9643193685    20.7904481581
Cu      6.9624912977     0.7106840053    20.7922523431
Cu      8.1905251015     2.8385192176    20.7908223659
Cu      9.4204330074     4.9637447654    20.7917906780
Cu      0.0180184159    -0.0320569124    23.0163729675
Cu      8.6172770324     2.0959584788    23.0203816323
Cu      9.8484737225     4.2268089219    23.0240309245
Cu      2.4732132546    -0.0310700374    23.0231123799
Cu      3.7055230536     2.0990802989    23.0298953063
Cu      4.9305520022     4.2278122548    23.0207678710
Cu      4.9339226981    -0.0313127665    23.0197406020
Cu      6.1601007177     2.0982798767    23.0283734574
Cu      7.3877775523     4.2243855185    23.0285882514
Cu      1.8387977416     1.0683177740    25.1962018849
Cu      3.0477971050     3.1951467673    25.1746015828
Cu      4.2837198829     5.3497627033    25.1668184490
Cu      4.2912357610     1.0522985182    25.1768125585
Cu      5.5341963891     3.2241112392    25.0564306930
Cu      6.7695983950     5.3482087922    25.1641811875
Cu      6.7629448379     1.0535064135    25.1796325657
Cu      8.0034424891     3.1943896712    25.1767619491
Cu      9.2112366050     5.3255791634    25.1961162567
O       5.9326281796     1.9821019550    29.4398246164
O       5.3954943654     3.3148314989    27.1782458951
O       5.4307669758     3.3416681540    31.9155457493
C       5.4670806654     3.3455042316    29.5217556400
C       5.9334429345     4.0774850915    28.2719942156
C       5.9320762357     4.0447902221    30.7773237542
H       4.3686450562     3.2684446600    29.4893680676
H       7.0402697992     4.1024900608    28.1961674420
H       5.5421565294     5.1055546750    28.1647197143
H       5.5854707728     5.1022973551    30.7668941605
H       7.0435568468     4.0464669015    30.7647672313
H       6.9116452470     2.0428800337    29.4712613678
H       5.7809455065     2.4062892342    27.1991944158
H       5.7805985348     3.8118997965    32.6839036715
86
Step 4 | ATOMIC_POSITIONS (angstrom) | Cartesian Angstrom
Ni      0.0000000000     0.0000000000    10.0000000900
Ni      8.6005476670     2.1280836470    10.0000000900
Ni      9.8291973330     4.2561672950    10.0000000900
Ni      2.4572993330     0.0000000000    10.0000000900
Ni      3.6859490000     2.1280836470    10.0000000900
Ni      4.9145986670     4.2561672950    10.0000000900
Ni      4.9145986670     0.0000000000    10.0000000900
Ni      6.1432483330     2.1280836470    10.0000000900
Ni      7.3718980000     4.2561672950    10.0000000900
Ni      1.6381995390     1.4187224170    12.0063763950
Ni      2.8668492300     3.5468061070    12.0063763950
Ni      4.0954988850     5.6748897330    12.0063763950
Ni      4.0954988480     1.4187224170    12.0063763950
Ni      5.3241485390     3.5468061070    12.0063763950
Ni      6.5527981940     5.6748897330    12.0063763950
Ni      6.5527982300     1.4187224170    12.0063763950
Ni      7.7814479220     3.5468061070    12.0063763950
Ni      9.0100975760     5.6748897330    12.0063763950
Ni      2.0477494240     0.7093612090    14.1640614080
Ni      3.2763990780     2.8374448350    14.1640729510
Ni      4.5050487700     4.9655285250    14.1640397250
Ni      4.5050488060     0.7093612090    14.1640710440
Ni      5.7336984610     2.8374448350    14.1640423650
Ni      6.9623481520     4.9655285250    14.1640482520
Ni      6.9623481150     0.7093612090    14.1640292020
Ni      8.1909977700     2.8374448350    14.1640591990
Ni      9.4196474610     4.9655285250    14.1640542750
Ni      0.0000000000     0.0000000000    16.3281461600
Ni      8.6005476670     2.1280836470    16.3282017120
Ni      9.8291973330     4.2561672950    16.3281943160
Ni      2.4572993330     0.0000000000    16.3281936330
Ni      3.6859490000     2.1280836470    16.3282178260
Ni      4.9145986670     4.2561672950    16.3281642570
Ni      4.9145986670     0.0000000000    16.3282096040
Ni      6.1432483330     2.1280836470    16.3281694310
Ni      7.3718980000     4.2561672950    16.3281777140
Cu      1.6381995390     1.4187224170    18.5439570380
Cu      2.8668492300     3.5468061070    18.5439633170
Cu      4.0954988850     5.6748897330    18.5439058500
Cu      4.0954988480     1.4187224170    18.5439876690
Cu      5.3241485390     3.5468061070    18.5439225600
Cu      6.5527981940     5.6748897330    18.5439394360
Cu      6.5527982300     1.4187224170    18.5439267690
Cu      7.7814479220     3.5468061070    18.5439293780
Cu      9.0100975760     5.6748897330    18.5439799570
Cu      2.0499427722     0.7066813586    20.7933113167
Cu      3.2788819428     2.8363901348    20.7937144643
Cu      4.5070884894     4.9627454140    20.7902542582
Cu      4.5058190479     0.7105519104    20.7932598563
Cu      5.7346493669     2.8354034569    20.7895178407
Cu      6.9625254633     4.9630978854    20.7924651085
Cu      6.9616535764     0.7109804332    20.7940166965
Cu      8.1908688465     2.8383169980    20.7923304576
Cu      9.4210541652     4.9627341527    20.7938621458
Cu      0.0308077804    -0.0545838980    23.0042637509
Cu      8.6310568128     2.0715350467    23.0140303769
Cu      9.8612121829     4.2051019893    23.0197614345
Cu      2.4851789102    -0.0520312808    23.0170099533
Cu      3.7194882727     2.0771577746    23.0294208032
Cu      4.9385111102     4.2133425811    23.0007102474
Cu      4.9479716066    -0.0555493419    23.0133656965
Cu      6.1762401509     2.0694980839    23.0173231994
Cu      7.3999507099     4.2006694034    23.0267051253
Cu      1.8398470110     1.0662905659    25.2022921834
Cu      3.0449262002     3.1918426568    25.1679777552
Cu      4.2813039888     5.3546966454    25.1551187236
Cu      4.2931613063     1.0486198310    25.1699441874
Cu      5.5401032985     3.2334879448    25.0251404959
Cu      6.7769145155     5.3539920364    25.1519063146
Cu      6.7645342537     1.0504884988    25.1745462645
Cu      8.0095816073     3.1912436284    25.1712235770
Cu      9.2122823649     5.3234672541    25.2022565782
O       5.9394884475     1.9861944157    29.4361397390
O       5.3696354161     3.2937604744    27.1998210135
O       5.4276647091     3.3489508022    31.9177711035
C       5.4784661714     3.3467381974    29.5368857368
C       5.9292022267     4.0747190090    28.2796498539
C       5.9350889336     4.0468315085    30.7871643480
H       4.3846306755     3.2713766306    29.4948502457
H       7.0446927743     4.1179240075    28.2069500334
H       5.5415727466     5.1020160246    28.1601312534
H       5.5908021556     5.0998406113    30.7557415820
H       7.0443866650     4.0584075312    30.7592489472
H       6.9091143668     2.0239854704    29.4775648417
H       5.7723932330     2.3908947206    27.2412402621
H       5.7735820809     3.8032818591    32.7029716652
