86
Step 1 | ATOMIC_POSITIONS (angstrom) | Cartesian Angstrom
Ni      1.2286420027     0.7093562278     8.0127033495
Ni      0.0000022775     0.0000000000    10.0192033545
Ni      2.4637570809     1.4224515552    12.0711324136
Ni      1.2397802907     0.7157901456    14.1224527674
Ni      2.4572821841     2.8374249112     8.0127033495
Ni      1.2286424588     2.1280686834    10.0192033545
Ni      3.6926781159     3.5507357065    12.0705045449
Ni      2.4684725529     2.8434817294    14.1212345102
Ni      3.6859592251     4.9655574374     8.0127033495
Ni      2.4573194998     4.2562012095    10.0192033545
Ni      4.9217656993     5.6792526148    12.0709362359
Ni      3.6969571749     4.9715231220    14.1220203985
Ni      3.6859223655     0.7093562278     8.0127033495
Ni      2.4572826402     0.0000000000    10.0192033545
Ni      4.9213653839     1.4225857500    12.0705018304
Ni      3.6967638997     0.7160224207    14.1212311860
Ni      4.9145625469     2.8374249112     8.0127033495
Ni      3.6859228216     2.1280686834    10.0192033545
Ni      6.1503529497     3.5509085402    12.0699854915
Ni      4.9256539069     2.8438285306    14.1202327617
Ni      6.1432395878     4.9655574374     8.0127033495
Ni      4.9145998625     4.2562012095    10.0192033545
Ni      7.3794585706     5.6794809406    12.0703411417
Ni      6.1541912510     4.9717126524    14.1210383973
Ni      6.1432764474     0.7093562278     8.0127033495
Ni      4.9146367221     0.0000000000    10.0192033545
Ni      7.3792576901     1.4227490418    12.0709363656
Ni      6.1539445722     0.7158998925    14.1220190429
Ni      7.3719166287     2.8374249112     8.0127033495
Ni      6.1432769035     2.1280686834    10.0192033545
Ni      8.6083025545     3.5510600089    12.0703431006
Ni      7.3827250276     2.8438303041    14.1210406577
Ni      8.6005936697     4.9655574374     8.0127033495
Ni      7.3719539444     4.2562012095    10.0192033545
Ni      9.8373683369     5.6796094234    12.0707933550
Ni      8.6114301675     4.9718114503    14.1216528753
Cu      0.0001502178     0.0000851726    22.7031859818
Cu      1.2211698134     2.1281841745    22.7000226298
Cu      2.4545186089     4.2649116737    22.6986106948
Cu      2.4542203823    -0.0080243060    22.6989109489
Cu      0.0125988505     0.0072754476    16.2332161102
Cu      2.4696349891     1.4258444684    18.3916416570
Cu      1.2357013061     0.7134308093    20.5525806734
Cu      3.6934382834     2.1385840695    22.6245202645
Cu      1.2416711544     2.1361120827    16.2320324925
Cu      3.6976153977     3.5539780780    18.3918749325
Cu      2.4641651968     2.8415663609    20.5535203685
Cu      4.9186052442     4.2631875768    22.7012523065
Cu      4.9196716496    -0.0062471515    22.7006584153
Cu      2.4707625323     0.0072639821    16.2320277932
Cu      4.9266420746     1.4252400817    18.3918761583
Cu      3.6929504693     0.7132457861    20.5535179654
Cu      6.1503319023     2.1273917726    22.7034693059
Cu      3.6999344853     2.1361584753    16.2305426330
Cu      6.1546566898     3.5533933395    18.3924014903
Cu      4.9213317101     2.8413334155    20.5541973442
Cu      7.3730863203     4.2572637153    22.7073638742
Cu      2.4703615692     4.2639064921    16.2323564383
Cu      4.9258612022     5.6821553099    18.3929147418
Cu      3.6923908304     4.9692750903    20.5536695377
Cu      4.9284376454     4.2641058199    16.2311095738
Cu      7.3827816611     5.6818035922    18.3933612343
Cu      6.1495647783     4.9691763920    20.5547682837
Cu      4.9278325409     0.0074438059    16.2323521866
Cu      7.3838191099     1.4248449337    18.3929204237
Cu      6.1497113719     0.7130663237    20.5536678351
Cu      6.1570438883     2.1360992535    16.2311101997
Cu      8.6119749333     3.5527772255    18.3933657681
Cu      7.3782123231     2.8410932514    20.5547689064
Cu      7.3856113588     4.2640840866    16.2316791967
Cu      9.8400295452     5.6811466362    18.3940799063
Cu      8.6063487219     4.9688802328    20.5550099945
O       3.9890615541     0.7881676937    26.8342479392
O       3.4907758750     2.1469643935    24.5397498751
O       3.5009208956     2.1345889398    29.2820577847
C       3.5103276735     2.1370970435    26.8695968658
C       3.9784708713     2.8598457820    25.6221557818
C       3.9835244914     2.8318046854    28.1317967060
H       2.3960984842     2.0533381986    26.8660868221
H       5.0817214964     2.8716639388    25.5582579576
H       3.6054998704     3.8773726171    25.5558124299
H       3.6392247185     3.8717920487    28.1645154694
H       5.0920339542     2.8199876283    28.1647285379
H       4.9686786041     0.8462235113    26.8425537623
H       3.8459545801     1.2127521349    24.5353084216
H       3.8453261940     2.6113867449    30.0540703716
86
Step 2 | ATOMIC_POSITIONS (angstrom) | Cartesian Angstrom
Ni      1.2286420027     0.7093562278     8.0127033495
Ni      0.0000022775    -0.0000000000    10.0192033545
Ni      2.4637570809     1.4224515552    12.0711324136
Ni      1.2397802907     0.7157901456    14.1224527674
Ni      2.4572821841     2.8374249112     8.0127033495
Ni      1.2286424588     2.1280686834    10.0192033545
Ni      3.6926781159     3.5507357065    12.0705045449
Ni      2.4684725529     2.8434817294    14.1212345102
Ni      3.6859592251     4.9655574374     8.0127033495
Ni      2.4573194998     4.2562012095    10.0192033545
Ni      4.9217656993     5.6792526148    12.0709362359
Ni      3.6969571749     4.9715231220    14.1220203985
Ni      3.6859223655     0.7093562278     8.0127033495
Ni      2.4572826402    -0.0000000000    10.0192033545
Ni      4.9213653839     1.4225857500    12.0705018304
Ni      3.6967638997     0.7160224207    14.1212311860
Ni      4.9145625469     2.8374249112     8.0127033495
Ni      3.6859228216     2.1280686834    10.0192033545
Ni      6.1503529497     3.5509085402    12.0699854915
Ni      4.9256539069     2.8438285306    14.1202327617
Ni      6.1432395878     4.9655574374     8.0127033495
Ni      4.9145998625     4.2562012095    10.0192033545
Ni      7.3794585706     5.6794809406    12.0703411417
Ni      6.1541912510     4.9717126524    14.1210383973
Ni      6.1432764474     0.7093562278     8.0127033495
Ni      4.9146367221    -0.0000000000    10.0192033545
Ni      7.3792576901     1.4227490418    12.0709363656
Ni      6.1539445722     0.7158998925    14.1220190429
Ni      7.3719166287     2.8374249112     8.0127033495
Ni      6.1432769035     2.1280686834    10.0192033545
Ni      8.6083025545     3.5510600089    12.0703431006
Ni      7.3827250276     2.8438303041    14.1210406577
Ni      8.6005936697     4.9655574374     8.0127033495
Ni      7.3719539444     4.2562012095    10.0192033545
Ni      9.8373683369     5.6796094234    12.0707933550
Ni      8.6114301675     4.9718114503    14.1216528753
Cu     -0.0000202864     0.0000027366    22.7028667951
Cu      1.2140986655     2.1276378135    22.6920569550
Cu      2.4508589606     4.2732311028    22.6888269805
Cu      2.4511761943    -0.0155114708    22.6891862684
Cu      0.0125988505     0.0072754476    16.2332161102
Cu      2.4696349891     1.4258444684    18.3916416570
Cu      1.2357013061     0.7134308093    20.5525806734
Cu      3.6983565973     2.1496872133    22.5648213868
Cu      1.2416711544     2.1361120827    16.2320324925
Cu      3.6976153977     3.5539780780    18.3918749325
Cu      2.4641651968     2.8415663609    20.5535203685
Cu      4.9230984732     4.2701710150    22.6918956194
Cu      4.9231706915    -0.0120686668    22.6939900676
Cu      2.4707625323     0.0072639821    16.2320277932
Cu      4.9266420746     1.4252400817    18.3918761583
Cu      3.6929504693     0.7132457861    20.5535179654
Cu      6.1569713501     2.1268651191    22.6972796895
Cu      3.6999344853     2.1361584753    16.2305426330
Cu      6.1546566898     3.5533933395    18.3924014903
Cu      4.9213317101     2.8413334155    20.5541973442
Cu      7.3728436298     4.2575096603    22.7065597984
Cu      2.4703615692     4.2639064921    16.2323564383
Cu      4.9258612022     5.6821553099    18.3929147418
Cu      3.6923908304     4.9692750903    20.5536695377
Cu      4.9284376454     4.2641058199    16.2311095738
Cu      7.3827816611     5.6818035922    18.3933612343
Cu      6.1495647783     4.9691763920    20.5547682837
Cu      4.9278325409     0.0074438059    16.2323521866
Cu      7.3838191099     1.4248449337    18.3929204237
Cu      6.1497113719     0.7130663237    20.5536678351
Cu      6.1570438883     2.1360992535    16.2311101997
Cu      8.6119749333     3.5527772255    18.3933657681
Cu      7.3782123231     2.8410932514    20.5547689064
Cu      7.3856113588     4.2640840866    16.2316791967
Cu      9.8400295452     5.6811466362    18.3940799063
Cu      8.6063487219     4.9688802328    20.5550099945
O       3.9950836114     0.7798230347    26.8274374936
O       3.4643970353     2.1135789008    24.5592848982
O       3.4939005996     2.1306615553    29.2858912137
C       3.5097317636     2.1381666766    26.8887206148
C       3.9952603674     2.8690009892    25.6549408756
C       3.9878775021     2.8301935173    28.1422186357
H       2.4091682330     2.0551238436    26.8658499789
H       5.0864052463     2.8792571307    25.5642980256
H       3.6014882954     3.8886440893    25.5516506016
H       3.6387835632     3.8820259673    28.1571323260
H       5.0941146053     2.8253778987    28.1557795920
H       4.9629242074     0.8410778182    26.8444007279
H       3.8413014725     1.2096803626    24.5546369864
H       3.8430162395     2.6086484175    30.0564927679
86
Step 3 | ATOMIC_POSITIONS (angstrom) | Cartesian Angstrom
Ni      1.2286420027     0.7093562278     8.0127033495
Ni      0.0000022775    -0.0000000000    10.0192033545
Ni      2.4637570809     1.4224515552    12.0711324136
Ni      1.2397802907     0.7157901456    14.1224527674
Ni      2.4572821841     2.8374249112     8.0127033495
Ni      1.2286424588     2.1280686834    10.0192033545
Ni      3.6926781159     3.5507357065    12.0705045449
Ni      2.4684725529     2.8434817294    14.1212345102
Ni      3.6859592251     4.9655574374     8.0127033495
Ni      2.4573194998     4.2562012095    10.0192033545
Ni      4.9217656993     5.6792526148    12.0709362359
Ni      3.6969571749     4.9715231220    14.1220203985
Ni      3.6859223655     0.7093562278     8.0127033495
Ni      2.4572826402    -0.0000000000    10.0192033545
Ni      4.9213653839     1.4225857500    12.0705018304
Ni      3.6967638997     0.7160224207    14.1212311860
Ni      4.9145625469     2.8374249112     8.0127033495
Ni      3.6859228216     2.1280686834    10.0192033545
Ni      6.1503529497     3.5509085402    12.0699854915
Ni      4.9256539069     2.8438285306    14.1202327617
Ni      6.1432395878     4.9655574374     8.0127033495
Ni      4.9145998625     4.2562012095    10.0192033545
Ni      7.3794585706     5.6794809406    12.0703411417
Ni      6.1541912510     4.9717126524    14.1210383973
Ni      6.1432764474     0.7093562278     8.0127033495
Ni      4.9146367221    -0.0000000000    10.0192033545
Ni      7.3792576901     1.4227490418    12.0709363656
Ni      6.1539445722     0.7158998925    14.1220190429
Ni      7.3719166287     2.8374249112     8.0127033495
Ni      6.1432769035     2.1280686834    10.0192033545
Ni      8.6083025545     3.5510600089    12.0703431006
Ni      7.3827250276     2.8438303041    14.1210406577
Ni      8.6005936697     4.9655574374     8.0127033495
Ni      7.3719539444     4.2562012095    10.0192033545
Ni      9.8373683369     5.6796094234    12.0707933550
Ni      8.6114301675     4.9718114503    14.1216528753
Cu     -0.0000972900     0.0000989954    22.7027776254
Cu      1.2099758694     2.1272140328    22.6841385519
Cu      2.4482280588     4.2795296971    22.6791339777
Cu      2.4496369335    -0.0200745136    22.6787997442
Cu      0.0125988505     0.0072754476    16.2332161102
Cu      2.4696349891     1.4258444684    18.3916416570
Cu      1.2357013061     0.7134308093    20.5525806734
Cu      3.7006563275     2.1580857969    22.5325327495
Cu      1.2416711544     2.1361120827    16.2320324925
Cu      3.6976153977     3.5539780780    18.3918749325
Cu      2.4641651968     2.8415663609    20.5535203685
Cu      4.9266972883     4.2756183396    22.6826688373
Cu      4.9253392199    -0.0153982020    22.6866893658
Cu      2.4707625323     0.0072639821    16.2320277932
Cu      4.9266420746     1.4252400817    18.3918761583
Cu      3.6929504693     0.7132457861    20.5535179654
Cu      6.1615910179     2.1264164048    22.6911476616
Cu      3.6999344853     2.1361584753    16.2305426330
Cu      6.1546566898     3.5533933395    18.3924014903
Cu      4.9213317101     2.8413334155    20.5541973442
Cu      7.3727644385     4.2576323341    22.7059882390
Cu      2.4703615692     4.2639064921    16.2323564383
Cu      4.9258612022     5.6821553099    18.3929147418
Cu      3.6923908304     4.9692750903    20.5536695377
Cu      4.9284376454     4.2641058199    16.2311095738
Cu      7.3827816611     5.6818035922    18.3933612343
Cu      6.1495647783     4.9691763920    20.5547682837
Cu      4.9278325409     0.0074438059    16.2323521866
Cu      7.3838191099     1.4248449337    18.3929204237
Cu      6.1497113719     0.7130663237    20.5536678351
Cu      6.1570438883     2.1360992535    16.2311101997
Cu      8.6119749333     3.5527772255    18.3933657681
Cu      7.3782123231     2.8410932514    20.5547689064
Cu      7.3856113588     4.2640840866    16.2316791967
Cu      9.8400295452     5.6811466362    18.3940799063
Cu      8.6063487219     4.9688802328    20.5550099945
O       3.9893558984     0.7782443152    26.8236562137
O       3.4426743283     2.1057165120    24.5699910203
O       3.4909361385     2.1319017057    29.2914753614
C       3.5185493801     2.1367724353    26.9050915371
C       3.9902284764     2.8671070453    25.6643935944
C       3.9876255930     2.8320464858    28.1543424295
H       2.4188736875     2.0571123856    26.8669266639
H       5.0961212331     2.8871617970    25.5708994643
H       3.6005805270     3.8933088444    25.5497535634
H       3.6407106720     3.8847134167    28.1506351534
H       5.0963559422     2.8307515894    28.1495559256
H       4.9678628565     0.8348755264    26.8469378765
H       3.8414448834     1.1963313535    24.5767340633
H       3.8391957664     2.6038644484    30.0605946035
86
Step 4 | ATOMIC_POSITIONS (angstrom) | Cartesian Angstrom
Ni      1.2286420027     0.7093562278     8.0127033495
Ni      0.0000022775    -0.0000000000    10.0192033545
Ni      2.4637570809     1.4224515552    12.0711324136
Ni      1.2397802907     0.7157901456    14.1224527674
Ni      2.4572821841     2.8374249112     8.0127033495
Ni      1.2286424588     2.1280686834    10.0192033545
Ni      3.6926781159     3.5507357065    12.0705045449
Ni      2.4684725529     2.8434817294    14.1212345102
Ni      3.6859592251     4.9655574374     8.0127033495
Ni      2.4573194998     4.2562012095    10.0192033545
Ni      4.9217656993     5.6792526148    12.0709362359
Ni      3.6969571749     4.9715231220    14.1220203985
Ni      3.6859223655     0.7093562278     8.0127033495
Ni      2.4572826402    -0.0000000000    10.0192033545
Ni      4.9213653839     1.4225857500    12.0705018304
Ni      3.6967638997     0.7160224207    14.1212311860
Ni      4.9145625469     2.8374249112     8.0127033495
Ni      3.6859228216     2.1280686834    10.0192033545
Ni      6.1503529497     3.5509085402    12.0699854915
Ni      4.9256539069     2.8438285306    14.1202327617
Ni      6.1432395878     4.9655574374     8.0127033495
Ni      4.9145998625     4.2562012095    10.0192033545
Ni      7.3794585706     5.6794809406    12.0703411417
Ni      6.1541912510     4.9717126524    14.1210383973
Ni      6.1432764474     0.7093562278     8.0127033495
Ni      4.9146367221    -0.0000000000    10.0192033545
Ni      7.3792576901     1.4227490418    12.0709363656
Ni      6.1539445722     0.7158998925    14.1220190429
Ni      7.3719166287     2.8374249112     8.0127033495
Ni      6.1432769035     2.1280686834    10.0192033545
Ni      8.6083025545     3.5510600089    12.0703431006
Ni      7.3827250276     2.8438303041    14.1210406577
Ni      8.6005936697     4.9655574374     8.0127033495
Ni      7.3719539444     4.2562012095    10.0192033545
Ni      9.8373683369     5.6796094234    12.0707933550
Ni      8.6114301675     4.9718114503    14.1216528753
Cu     -0.0000377238     0.0003771569    22.7028859722
Cu      1.2086727980     2.1270009729    22.6768356799
Cu      2.4467759850     4.2835101077    22.6703027205
Cu      2.4496509292    -0.0215269245    22.6688749439
Cu      0.0125988505     0.0072754476    16.2332161102
Cu      2.4696349891     1.4258444684    18.3916416570
Cu      1.2357013061     0.7134308093    20.5525806734
Cu      3.7014215118     2.1633395241    22.5196622336
Cu      1.2416711544     2.1361120827    16.2320324925
Cu      3.6976153977     3.5539780780    18.3918749325
Cu      2.4641651968     2.8415663609    20.5535203685
Cu      4.9290786925     4.2790777219    22.6743643420
Cu      4.9259654486    -0.0159312551    22.6797854680
Cu      2.4707625323     0.0072639821    16.2320277932
Cu      4.9266420746     1.4252400817    18.3918761583
Cu      3.6929504693     0.7132457861    20.5535179654
Cu      6.1638655861     2.1261556720    22.6855951707
Cu      3.6999344853     2.1361584753    16.2305426330
Cu      6.1546566898     3.5533933395    18.3924014903
Cu      4.9213317101     2.8413334155    20.5541973442
Cu      7.3729040730     4.2576092999    22.7056413435
Cu      2.4703615692     4.2639064921    16.2323564383
Cu      4.9258612022     5.6821553099    18.3929147418
Cu      3.6923908304     4.9692750903    20.5536695377
Cu      4.9284376454     4.2641058199    16.2311095738
Cu      7.3827816611     5.6818035922    18.3933612343
Cu      6.1495647783     4.9691763920    20.5547682837
Cu      4.9278325409     0.0074438059    16.2323521866
Cu      7.3838191099     1.4248449337    18.3929204237
Cu      6.1497113719     0.7130663237    20.5536678351
Cu      6.1570438883     2.1360992535    16.2311101997
Cu      8.6119749333     3.5527772255    18.3933657681
Cu      7.3782123231     2.8410932514    20.5547689064
Cu      7.3856113588     4.2640840866    16.2316791967
Cu      9.8400295452     5.6811466362    18.3940799063
Cu      8.6063487219     4.9688802328    20.5550099945
O       3.9947639370     0.7787221413    26.8240031206
O       3.4333386068     2.0964091880    24.5789139878
O       3.4886010080     2.1337011557    29.2955790195
C       3.5236335527     2.1364322857    26.9118971743
C       3.9861175957     2.8656763970    25.6611087104
C       3.9895658568     2.8339376142    28.1627585479
H       2.4264120467     2.0592219593    26.8705769032
H       5.0965417239     2.8934506354    25.5767550326
H       3.6012189128     3.8915156996    25.5503261069
H       3.6428376237     3.8846687415    28.1459659884
H       5.0976259296     2.8360586743    28.1473259158
H       4.9647895649     0.8266472334    26.8494414705
H       3.8364367145     1.1923356942    24.5976522741
H       3.8364702163     2.6005422683    30.0703187757
86
Step 5 | ATOMIC_POSITIONS (angstrom) | Cartesian Angstrom
Ni      1.2286420027     0.7093562278     8.0127033495
Ni      0.0000022775    -0.0000000000    10.0192033545
Ni      2.4637570809     1.4224515552    12.0711324136
Ni      1.2397802907     0.7157901456    14.1224527674
Ni      2.4572821841     2.8374249112     8.0127033495
Ni      1.2286424588     2.1280686834    10.0192033545
Ni      3.6926781159     3.5507357065    12.0705045449
Ni      2.4684725529     2.8434817294    14.1212345102
Ni      3.6859592251     4.9655574374     8.0127033495
Ni      2.4573194998     4.2562012095    10.0192033545
Ni      4.9217656993     5.6792526148    12.0709362359
Ni      3.6969571749     4.9715231220    14.1220203985
Ni      3.6859223655     0.7093562278     8.0127033495
Ni      2.4572826402    -0.0000000000    10.0192033545
Ni      4.9213653839     1.4225857500    12.0705018304
Ni      3.6967638997     0.7160224207    14.1212311860
Ni      4.9145625469     2.8374249112     8.0127033495
Ni      3.6859228216     2.1280686834    10.0192033545
Ni      6.1503529497     3.5509085402    12.0699854915
Ni      4.9256539069     2.8438285306    14.1202327617
Ni      6.1432395878     4.9655574374     8.0127033495
Ni      4.9145998625     4.2562012095    10.0192033545
Ni      7.3794585706     5.6794809406    12.0703411417
Ni      6.1541912510     4.9717126524    14.1210383973
Ni      6.1432764474     0.7093562278     8.0127033495
Ni      4.9146367221    -0.0000000000    10.0192033545
Ni      7.3792576901     1.4227490418    12.0709363656
Ni      6.1539445722     0.7158998925    14.1220190429
Ni      7.3719166287     2.8374249112     8.0127033495
Ni      6.1432769035     2.1280686834    10.0192033545
Ni      8.6083025545     3.5510600089    12.0703431006
Ni      7.3827250276     2.8438303041    14.1210406577
Ni      8.6005936697     4.9655574374     8.0127033495
Ni      7.3719539444     4.2562012095    10.0192033545
Ni      9.8373683369     5.6796094234    12.0707933550
Ni      8.6114301675     4.9718114503    14.1216528753
Cu      0.0002760933     0.0012291836    22.7033036844
Cu      1.2087850894     2.1268912700    22.6627452080
Cu      2.4451152850     4.2891839332    22.6534663371
Cu      2.4512001901    -0.0212701405    22.6493625979
Cu      0.0125988505     0.0072754476    16.2332161102
Cu      2.4696349891     1.4258444684    18.3916416570
Cu      1.2357013061     0.7134308093    20.5525806734
Cu      3.7014779136     2.1706889366    22.5125669343
Cu      1.2416711544     2.1361120827    16.2320324925
Cu      3.6976153977     3.5539780780    18.3918749325
Cu      2.4641651968     2.8415663609    20.5535203685
Cu      4.9325538622     4.2839520694    22.6586688319
Cu      4.9257543772    -0.0141565264    22.6662005350
Cu      2.4707625323     0.0072639821    16.2320277932
Cu      4.9266420746     1.4252400817    18.3918761583
Cu      3.6929504693     0.7132457861    20.5535179654
Cu      6.1660533257     2.1259484601    22.6750255898
Cu      3.6999344853     2.1361584753    16.2305426330
Cu      6.1546566898     3.5533933395    18.3924014903
Cu      4.9213317101     2.8413334155    20.5541973442
Cu      7.3734704494     4.2574939476    22.7051635317
Cu      2.4703615692     4.2639064921    16.2323564383
Cu      4.9258612022     5.6821553099    18.3929147418
Cu      3.6923908304     4.9692750903    20.5536695377
Cu      4.9284376454     4.2641058199    16.2311095738
Cu      7.3827816611     5.6818035922    18.3933612343
Cu      6.1495647783     4.9691763920    20.5547682837
Cu      4.9278325409     0.0074438059    16.2323521866
Cu      7.3838191099     1.4248449337    18.3929204237
Cu      6.1497113719     0.7130663237    20.5536678351
Cu      6.1570438883     2.1360992535    16.2311101997
Cu      8.6119749333     3.5527772255    18.3933657681
Cu      7.3782123231     2.8410932514    20.5547689064
Cu      7.3856113588     4.2640840866    16.2316791967
Cu      9.8400295452     5.6811466362    18.3940799063
Cu      8.6063487219     4.9688802328    20.5550099945
O       3.9950583823     0.7799815824    26.8277704405
O       3.4212680985     2.0820009172    24.5899309650
O       3.4864899069     2.1403610990    29.3073940215
C       3.5341577969     2.1385706235    26.9176712707
C       3.9822856159     2.8603185036    25.6554627775
C       3.9949503171     2.8357038893    28.1717117530
H       2.4383828625     2.0623982669    26.8807077363
H       5.0893749481     2.9043674185    25.5861088084
H       3.6010510560     3.8859549989    25.5518052444
H       3.6465359221     3.8844290383    28.1390701747
H       5.1005942004     2.8466912855    28.1478477053
H       4.9702947132     0.8100705804    26.8553901346
H       3.8241926463     1.1847216185    24.6398638572
H       3.8300504535     2.5926371196    30.0908981112
86
Step 6 | ATOMIC_POSITIONS (angstrom) | Cartesian Angstrom
Ni      1.2286420027     0.7093562278     8.0127033495
Ni      0.0000022775     0.0000000000    10.0192033545
Ni      2.4637570809     1.4224515552    12.0711324136
Ni      1.2397802907     0.7157901456    14.1224527674
Ni      2.4572821841     2.8374249112     8.0127033495
Ni      1.2286424588     2.1280686834    10.0192033545
Ni      3.6926781159     3.5507357065    12.0705045449
Ni      2.4684725529     2.8434817294    14.1212345102
Ni      3.6859592251     4.9655574374     8.0127033495
Ni      2.4573194998     4.2562012095    10.0192033545
Ni      4.9217656993     5.6792526148    12.0709362359
Ni      3.6969571749     4.9715231220    14.1220203985
Ni      3.6859223655     0.7093562278     8.0127033495
Ni      2.4572826402     0.0000000000    10.0192033545
Ni      4.9213653839     1.4225857500    12.0705018304
Ni      3.6967638997     0.7160224207    14.1212311860
Ni      4.9145625469     2.8374249112     8.0127033495
Ni      3.6859228216     2.1280686834    10.0192033545
Ni      6.1503529497     3.5509085402    12.0699854915
Ni      4.9256539069     2.8438285306    14.1202327617
Ni      6.1432395878     4.9655574374     8.0127033495
Ni      4.9145998625     4.2562012095    10.0192033545
Ni      7.3794585706     5.6794809406    12.0703411417
Ni      6.1541912510     4.9717126524    14.1210383973
Ni      6.1432764474     0.7093562278     8.0127033495
Ni      4.9146367221     0.0000000000    10.0192033545
Ni      7.3792576901     1.4227490418    12.0709363656
Ni      6.1539445722     0.7158998925    14.1220190429
Ni      7.3719166287     2.8374249112     8.0127033495
Ni      6.1432769035     2.1280686834    10.0192033545
Ni      8.6083025545     3.5510600089    12.0703431006
Ni      7.3827250276     2.8438303041    14.1210406577
Ni      8.6005936697     4.9655574374     8.0127033495
Ni      7.3719539444     4.2562012095    10.0192033545
Ni      9.8373683369     5.6796094234    12.0707933550
Ni      8.6114301675     4.9718114503    14.1216528753
Cu      0.0009222958     0.0026604652    22.7040891644
Cu      1.2116317371     2.1273038548    22.6478654806
Cu      2.4447149804     4.2930642959    22.6360646226
Cu      2.4544875804    -0.0174846917    22.6284476914
Cu      0.0125988505     0.0072754476    16.2332161102
Cu      2.4696349891     1.4258444684    18.3916416570
Cu      1.2357013061     0.7134308093    20.5525806734
Cu      3.7001887165     2.1752433584    22.5245642407
Cu      1.2416711544     2.1361120827    16.2320324925
Cu      3.6976153977     3.5539780780    18.3918749325
Cu      2.4641651968     2.8415663609    20.5535203685
Cu      4.9348933886     4.2870884285    22.6426092649
Cu      4.9240699333    -0.0090765919    22.6515582468
Cu      2.4707625323     0.0072639821    16.2320277932
Cu      4.9266420746     1.4252400817    18.3918761583
Cu      3.6929504693     0.7132457861    20.5535179654
Cu      6.1659803382     2.1262929506    22.6640322318
Cu      3.6999344853     2.1361584753    16.2305426330
Cu      6.1546566898     3.5533933395    18.3924014903
Cu      4.9213317101     2.8413334155    20.5541973442
Cu      7.3744916293     4.2574393084    22.7049402790
Cu      2.4703615692     4.2639064921    16.2323564383
Cu      4.9258612022     5.6821553099    18.3929147418
Cu      3.6923908304     4.9692750903    20.5536695377
Cu      4.9284376454     4.2641058199    16.2311095738
Cu      7.3827816611     5.6818035922    18.3933612343
Cu      6.1495647783     4.9691763920    20.5547682837
Cu      4.9278325409     0.0074438059    16.2323521866
Cu      7.3838191099     1.4248449337    18.3929204237
Cu      6.1497113719     0.7130663237    20.5536678351
Cu      6.1570438883     2.1360992535    16.2311101997
Cu      8.6119749333     3.5527772255    18.3933657681
Cu      7.3782123231     2.8410932514    20.5547689064
Cu      7.3856113588     4.2640840866    16.2316791967
Cu      9.8400295452     5.6811466362    18.3940799063
Cu      8.6063487219     4.9688802328    20.5550099945
O       4.0020303289     0.7797561798    26.8350662311
O       3.4152098189     2.0735951823    24.5959777304
O       3.4856272352     2.1486248692    29.3164753558
C       3.5429607639     2.1417212610    26.9203736341
C       3.9759142519     2.8559802166    25.6532529221
C       4.0009358622     2.8384697632    28.1772170656
H       2.4485724303     2.0656139845    26.8950505719
H       5.0797082146     2.9138330122    25.5916992730
H       3.5983893797     3.8773670853    25.5531276337
H       3.6504094880     3.8835903206    28.1341523564
H       5.1063178199     2.8582199589    28.1547703979
H       4.9728131820     0.7904154094    26.8630313421
H       3.8082204967     1.1709811586    24.6880887948
H       3.8241329665     2.5856409306    30.1176011350
86
Step 7 | ATOMIC_POSITIONS (angstrom) | Cartesian Angstrom
Ni      1.2286420027     0.7093562278     8.0127033495
Ni      0.0000022775     0.0000000000    10.0192033545
Ni      2.4637570809     1.4224515552    12.0711324136
Ni      1.2397802907     0.7157901456    14.1224527674
Ni      2.4572821841     2.8374249112     8.0127033495
Ni      1.2286424588     2.1280686834    10.0192033545
Ni      3.6926781159     3.5507357065    12.0705045449
Ni      2.4684725529     2.8434817294    14.1212345102
Ni      3.6859592251     4.9655574374     8.0127033495
Ni      2.4573194998     4.2562012095    10.0192033545
Ni      4.9217656993     5.6792526148    12.0709362359
Ni      3.6969571749     4.9715231220    14.1220203985
Ni      3.6859223655     0.7093562278     8.0127033495
Ni      2.4572826402     0.0000000000    10.0192033545
Ni      4.9213653839     1.4225857500    12.0705018304
Ni      3.6967638997     0.7160224207    14.1212311860
Ni      4.9145625469     2.8374249112     8.0127033495
Ni      3.6859228216     2.1280686834    10.0192033545
Ni      6.1503529497     3.5509085402    12.0699854915
Ni      4.9256539069     2.8438285306    14.1202327617
Ni      6.1432395878     4.9655574374     8.0127033495