86
Step 1 | ATOMIC_POSITIONS (angstrom) | Cartesian Angstrom
Ni      0.0000000000     0.0000000000    10.0000000900
Ni      8.6005476670     2.1280836470    10.0000000900
Ni      9.8291973330     4.2561672950    10.0000000900
Ni      2.4572993330     0.0000000000    10.0000000900
Ni      3.6859490000     2.1280836470    10.0000000900
Ni      4.9145986670     4.2561672950    10.0000000900
Ni      4.9145986670     0.0000000000    10.0000000900
Ni      6.1432483330     2.1280836470    10.0000000900
Ni      7.3718980000     4.2561672950    10.0000000900
Ni      1.6381995390     1.4187224170    12.0063763950
Ni      2.8668492300     3.5468061070    12.0063763950
Ni      4.0954988850     5.6748897330    12.0063763950
Ni      4.0954988480     1.4187224170    12.0063763950
Ni      5.3241485390     3.5468061070    12.0063763950
Ni      6.5527981940     5.6748897330    12.0063763950
Ni      6.5527982300     1.4187224170    12.0063763950
Ni      7.7814479220     3.5468061070    12.0063763950
Ni      9.0100975760     5.6748897330    12.0063763950
Ni      2.0477494240     0.7093612090    14.1640614080
Ni      3.2763990780     2.8374448350    14.1640729510
Ni      4.5050487700     4.9655285250    14.1640397250
Ni      4.5050488060     0.7093612090    14.1640710440
Ni      5.7336984610     2.8374448350    14.1640423650
Ni      6.9623481520     4.9655285250    14.1640482520
Ni      6.9623481150     0.7093612090    14.1640292020
Ni      8.1909977700     2.8374448350    14.1640591990
Ni      9.4196474610     4.9655285250    14.1640542750
Ni      0.0000000000     0.0000000000    16.3281461600
Ni      8.6005476670     2.1280836470    16.3282017120
Ni      9.8291973330     4.2561672950    16.3281943160
Ni      2.4572993330     0.0000000000    16.3281936330
Ni      3.6859490000     2.1280836470    16.3282178260
Ni      4.9145986670     4.2561672950    16.3281642570
Ni      4.9145986670     0.0000000000    16.3282096040
Ni      6.1432483330     2.1280836470    16.3281694310
Ni      7.3718980000     4.2561672950    16.3281777140
Cu      1.6381995390     1.4187224170    18.5439570380
Cu      2.8668492300     3.5468061070    18.5439633170
Cu      4.0954988850     5.6748897330    18.5439058500
Cu      4.0954988480     1.4187224170    18.5439876690
Cu      5.3241485390     3.5468061070    18.5439225600
Cu      6.5527981940     5.6748897330    18.5439394360
Cu      6.5527982300     1.4187224170    18.5439267690
Cu      7.7814479220     3.5468061070    18.5439293780
Cu      9.0100975760     5.6748897330    18.5439799570
Cu      2.0480898081     0.7089932256    20.7902976008
Cu      3.2766987199     2.8375707569    20.7901378368
Cu      4.5053024908     4.9651798924    20.7899271174
Cu      4.5051464402     0.7097295618    20.7903790369
Cu      5.7336748495     2.8373571703    20.7896736123
Cu      6.9621521432     4.9653639572    20.7899504413
Cu      6.9642650690     0.7097015836    20.7904377509
Cu      8.1908137964     2.8377859254    20.7901361549
Cu      9.4197837288     4.9651616232    20.7903660579
Cu      0.0033176007    -0.0059458219    23.0257684022
Cu      8.6033587263     2.1224488631    23.0260590508
Cu      9.8328661187     4.2508586573    23.0268149324
Cu      2.4601693236    -0.0059011558    23.0267669061
Cu      3.6896213979     2.1230003290    23.0278848186
Cu      4.9182046239     4.2498034909    23.0282753611
Cu      4.9180608647    -0.0054771846    23.0259216126
Cu      6.1455608974     2.1240058397    23.0292534200
Cu      7.3746034350     4.2504539010    23.0276874211
Cu      1.8391121348     1.0698948735    25.1888570701
Cu      3.0625504025     3.1978338660    25.1844965350
Cu      4.2933112162     5.3324489019    25.1829265752
Cu      4.2948206994     1.0653549848    25.1851329161
Cu      5.5271383373     3.2041118468    25.1504439274
Cu      6.7575038871     5.3318447824    25.1823343449
Cu      6.7565410573     1.0655602280    25.1855382877
Cu      7.9879264433     3.1975625825    25.1849036850
Cu      9.2112004014     5.3264070326    25.1888771454
O       5.9333700507     1.9993197334    29.4559183692
O       5.4398086156     3.3573059199    27.1168001652
O       5.4451318361     3.3461153521    31.9037371244
C       5.4547884978     3.3491370211    29.4918977535
C       5.9222361222     4.0692358949    28.2388775756
C       5.9275221765     4.0428107436    30.7536732792
H       4.3403238929     3.2647671543    29.4877325227
H       7.0259236258     4.0832762023    28.1808467002
H       5.5496252351     5.0886895497    28.1779132827
H       5.5833532909     5.0832393061    30.7861944309
H       7.0362144845     4.0314223137    30.7864455279
H       6.9126971099     2.0578273723    29.4645581410
H       5.7895813644     2.4290151360    27.1538345099
H       5.7894387835     3.8227715779    32.6758613026
86
Step 2 | ATOMIC_POSITIONS (angstrom) | Cartesian Angstrom
Ni      0.0000000000     0.0000000000    10.0000000900
Ni      8.6005476670     2.1280836470    10.0000000900
Ni      9.8291973330     4.2561672950    10.0000000900
Ni      2.4572993330     0.0000000000    10.0000000900
Ni      3.6859490000     2.1280836470    10.0000000900
Ni      4.9145986670     4.2561672950    10.0000000900
Ni      4.9145986670     0.0000000000    10.0000000900
Ni      6.1432483330     2.1280836470    10.0000000900
Ni      7.3718980000     4.2561672950    10.0000000900
Ni      1.6381995390     1.4187224170    12.0063763950
Ni      2.8668492300     3.5468061070    12.0063763950
Ni      4.0954988850     5.6748897330    12.0063763950
Ni      4.0954988480     1.4187224170    12.0063763950
Ni      5.3241485390     3.5468061070    12.0063763950
Ni      6.5527981940     5.6748897330    12.0063763950
Ni      6.5527982300     1.4187224170    12.0063763950
Ni      7.7814479220     3.5468061070    12.0063763950
Ni      9.0100975760     5.6748897330    12.0063763950
Ni      2.0477494240     0.7093612090    14.1640614080
Ni      3.2763990780     2.8374448350    14.1640729510
Ni      4.5050487700     4.9655285250    14.1640397250
Ni      4.5050488060     0.7093612090    14.1640710440
Ni      5.7336984610     2.8374448350    14.1640423650
Ni      6.9623481520     4.9655285250    14.1640482520
Ni      6.9623481150     0.7093612090    14.1640292020
Ni      8.1909977700     2.8374448350    14.1640591990
Ni      9.4196474610     4.9655285250    14.1640542750
Ni      0.0000000000     0.0000000000    16.3281461600
Ni      8.6005476670     2.1280836470    16.3282017120
Ni      9.8291973330     4.2561672950    16.3281943160
Ni      2.4572993330     0.0000000000    16.3281936330
Ni      3.6859490000     2.1280836470    16.3282178260
Ni      4.9145986670     4.2561672950    16.3281642570
Ni      4.9145986670     0.0000000000    16.3282096040
Ni      6.1432483330     2.1280836470    16.3281694310
Ni      7.3718980000     4.2561672950    16.3281777140
Cu      1.6381995390     1.4187224170    18.5439570380
Cu      2.8668492300     3.5468061070    18.5439633170
Cu      4.0954988850     5.6748897330    18.5439058500
Cu      4.0954988480     1.4187224170    18.5439876690
Cu      5.3241485390     3.5468061070    18.5439225600
Cu      6.5527981940     5.6748897330    18.5439394360
Cu      6.5527982300     1.4187224170    18.5439267690
Cu      7.7814479220     3.5468061070    18.5439293780
Cu      9.0100975760     5.6748897330    18.5439799570
Cu      2.0488437998     0.7081515561    20.7907795749
Cu      3.2773998269     2.8376635668    20.7903273573
Cu      4.5059322004     4.9643040957    20.7897992231
Cu      4.5053723250     0.7104313224    20.7908710801
Cu      5.7337482047     2.8369834335    20.7888641289
Cu      6.9618692453     4.9648733247    20.7898095000
Cu      6.9630974837     0.7103902649    20.7912946436
Cu      8.1905112379     2.8384140492    20.7902701707
Cu      9.4201300979     4.9643112120    20.7909199954
Cu      0.0115284419    -0.0205900497    23.0216092233
Cu      8.6107296984     2.1080589264    23.0232932747
Cu      9.8417551393     4.2375998940    23.0257604428
Cu      2.4673469887    -0.0202053125    23.0254911493
Cu      3.6985488911     2.1100010454    23.0295020763
Cu      4.9260815727     4.2358610056    23.0278603010
Cu      4.9267921095    -0.0194783996    23.0227674511
Cu      6.1525491537     2.1116840364    23.0316913785
Cu      7.3816785413     4.2361330662    23.0288192153
Cu      1.8386166720     1.0691388309    25.1929734884
Cu      3.0516524700     3.1965539428    25.1784056325
Cu      4.2863973409     5.3447939191    25.1732045624
Cu      4.2915067760     1.0559038008    25.1803517679
Cu      5.5312306628     3.2171405948    25.0829758045
Cu      6.7651632287     5.3431903465    25.1712687733
Cu      6.7612803433     1.0566974238    25.1821418442
Cu      7.9986458699     3.1958288210    25.1799101310
Cu      9.2110244000     5.3262799928    25.1929055369
O       5.9383592873     1.9819386202    29.4446570496
O       5.4131457310     3.3283273358    27.1628662490
O       5.4326747094     3.3378806371    31.9110585541
C       5.4607679520     3.3466760637    29.5101885981
C       5.9348742418     4.0793757897    28.2621470193
C       5.9312906682     4.0443358535    30.7699651396
H       4.3572313800     3.2669663216    29.4878784992
H       7.0335141291     4.0936436827    28.1898884266
H       5.5437182263     5.1023036891    28.1688044537
H       5.5831063605     5.1004350293    30.7738479379
H       7.0424605311     4.0400359246    30.7707021447
H       6.9060599662     2.0509071282    29.4679889968
H       5.7841799469     2.4158711124    27.1779389056
H       5.7855905101     3.8182102605    32.6789630475
86
Step 3 | ATOMIC_POSITIONS (angstrom) | Cartesian Angstrom
Ni      0.0000000000     0.0000000000    10.0000000900
Ni      8.6005476670     2.1280836470    10.0000000900
Ni      9.8291973330     4.2561672950    10.0000000900
Ni      2.4572993330     0.0000000000    10.0000000900
Ni      3.6859490000     2.1280836470    10.0000000900
Ni      4.9145986670     4.2561672950    10.0000000900
Ni      4.9145986670     0.0000000000    10.0000000900
Ni      6.1432483330     2.1280836470    10.0000000900
Ni      7.3718980000     4.2561672950    10.0000000900
Ni      1.6381995390     1.4187224170    12.0063763950
Ni      2.8668492300     3.5468061070    12.0063763950
Ni      4.0954988850     5.6748897330    12.0063763950
Ni      4.0954988480     1.4187224170    12.0063763950
Ni      5.3241485390     3.5468061070    12.0063763950
Ni      6.5527981940     5.6748897330    12.0063763950
Ni      6.5527982300     1.4187224170    12.0063763950
Ni      7.7814479220     3.5468061070    12.0063763950
Ni      9.0100975760     5.6748897330    12.0063763950
Ni      2.0477494240     0.7093612090    14.1640614080
Ni      3.2763990780     2.8374448350    14.1640729510
Ni      4.5050487700     4.9655285250    14.1640397250
Ni      4.5050488060     0.7093612090    14.1640710440
Ni      5.7336984610     2.8374448350    14.1640423650
Ni      6.9623481520     4.9655285250    14.1640482520
Ni      6.9623481150     0.7093612090    14.1640292020
Ni      8.1909977700     2.8374448350    14.1640591990
Ni      9.4196474610     4.9655285250    14.1640542750
Ni      0.0000000000     0.0000000000    16.3281461600
Ni      8.6005476670     2.1280836470    16.3282017120
Ni      9.8291973330     4.2561672950    16.3281943160
Ni      2.4572993330     0.0000000000    16.3281936330
Ni      3.6859490000     2.1280836470    16.3282178260
Ni      4.9145986670     4.2561672950    16.3281642570
Ni      4.9145986670     0.0000000000    16.3282096040
Ni      6.1432483330     2.1280836470    16.3281694310
Ni      7.3718980000     4.2561672950    16.3281777140
Cu      1.6381995390     1.4187224170    18.5439570380
Cu      2.8668492300     3.5468061070    18.5439633170
Cu      4.0954988850     5.6748897330    18.5439058500
Cu      4.0954988480     1.4187224170    18.5439876690
Cu      5.3241485390     3.5468061070    18.5439225600
Cu      6.5527981940     5.6748897330    18.5439394360
Cu      6.5527982300     1.4187224170    18.5439267690
Cu      7.7814479220     3.5468061070    18.5439293780
Cu      9.0100975760     5.6748897330    18.5439799570
Cu      2.0492714565     0.7076128149    20.7915592365
Cu      3.2779088325     2.8373622828    20.7912069265
Cu      4.5063838108     4.9636755865    20.7901547700
Cu      4.5055355559     0.7106195468    20.7915737602
Cu      5.7340042234     2.8364781883    20.7889424904
Cu      6.9619766828     4.9643300092    20.7904424771
Cu      6.9624916073     0.7106806136    20.7922554725
Cu      8.1905304348     2.8385194516    20.7908208842
Cu      9.4204308734     4.9637497680    20.7917953697
Cu      0.0180165989    -0.0320571604    23.0163434861
Cu      8.6172795198     2.0959545284    23.0203516928
Cu      9.8484732968     4.2268114836    23.0240040631
Cu      2.4732106423    -0.0310662436    23.0230858266
Cu      3.7055247184     2.0990797145    23.0298691647
Cu      4.9305540000     4.2278057663    23.0207530447
Cu      4.9339244188    -0.0313148768    23.0197104994
Cu      6.1600971530     2.0982836450    23.0283573312
Cu      7.3877748697     4.2243822021    23.0285666347
Cu      1.8387899906     1.0683271230    25.1961993548
Cu      3.0477618974     3.1951415067    25.1745815356
Cu      4.2836962345     5.3497934363    25.1667781319
Cu      4.2912308934     1.0522756558    25.1768071278
Cu      5.5341984351     3.2240970731    25.0563658382
Cu      6.7696231661     5.3482352153    25.1641480193
Cu      6.7629544799     1.0534882774    25.1796254469
Cu      8.0034684559     3.1943814939    25.1767409855
Cu      9.2112358283     5.3255872267    25.1961197675
O       5.9326470228     1.9821017665    29.4398245877
O       5.3954933320     3.3148353472    27.1782525875
O       5.4307751329     3.3416714912    31.9155462959
C       5.4670887296     3.3455107311    29.5217472120
C       5.9334372849     4.0774891936    28.2719835182
C       5.9320758147     4.0447945250    30.7773121868
H       4.3686409632     3.2684438334    29.4893632659
H       7.0402673719     4.1024836043    28.1961565410
H       5.5421600715     5.1055476597    28.1647166292
H       5.5854696557     5.1022956572    30.7668934170
H       7.0435578351     4.0464634505    30.7647646883
H       6.9116555239     2.0428902598    29.4712530468
H       5.7809480496     2.4062930825    27.1991791481
H       5.7806010245     3.8119051136    32.6838931730
86
Step 4 | ATOMIC_POSITIONS (angstrom) | Cartesian Angstrom
Ni      0.0000000000     0.0000000000    10.0000000900
Ni      8.6005476670     2.1280836470    10.0000000900
Ni      9.8291973330     4.2561672950    10.0000000900
Ni      2.4572993330     0.0000000000    10.0000000900
Ni      3.6859490000     2.1280836470    10.0000000900
Ni      4.9145986670     4.2561672950    10.0000000900
Ni      4.9145986670     0.0000000000    10.0000000900
Ni      6.1432483330     2.1280836470    10.0000000900
Ni      7.3718980000     4.2561672950    10.0000000900
Ni      1.6381995390     1.4187224170    12.0063763950
Ni      2.8668492300     3.5468061070    12.0063763950
Ni      4.0954988850     5.6748897330    12.0063763950
Ni      4.0954988480     1.4187224170    12.0063763950
Ni      5.3241485390     3.5468061070    12.0063763950
Ni      6.5527981940     5.6748897330    12.0063763950
Ni      6.5527982300     1.4187224170    12.0063763950
Ni      7.7814479220     3.5468061070    12.0063763950
Ni      9.0100975760     5.6748897330    12.0063763950
Ni      2.0477494240     0.7093612090    14.1640614080
Ni      3.2763990780     2.8374448350    14.1640729510
Ni      4.5050487700     4.9655285250    14.1640397250
Ni      4.5050488060     0.7093612090    14.1640710440
Ni      5.7336984610     2.8374448350    14.1640423650
Ni      6.9623481520     4.9655285250    14.1640482520
Ni      6.9623481150     0.7093612090    14.1640292020
Ni      8.1909977700     2.8374448350    14.1640591990
Ni      9.4196474610     4.9655285250    14.1640542750
Ni      0.0000000000     0.0000000000    16.3281461600
Ni      8.6005476670     2.1280836470    16.3282017120
Ni      9.8291973330     4.2561672950    16.3281943160
Ni      2.4572993330     0.0000000000    16.3281936330
Ni      3.6859490000     2.1280836470    16.3282178260
Ni      4.9145986670     4.2561672950    16.3281642570
Ni      4.9145986670     0.0000000000    16.3282096040
Ni      6.1432483330     2.1280836470    16.3281694310
Ni      7.3718980000     4.2561672950    16.3281777140
Cu      1.6381995390     1.4187224170    18.5439570380
Cu      2.8668492300     3.5468061070    18.5439633170
Cu      4.0954988850     5.6748897330    18.5439058500
Cu      4.0954988480     1.4187224170    18.5439876690
Cu      5.3241485390     3.5468061070    18.5439225600
Cu      6.5527981940     5.6748897330    18.5439394360
Cu      6.5527982300     1.4187224170    18.5439267690
Cu      7.7814479220     3.5468061070    18.5439293780
Cu      9.0100975760     5.6748897330    18.5439799570
Cu      2.0499351962     0.7066879063    20.7933128792
Cu      3.2788753872     2.8363916165    20.7937133919
Cu      4.5070809877     4.9627540463    20.7902476114
Cu      4.5058172441     0.7105540953    20.7932568968
Cu      5.7346483885     2.8353999689    20.7895077221
Cu      6.9625266504     4.9631038544    20.7924579503
Cu      6.9616494457     0.7109826016    20.7940180956
Cu      8.1908698437     2.8383169930    20.7923256885
Cu      9.4210541567     4.9627422680    20.7938653101
Cu      0.0308259277    -0.0546196188    23.0041873121
Cu      8.6310807963     2.0714860673    23.0139718677
Cu      9.8612374078     4.2050626496    23.0197121506
Cu      2.4851973255    -0.0520672101    23.0169575936
Cu      3.7195230953     2.0771177276    23.0293772560
Cu      4.9385204040     4.2133217148    23.0006174952
Cu      4.9480010062    -0.0555918267    23.0133093831
Cu      6.1762747480     2.0694338624    23.0172488366
Cu      7.3999649325     4.2006150746    23.0266682999
Cu      1.8398431568     1.0662864380    25.2023048257
Cu      3.0449188817     3.1918346174    25.1679467527
Cu      4.2813026156     5.3547007249    25.1550559957
Cu      4.2931702719     1.0486148394    25.1699278554
Cu      5.5401153823     3.2334867048    25.0251070389
Cu      6.7769330449     5.3539985721    25.1518503675
Cu      6.7645348640     1.0504913175    25.1745311242
Cu      8.0095867014     3.1912367016    25.1711888395
Cu      9.2122837179     5.3234661781    25.2022759868
O       5.9394971743     1.9862572281    29.4361439121
O       5.3695987813     3.2937333887    27.1997754141
O       5.4276862078     3.3489937014    31.9177589027
C       5.4784692921     3.3467417483    29.5368943756
C       5.9291738449     4.0746705116    28.2796268104
C       5.9351026037     4.0468286273    30.7871631729
H       4.3846681700     3.2713804910    29.4948609288
H       7.0446925763     4.1179475326    28.2069523784
H       5.5415819571     5.1019889100    28.1601310227
H       5.5908161342     5.0998028862    30.7557306042
H       7.0443745162     4.0584262017    30.7592598054
H       6.9091569960     2.0239554059    29.4775677427
H       5.7723781873     2.3908975034    27.2413030031
H       5.7735713964     3.8032711848    32.7030098383
86
Step 5 | ATOMIC_POSITIONS (angstrom) | Cartesian Angstrom
Ni      0.0000000000     0.0000000000    10.0000000900
Ni      8.6005476670     2.1280836470    10.0000000900
Ni      9.8291973330     4.2561672950    10.0000000900
Ni      2.4572993330     0.0000000000    10.0000000900
Ni      3.6859490000     2.1280836470    10.0000000900
Ni      4.9145986670     4.2561672950    10.0000000900
Ni      4.9145986670     0.0000000000    10.0000000900
Ni      6.1432483330     2.1280836470    10.0000000900
Ni      7.3718980000     4.2561672950    10.0000000900
Ni      1.6381995390     1.4187224170    12.0063763950
Ni      2.8668492300     3.5468061070    12.0063763950
Ni      4.0954988850     5.6748897330    12.0063763950
Ni      4.0954988480     1.4187224170    12.0063763950
Ni      5.3241485390     3.5468061070    12.0063763950
Ni      6.5527981940     5.6748897330    12.0063763950
Ni      6.5527982300     1.4187224170    12.0063763950
Ni      7.7814479220     3.5468061070    12.0063763950
Ni      9.0100975760     5.6748897330    12.0063763950
Ni      2.0477494240     0.7093612090    14.1640614080
Ni      3.2763990780     2.8374448350    14.1640729510
Ni      4.5050487700     4.9655285250    14.1640397250
Ni      4.5050488060     0.7093612090    14.1640710440
Ni      5.7336984610     2.8374448350    14.1640423650
Ni      6.9623481520     4.9655285250    14.1640482520
Ni      6.9623481150     0.7093612090    14.1640292020
Ni      8.1909977700     2.8374448350    14.1640591990
Ni      9.4196474610     4.9655285250    14.1640542750
Ni      0.0000000000     0.0000000000    16.3281461600
Ni      8.6005476670     2.1280836470    16.3282017120
Ni      9.8291973330     4.2561672950    16.3281943160
Ni      2.4572993330     0.0000000000    16.3281936330
Ni      3.6859490000     2.1280836470    16.3282178260
Ni      4.9145986670     4.2561672950    16.3281642570
Ni      4.9145986670     0.0000000000    16.3282096040
Ni      6.1432483330     2.1280836470    16.3281694310
Ni      7.3718980000     4.2561672950    16.3281777140
Cu      1.6381995390     1.4187224170    18.5439570380
Cu      2.8668492300     3.5468061070    18.5439633170
Cu      4.0954988850     5.6748897330    18.5439058500
Cu      4.0954988480     1.4187224170    18.5439876690
Cu      5.3241485390     3.5468061070    18.5439225600
Cu      6.5527981940     5.6748897330    18.5439394360
Cu      6.5527982300     1.4187224170    18.5439267690
Cu      7.7814479220     3.5468061070    18.5439293780
Cu      9.0100975760     5.6748897330    18.5439799570
Cu      2.0506010828     0.7056103028    20.7956240295
Cu      3.2801387146     2.8346230829    20.7980492819
Cu      4.5076042429     4.9622137329    20.7880308045
Cu      4.5061457098     0.7097831943    20.7958741253
Cu      5.7356399496     2.8339645506    20.7903158647
Cu      6.9636928016     4.9612569280    20.7961003327
Cu      6.9610445841     0.7109755815    20.7955490796
Cu      8.1917778779     2.8374628793    20.7948312098
Cu      9.4219401223     4.9614700911    20.7969038497
Cu      0.0479072605    -0.0846800102    22.9859741934
Cu      8.6507479267     2.0383674641    23.0050073531
Cu      9.8774080552     4.1752839113    23.0130062540
Cu      2.5020024704    -0.0795656567    23.0069651380
Cu      3.7388773624     2.0476784793    23.0266639690
Cu      4.9494722679     4.1933563900    22.9677169456
Cu      4.9664503014    -0.0892567178    23.0045836535
Cu      6.1984277569     2.0297194489    22.9978426129
Cu      7.4159127815     4.1680180848    23.0220021740
Cu      1.8424008364     1.0626350508    25.2097505381
Cu      3.0476271356     3.1865523847    25.1603143641
Cu      4.2822380305     5.3544304465    25.1402942126
Cu      4.2991709828     1.0476538169    25.1609226485
Cu      5.5481390517     3.2395326422    25.0080384591
Cu      6.7849198103     5.3558006745    25.1379221671
Cu      6.7650004263     1.0500344176    25.1672253371
Cu      8.0138014709     3.1863488249    25.1646592650
Cu      9.2149173156     5.3194263359    25.2099218410
O       5.9394807271     1.9927660929    29.4375358278
O       5.3493099757     3.2696042647    27.2178624844
O       5.4280792281     3.3631806784    31.9284072965
C       5.4895429974     3.3505666955    29.5450490990
C       5.9266794538     4.0683620983    28.2800502209
C       5.9443957787     4.0496719877    30.7934527614
H       4.4002230517     3.2742762643    29.5059821723
H       7.0385204931     4.1347909651    28.2173618346
H       5.5400298275     5.0916213492    28.1572717563
H       5.5967078869     5.0948332896    30.7444015356
H       7.0456808023     4.0733411499    30.7604937371
H       6.9185211519     1.9984723868    29.4872844725
H       5.7559896927     2.3765913399    27.2968653031
H       5.7625397667     3.7896624597    32.7261450141
86
Step 6 | ATOMIC_POSITIONS (angstrom) | Cartesian Angstrom
Ni      0.0000000000     0.0000000000    10.0000000900
Ni      8.6005476670     2.1280836470    10.0000000900
Ni      9.8291973330     4.2561672950    10.0000000900
Ni      2.4572993330     0.0000000000    10.0000000900
Ni      3.6859490000     2.1280836470    10.0000000900
Ni      4.9145986670     4.2561672950    10.0000000900
Ni      4.9145986670     0.0000000000    10.0000000900
Ni      6.1432483330     2.1280836470    10.0000000900
Ni      7.3718980000     4.2561672950    10.0000000900
Ni      1.6381995390     1.4187224170    12.0063763950
Ni      2.8668492300     3.5468061070    12.0063763950
Ni      4.0954988850     5.6748897330    12.0063763950
Ni      4.0954988480     1.4187224170    12.0063763950
Ni      5.3241485390     3.5468061070    12.0063763950
Ni      6.5527981940     5.6748897330    12.0063763950
Ni      6.5527982300     1.4187224170    12.0063763950
Ni      7.7814479220     3.5468061070    12.0063763950
Ni      9.0100975760     5.6748897330    12.0063763950
Ni      2.0477494240     0.7093612090    14.1640614080
Ni      3.2763990780     2.8374448350    14.1640729510
Ni      4.5050487700     4.9655285250    14.1640397250
Ni      4.5050488060     0.7093612090    14.1640710440
Ni      5.7336984610     2.8374448350    14.1640423650
Ni      6.9623481520     4.9655285250    14.1640482520
Ni      6.9623481150     0.7093612090    14.1640292020
Ni      8.1909977700     2.8374448350    14.1640591990
Ni      9.4196474610     4.9655285250    14.1640542750
Ni      0.0000000000     0.0000000000    16.3281461600
Ni      8.6005476670     2.1280836470    16.3282017120
Ni      9.8291973330     4.2561672950    16.3281943160
Ni      2.4572993330     0.0000000000    16.3281936330
Ni      3.6859490000     2.1280836470    16.3282178260
Ni      4.9145986670     4.2561672950    16.3281642570
Ni      4.9145986670     0.0000000000    16.3282096040
Ni      6.1432483330     2.1280836470    16.3281694310
Ni      7.3718980000     4.2561672950    16.3281777140
Cu      1.6381995390     1.4187224170    18.5439570380
Cu      2.8668492300     3.5468061070    18.5439633170
Cu      4.0954988850     5.6748897330    18.5439058500
Cu      4.0954988480     1.4187224170    18.5439876690
Cu      5.3241485390     3.5468061070    18.5439225600
Cu      6.5527981940     5.6748897330    18.5439394360
Cu      6.5527982300     1.4187224170    18.5439267690
Cu      7.7814479220     3.5468061070    18.5439293780
Cu      9.0100975760     5.6748897330    18.5439799570
Cu      2.0512293270     0.7044109964    20.7976487428
Cu      3.2816293131     2.8321614384    20.8038356896
Cu      4.5076588976     4.9625415797    20.7806233668
Cu      4.5065442175     0.7079964120    20.7991979878
Cu      5.7369033863     2.8323497504    20.7903821727
Cu      6.9654340303     4.9588819166    20.8010114448
Cu      6.9610012231     0.7103764202    20.7952522781
Cu      8.1933870693     2.8357669675    20.7980800545
Cu      9.4230750054     4.9599043400    20.8003095465
Cu      0.0674732963    -0.1192132286    22.9636531070
Cu      8.6745163568     2.0005098241    22.9948498444
Cu      9.8948066221     4.1402606121    23.0044763742
Cu      2.5223893873    -0.1107285620    22.9936907303
Cu      3.7621167943     2.0144609473    23.0206015592
Cu      4.9647556543     4.1658402904    22.9283008585
Cu      4.9867008799    -0.1290384251    22.9949474922
Cu      6.2227355093     1.9859318702    22.9731575803
Cu      7.4330765858     4.1297518255    23.0140080541
Cu      1.8469098000     1.0568806661    25.2170064108
Cu      3.0572191136     3.1792542822    25.1529638046
Cu      4.2877911724     5.3470724680    25.1236965297
Cu      4.3095403911     1.0489067418    25.1510551758
Cu      5.5572338602     3.2389938858    25.0088756591
Cu      6.7927915992     5.3515545521    25.1248368493
Cu      6.7652184692     1.0512378847    25.1578032557
Cu      8.0159985989     3.1795031859    25.1581244114
Cu      9.2198824225     5.3131882937    25.2176032686
O       5.9489449305     1.9949511164    29.4453182622
O       5.3405425148     3.2536644105    27.2275733031
O       5.4281156084     3.3758358999    31.9329289764
C       5.4994357440     3.3556770815    29.5482911822
C       5.9197787191     4.0597330045    28.2757978654
C       5.9537380406     4.0531217790    30.7989378686
H       4.4104345266     3.2772925080    29.5223376090
H       7.0273292943     4.1482598405    28.2221932984
H       5.5346668882     5.0780275261    28.1556411956
H       5.6015610105     5.0916661495    30.7352511473
H       7.0537260389     4.0885993482    30.7707797070
H       6.9237097082     1.9705742628    29.4993557621
H       5.7340549480     2.3575012915    27.3593280643
H       5.7542897366     3.7798429410    32.7577723839
86
Step 7 | ATOMIC_POSITIONS (angstrom) | Cartesian Angstrom
Ni      0.0000000000     0.0000000000    10.0000000900
Ni      8.6005476670     2.1280836470    10.0000000900
Ni      9.8291973330     4.2561672950    10.0000000900
Ni      2.4572993330     0.0000000000    10.0000000900
Ni      3.6859490000     2.1280836470    10.0000000900
Ni      4.9145986670     4.2561672950    10.0000000900
Ni      4.9145986670     0.0000000000    10.0000000900
Ni      6.1432483330     2.1280836470    10.0000000900
Ni      7.3718980000     4.2561672950    10.0000000900
Ni      1.6381995390     1.4187224170    12.0063763950
Ni      2.8668492300     3.5468061070    12.0063763950
Ni      4.0954988850     5.6748897330    12.0063763950
Ni      4.0954988480     1.4187224170    12.0063763950
Ni      5.3241485390     3.5468061070    12.0063763950
Ni      6.5527981940     5.6748897330    12.0063763950
Ni      6.5527982300     1.4187224170    12.0063763950
Ni      7.7814479220     3.5468061070    12.0063763950
Ni      9.0100975760     5.6748897330    12.0063763950
Ni      2.0477494240     0.7093612090    14.1640614080
Ni      3.2763990780     2.8374448350    14.1640729510
Ni      4.5050487700     4.9655285250    14.1640397250