86
Step 1 | ATOMIC_POSITIONS (crystal) | Cartesian Angstrom
Ni      0.0000000000     0.0000000000     8.0000178266
Ni      1.2286524556     2.1280874857     8.0000178266
Ni      9.8292197554     4.2561750353     8.0000178266
Ni      2.4573049112     0.0000000000     8.0000178266
Ni      3.6859573668     2.1280874857     8.0000178266
Ni      4.9146098593     4.2561750353     8.0000178266
Ni      4.9146098962     0.0000000000     8.0000178266
Ni      6.1432623518     2.1280874857     8.0000178266
Ni      7.3719148442     4.2561750353     8.0000178266
Ni      1.6382032741     1.4187249905    10.0063984752
Ni      2.8668557666     3.5468125401    10.0063984752
Ni      4.0955082222     5.6749000258    10.0063984752
Ni      4.0955081854     1.4187249905    10.0063984752
Ni      5.3241606778     3.5468125401    10.0063984752
Ni      6.5528131334     5.6749000258    10.0063984752
Ni      6.5528131703     1.4187249905    10.0063984752
Ni      7.7814656628     3.5468125401    10.0063984752
Ni      9.0101181184     5.6749000258    10.0063984752
Ni      2.0469924139     0.7107335258    12.0099279952
Ni      3.2756994818     2.8388569914    12.0098598895
Ni      4.5041542071     4.9670042415    12.0096735298
Ni      4.5042850137     0.7109074785    12.0098412307
Ni      5.7328110984     2.8388481530    12.0102590961
Ni      6.9615514767     4.9669737975    12.0098879709
Ni      6.9614698769     0.7107064023    12.0095812235
Ni      8.1900756934     2.8389436692    12.0098887442
Ni      9.4188787579     4.9670363696    12.0098869829
Ni     -0.0007251089     0.0011772069    14.0130151912
Ni      1.2280947581     2.1292016947    14.0132838333
Ni      9.8285496712     4.2571122438    14.0131278462
Ni      2.4568799089     0.0010486221    14.0130860559
Ni      3.6854998687     2.1289813412    14.0131145525
Ni      4.9140953365     4.2570081892    14.0132496707
Ni      4.9139068687     0.0011103222    14.0132128542
Ni      6.1425873608     2.1290624941    14.0131823097
Ni      7.3714040155     4.2571593277    14.0131285240
Cu      1.6387548312     1.4177097880    16.0221580465
Cu      2.8674451696     3.5458644247    16.0216463617
Cu      4.0960349540     5.6739959306    16.0218375138
Cu      4.0959561851     1.4179317810    16.0217323147
Cu      5.3246479960     3.5459821173    16.0212724919
Cu      6.5533805390     5.6739373780    16.0217130401
Cu      6.5533398715     1.4177880234    16.0218809700
Cu      7.7818470049     3.5460523538    16.0217615035
Cu      9.0106929622     5.6739699147    16.0220799551
Cu      2.0478552280     0.7089867737    18.0323517945
Cu      3.2766461285     2.8374667275    18.0319407597
Cu      4.5053608134     4.9652197213    18.0319556954
Cu      4.5050799844     0.7095563483    18.0321656257
Cu      5.7336382420     2.8375085866    18.0315977351
Cu      6.9622629925     4.9653073377    18.0317803573
Cu      6.9623340419     0.7094559417    18.0324259670
Cu      8.1909164993     2.8376044974    18.0320320875
Cu      9.4198471253     4.9651518988    18.0323805108
Cu      0.0008605667    -0.0016003578    20.0388127923
Cu      1.2290827989     2.1267755217    20.0395632765
Cu      9.8304903455     4.2551185880    20.0395753626
Cu      2.4576989478    -0.0016927406    20.0395746132
Cu      3.6870562628     2.1270570504    20.0405393475
Cu      4.9160562876     4.2536045008    20.0425579722
Cu      4.9154647368    -0.0011573940    20.0392323332
Cu      6.1437764160     2.1271856601    20.0406783369
Cu      7.3722958893     4.2547469454    20.0405369084
Cu      1.6467598531     1.4028597412    22.0813446739
Cu      2.8731455157     3.5311417427    22.0789799840
Cu      4.1033051939     5.6619015709    22.0798373140
Cu      4.1024428424     1.3993165617    22.0770533220
Cu      5.3320614767     3.5371059967    22.0777942786
Cu      6.5631463107     5.6620365304    22.0784716930
Cu      6.5658333058     1.3962457513    22.0732878603
Cu      7.7942410857     3.5311631574    22.0774791159
Cu      9.0193722378     5.6598462080    22.0817924298
O       5.4937304866     1.6284435511    26.4359653520
O       5.5221409889     3.1975260498    24.1467963117
O       4.6900700331     2.8303070714    28.8767141515
C       5.1164764496     3.0098245430    26.5093819092
C       5.8404649345     3.7721814831    25.4107296040
C       5.4131544577     3.5643650637    27.8851172460
H       4.0156761895     3.0216112617    26.3112883879
H       6.9384105060     3.6974960473    25.5452876610
H       5.5619654383     4.8243440821    25.3841099190
H       5.1454471205     4.6260262796    27.9508334320
H       6.4959499873     3.4551271220    28.1011866119
H       6.4582516301     1.6015362052    26.6112616194
H       5.7813751128     2.2421736620    24.1796322398
H       4.9303456047     3.2179692999    29.7320863072
86
Step 2 | ATOMIC_POSITIONS (crystal) | Cartesian Angstrom
Ni      0.0000000000     0.0000000000     8.0000178266
Ni      1.2286524556     2.1280874857     8.0000178266
Ni      9.8292197554     4.2561750353     8.0000178266
Ni      2.4573049112     0.0000000000     8.0000178266
Ni      3.6859573668     2.1280874857     8.0000178266
Ni      4.9146098593     4.2561750353     8.0000178266
Ni      4.9146098962     0.0000000000     8.0000178266
Ni      6.1432623518     2.1280874857     8.0000178266
Ni      7.3719148442     4.2561750353     8.0000178266
Ni      1.6382032741     1.4187249905    10.0063984752
Ni      2.8668557666     3.5468125401    10.0063984752
Ni      4.0955082222     5.6749000258    10.0063984752
Ni      4.0955081854     1.4187249905    10.0063984752
Ni      5.3241606778     3.5468125401    10.0063984752
Ni      6.5528131334     5.6749000258    10.0063984752
Ni      6.5528131703     1.4187249905    10.0063984752
Ni      7.7814656628     3.5468125401    10.0063984752
Ni      9.0101181184     5.6749000258    10.0063984752
Ni      2.0459236816     0.7125101371    12.0060714969
Ni      3.2746695151     2.8406431286    12.0059484075
Ni      4.5030642201     4.9689099617    12.0056404810
Ni      4.5032681196     0.7127963641    12.0058877625
Ni      5.7317695527     2.8407033641    12.0067453646
Ni      6.9605066530     4.9687560167    12.0059666463
Ni      6.9605007683     0.7124132317    12.0054043786
Ni      8.1889139821     2.8407652027    12.0060299547
Ni      9.4178532251     4.9688572839    12.0060315156
Ni     -0.0013686900     0.0023409833    14.0064272789
Ni      1.2275679356     2.1302365243    14.0069969548
Ni      9.8278732568     4.2579677350    14.0066600782
Ni      2.4564220245     0.0020565529    14.0065745357
Ni      3.6849822896     2.1298193357    14.0066294813
Ni      4.9135767293     4.2579082279    14.0067696974
Ni      4.9132524841     0.0020938159    14.0069432407
Ni      6.1420696604     2.1299345327    14.0068410154
Ni      7.3709723482     4.2580543598    14.0066118868
Cu      1.6394191860     1.4164339711    16.0180408442
Cu      2.8681626755     3.5446380826    16.0169785385
Cu      4.0967072398     5.6728727837    16.0173402268
Cu      4.0965320419     1.4168620372    16.0172558346
Cu      5.3253116324     3.5448810804    16.0162784223
Cu      6.5540803258     5.6727191809    16.0170877519
Cu      6.5540888728     1.4165417885    16.0175400186
Cu      7.7823924359     3.5450059489    16.0172302258
Cu      9.0114492374     5.6727565997    16.0179604664
Cu      2.0479558377     0.7085822362    18.0328726537
Cu      3.2769356372     2.8374029532    18.0321658310
Cu      4.5058217711     4.9646577147    18.0325650232
Cu      4.5050813290     0.7097886946    18.0324415710
Cu      5.7335961967     2.8375121586    18.0314510989
Cu      6.9622219143     4.9649659501    18.0318541957
Cu      6.9622649645     0.7096320663    18.0329203009
Cu      8.1908299184     2.8377631833    18.0322231251
Cu      9.4200420664     4.9647335859    18.0329086922
Cu      0.0031245887    -0.0056643686    20.0455721191
Cu      1.2308012269     2.1231470440    20.0475939276
Cu      9.8331206731     4.2519517595    20.0473744984
Cu      2.4592312003    -0.0055862980    20.0472334040
Cu      3.6893604130     2.1240819075    20.0491966916
Cu      4.9185354743     4.2491615852    20.0527605858
Cu      4.9177039754    -0.0046731429    20.0469758599
Cu      6.1453185882     2.1244885059    20.0493953140
Cu      7.3737732299     4.2512881920    20.0491917704
Cu      1.6565892296     1.3848308239    22.1213195313
Cu      2.8803776579     3.5131525387    22.1162024821
Cu      4.1122219742     5.6470204251    22.1180724562
Cu      4.1106328691     1.3772171516    22.1120221479
Cu      5.3413229057     3.5259565315    22.1127508562
Cu      6.5750996464     5.6473447858    22.1151625824
Cu      6.5805365217     1.3707633690    22.1040204947
Cu      7.8087904781     3.5131272174    22.1129775504
Cu      9.0298495592     5.6426522820    22.1222732727
O       5.4957794859     1.6200216963    26.4311148446
O       5.5165430542     3.1917776043    24.1527960420
O       4.6826055735     2.8259257155    28.8789289689
C       5.1176579626     3.0067699351    26.5154947145
C       5.8430636207     3.7756499954    25.4150688562
C       5.4136828895     3.5651383122    27.8934987689
H       4.0238823076     3.0219161683    26.3127765686
H       6.9397906457     3.7014004133    25.5508956741
H       5.5600873269     4.8302163389    25.3798609445
H       5.1470290405     4.6346888952    27.9455561713
H       6.5007085520     3.4595293359    28.0944674621
H       6.4547970874     1.5984782775    26.6121242239
H       5.7775870869     2.2394947360    24.1810769595
H       4.9283779817     3.2162197323    29.7336067984
86
Step 3 | ATOMIC_POSITIONS (crystal) | Cartesian Angstrom
Ni      0.0000000000     0.0000000000     8.0000178266
Ni      1.2286524556     2.1280874857     8.0000178266
Ni      9.8292197554     4.2561750353     8.0000178266
Ni      2.4573049112     0.0000000000     8.0000178266
Ni      3.6859573668     2.1280874857     8.0000178266
Ni      4.9146098593     4.2561750353     8.0000178266
Ni      4.9146098962     0.0000000000     8.0000178266
Ni      6.1432623518     2.1280874857     8.0000178266
Ni      7.3719148442     4.2561750353     8.0000178266
Ni      1.6382032741     1.4187249905    10.0063984752
Ni      2.8668557666     3.5468125401    10.0063984752
Ni      4.0955082222     5.6749000258    10.0063984752
Ni      4.0955081854     1.4187249905    10.0063984752
Ni      5.3241606778     3.5468125401    10.0063984752
Ni      6.5528131334     5.6749000258    10.0063984752
Ni      6.5528131703     1.4187249905    10.0063984752
Ni      7.7814656628     3.5468125401    10.0063984752
Ni      9.0101181184     5.6749000258    10.0063984752
Ni      2.0439015363     0.7153153010    12.0006037094
Ni      3.2730487410     2.8437312481    12.0003566570
Ni      4.5013162160     4.9720435135    11.9998376642
Ni      4.5017844185     0.7158782915    12.0003107043
Ni      5.7301108652     2.8438627377    12.0015649735
Ni      6.9585798106     4.9715540462    12.0003139979
Ni      6.9590658365     0.7151616548    11.9994114264
Ni      8.1868986023     2.8435631735    12.0006064063
Ni      9.4163819984     4.9718567362    12.0005973561
Ni     -0.0020876437     0.0037629852    13.9967065886
Ni      1.2268753686     2.1313838554    13.9978526420
Ni      9.8271302754     4.2589952833    13.9971999296
Ni      2.4557131895     0.0032107452    13.9970644486
Ni      3.6843606252     2.1308415742    13.9971476666
Ni      4.9128749153     4.2591420064    13.9969762044
Ni      4.9125972912     0.0032243105    13.9978838690
Ni      6.1416261969     2.1308522691    13.9975672122
Ni      7.3704752984     4.2590031889    13.9970141618
Cu      1.6405845843     1.4140887729    16.0111923376
Cu      2.8694948859     3.5423740916    16.0093397670
Cu      4.0979914001     5.6707143067    16.0099863839
Cu      4.0976795147     1.4148098332    16.0099764554
Cu      5.3265881591     3.5427563353    16.0081779330
Cu      6.5553207452     5.6704517826    16.0094872289
Cu      6.5555172649     1.4142143884    16.0103166446
Cu      7.7834826699     3.5429077904    16.0098002628
Cu      9.0129130203     5.6705031478    16.0112015501
Cu      2.0484327136     0.7073702261    18.0354986634
Cu      3.2777507053     2.8365467132    18.0345432800
Cu      4.5069829200     4.9630051126    18.0358127904
Cu      4.5054743298     0.7094255992    18.0348362468
Cu      5.7339745418     2.8367630152    18.0332675499
Cu      6.9626582996     4.9637135985    18.0340532039
Cu      6.9624866811     0.7093289217    18.0353647958
Cu      8.1911567401     2.8372655256    18.0345439387
Cu      9.4207320853     4.9635045458    18.0355634039
Cu      0.0083552859    -0.0149542278    20.0634942449
Cu      1.2350607819     2.1146979437    20.0680707641
Cu      9.8386950261     4.2443643418    20.0671927561
Cu      2.4631402857    -0.0142036109    20.0666754435
Cu      3.6943064267     2.1170002294    20.0700930117
Cu      4.9234123804     4.2403762814    20.0749065784
Cu      4.9228673571    -0.0129896159    20.0671387269
Cu      6.1490339724     2.1179747264    20.0702654190
Cu      7.3775047822     4.2434658073    20.0700796608
Cu      1.6722324682     1.3567372087    22.1805338917
Cu      2.8921026176     3.4847954181    22.1708751112
Cu      4.1263976606     5.6232925537    22.1743591240
Cu      4.1240816380     1.3431424177    22.1628599734
Cu      5.3563895257     3.5080244941    22.1614959275
Cu      6.5939661752     5.6240387342    22.1690950758
Cu      6.6029460082     1.3319016786    22.1482097917
Cu      7.8311082104     3.4846163938    22.1648591325
Cu      9.0460977099     5.6155042080    22.1822583800
O       5.4930006769     1.6134363863    26.4240145649
O       5.5076868438     3.1864655831    24.1678847863
O       4.6759590791     2.8250242928    28.8838710953
C       5.1245134906     3.0026813059    26.5231243547
C       5.8435938372     3.7795110755    25.4224976497
C       5.4121597520     3.5661478831    27.9009263834
H       4.0335400029     3.0218809827    26.3152940284
H       6.9425875439     3.7082808664    25.5591271527
H       5.5577308626     4.8364329647    25.3733535055
H       5.1503045772     4.6427119589    27.9381705428
H       6.5067111683     3.4663629177    28.0865134657
H       6.4552163456     1.5917366489    26.6145234058
H       5.7723136152     2.2315467359    24.1854763792
H       4.9232701467     3.2110960047    29.7355317611
86
Step 4 | ATOMIC_POSITIONS (crystal) | Cartesian Angstrom
Ni      0.0000000000     0.0000000000     8.0000178266
Ni      1.2286524556     2.1280874857     8.0000178266
Ni      9.8292197554     4.2561750353     8.0000178266
Ni      2.4573049112     0.0000000000     8.0000178266
Ni      3.6859573668     2.1280874857     8.0000178266
Ni      4.9146098593     4.2561750353     8.0000178266
Ni      4.9146098962     0.0000000000     8.0000178266
Ni      6.1432623518     2.1280874857     8.0000178266
Ni      7.3719148442     4.2561750353     8.0000178266
Ni      1.6382032741     1.4187249905    10.0063984752
Ni      2.8668557666     3.5468125401    10.0063984752
Ni      4.0955082222     5.6749000258    10.0063984752
Ni      4.0955081854     1.4187249905    10.0063984752
Ni      5.3241606778     3.5468125401    10.0063984752
Ni      6.5528131334     5.6749000258    10.0063984752
Ni      6.5528131703     1.4187249905    10.0063984752
Ni      7.7814656628     3.5468125401    10.0063984752
Ni      9.0101181184     5.6749000258    10.0063984752
Ni      2.0413702725     0.7197538427    11.9929423362
Ni      3.2704834772     2.8481985151    11.9925980896
Ni      4.4986396636     4.9767673321    11.9918186648
Ni      4.4992362653     0.7204067216    11.9926660568
Ni      5.7273012582     2.8486606068    11.9945544512
Ni      6.9559578247     4.9762790937    11.9924772579
Ni      6.9565384607     0.7193119419    11.9911105342
Ni      8.1840641936     2.8481509422    11.9931161278
Ni      9.4136780869     4.9766123018    11.9929033764
Ni     -0.0029126321     0.0051740585    13.9834090683
Ni      1.2264364094     2.1325451719    13.9852857251
Ni      9.8262013028     4.2599417132    13.9839566056
Ni      2.4553985241     0.0043769118    13.9837505369
Ni      3.6838185200     2.1315351701    13.9837723223
Ni      4.9122328735     4.2602718479    13.9832996306
Ni      4.9116841144     0.0043166297    13.9851459482
Ni      6.1410598042     2.1315945233    13.9846896576
Ni      7.3701576916     4.2601051541    13.9835229310
Cu      1.6430582293     1.4095576287    16.0020795573
Cu      2.8721513499     3.5377617511    15.9991453921
Cu      4.1006250255     5.6662067824    16.0005092089
Cu      4.1000521691     1.4105554641    16.0000077866
Cu      5.3291586978     3.5383751109    15.9972176417
Cu      6.5579681668     5.6659559370    15.9992029630
Cu      6.5581385291     1.4096538389    16.0005974961
Cu      7.7857702705     3.5387193458    15.9997762666
Cu      9.0155614396     5.6661549926    16.0020717530
Cu      2.0500328260     0.7040429783    18.0439256331
Cu      3.2798182542     2.8335465331    18.0426874690
Cu      4.5095504532     4.9590676621    18.0450316432
Cu      4.5070163439     0.7070750242    18.0432623144
Cu      5.7355176616     2.8339526047    18.0405175542
Cu      6.9644162341     4.9602781381    18.0419417916
Cu      6.9636828631     0.7073084003    18.0434544784
Cu      8.1927218330     2.8347779169    18.0428967168
Cu      9.4227062952     4.9601743932    18.0441351672
Cu      0.0177283261    -0.0315200266    20.0963221157
Cu      1.2427746216     2.0995388239    20.1054387862
Cu      9.8481778028     4.2305210970    20.1034079609
Cu      2.4705254858    -0.0293245470    20.1022024320
Cu      3.7028703109     2.1040780735    20.1076605249
Cu      4.9315423396     4.2257060799    20.1130539967
Cu      4.9321153825    -0.0278935561    20.1040934183
Cu      6.1558523235     2.1059622360    20.1075993119
Cu      7.3844720058     4.2295148000    20.1076984632
Cu      1.6969295490     1.3133771938    22.2683055110
Cu      2.9113369791     3.4407366431    22.2512781619
Cu      4.1488276805     5.5855900967    22.2571455855
Cu      4.1461319699     1.2918941549    22.2370937982
Cu      5.3806331140     3.4791050981    22.2286631626
Cu      6.6231156537     5.5872463148    22.2484224317
Cu      6.6359998861     1.2744989529    22.2126690258
Cu      7.8642844677     3.4402044363    22.2409642012
Cu      9.0710829334     5.5729835097    22.2712303110
O       5.4984025430     1.6067405354    26.4167787660
O       5.4946420618     3.1743352769    24.1939503565
O       4.6678801088     2.8251962752    28.8842279434
C       5.1317587511     2.9999137492    26.5338770975
C       5.8455759339     3.7859060999    25.4356356028
C       5.4125759990     3.5673730677    27.9088950960
H       4.0463902519     3.0217149593    26.3195462821
H       6.9459318731     3.7199218075    25.5708896470
H       5.5544550992     4.8422440265    25.3646894453
H       5.1553868704     4.6500840099    27.9275397725
H       6.5125761797     3.4767614488    28.0774153109
H       6.4491045730     1.5788886864    26.6167466624
H       5.7635165401     2.2206276353    24.1957542775
H       4.9161627605     3.2049459719    29.7454658568
86
Step 5 | ATOMIC_POSITIONS (crystal) | Cartesian Angstrom
Ni      0.0000000000     0.0000000000     8.0000178266
Ni      1.2286524556     2.1280874857     8.0000178266
Ni      9.8292197554     4.2561750353     8.0000178266
Ni      2.4573049112     0.0000000000     8.0000178266
Ni      3.6859573668     2.1280874857     8.0000178266
Ni      4.9146098593     4.2561750353     8.0000178266
Ni      4.9146098962     0.0000000000     8.0000178266
Ni      6.1432623518     2.1280874857     8.0000178266
Ni      7.3719148442     4.2561750353     8.0000178266
Ni      1.6382032741     1.4187249905    10.0063984752
Ni      2.8668557666     3.5468125401    10.0063984752
Ni      4.0955082222     5.6749000258    10.0063984752
Ni      4.0955081854     1.4187249905    10.0063984752
Ni      5.3241606778     3.5468125401    10.0063984752
Ni      6.5528131334     5.6749000258    10.0063984752
Ni      6.5528131703     1.4187249905    10.0063984752
Ni      7.7814656628     3.5468125401    10.0063984752
Ni      9.0101181184     5.6749000258    10.0063984752
Ni      2.0376362203     0.7266671722    11.9828180049
Ni      3.2666307188     2.8550522221    11.9823587644
Ni      4.4943539136     4.9836718131    11.9811700757
Ni      4.4955753101     0.7272705080    11.9826178217
Ni      5.7228249191     2.8557996622    11.9852302274
Ni      6.9521695927     4.9834097155    11.9821655359
Ni      6.9525765935     0.7253987865    11.9801860763
Ni      8.1799981174     2.8550307499    11.9834805790
Ni      9.4097183827     4.9837167545    11.9827938758
Ni     -0.0034585220     0.0057593160    13.9663592703
Ni      1.2267005598     2.1330523965    13.9691361215
Ni      9.8256551398     4.2600335674    13.9666678746
Ni      2.4557099930     0.0048859783    13.9665570001
Ni      3.6837202774     2.1314051903    13.9662127296
Ni      4.9117936459     4.2605943616    13.9653039098
Ni      4.9112007954     0.0045385046    13.9687261369
Ni      6.1408976796     2.1313326191    13.9679251940
Ni      7.3705935291     4.2604102893    13.9660068136
Cu      1.6480641866     1.4006684529    15.9920957476
Cu      2.8774202458     3.5285451891    15.9875578159
Cu      4.1058485347     5.6570550385    15.9902124512
Cu      4.1049921416     1.4018486541    15.9888784103
Cu      5.3342934116     3.5294156328    15.9846701093
Cu      6.5633265798     5.6569115930    15.9877041657
Cu      6.5633104541     1.4005621275    15.9896354196
Cu      7.7906721792     3.5300511370    15.9886065224
Cu      9.0208342227     5.6573897839    15.9920262816
Cu      2.0537825999     0.6966848770    18.0640580130
Cu      3.2841883272     2.8264199743    18.0623646276
Cu      4.5145922790     4.9510101291    18.0656932881
Cu      4.5107736385     0.7007749727    18.0637397667
Cu      5.7393623182     2.8271396434    18.0587567378
Cu      6.9687465945     4.9527529459    18.0612814530
Cu      6.9668917168     0.7017447262    18.0628600259
Cu      8.1967343319     2.8283692441    18.0632839677
Cu      9.4271813298     4.9528930396    18.0645404375
Cu      0.0335793779    -0.0594013683    20.1523580556
Cu      1.2559203907     2.0737195939    20.1693448124
Cu      9.8634407015     4.2065216455    20.1653983038
Cu      2.4837624289    -0.0545104665    20.1629981147
Cu      3.7170362771     2.0816025448    20.1713256754
Cu      4.9446666690     4.2020699127    20.1755415231
Cu      4.9478505508    -0.0531241392    20.1674215204
Cu      6.1678813976     2.0846708392    20.1705762891
Cu      7.3967860991     4.2057707120    20.1715400736
Cu      1.7358767281     1.2466082391    22.3982435018
Cu      2.9430516263     3.3727427144    22.3689428041
Cu      4.1843504285     5.5256701296    22.3783024554
Cu      4.1821084118     1.2157382989    22.3447867692
Cu      5.4195001953     3.4327629801    22.3168352199
Cu      6.6677027361     5.5292254328    22.3645268114
Cu      6.6839379376     1.1912300459    22.3063389425
Cu      7.9128395860     3.3714973912    22.3520897668
Cu      9.1094600360     5.5064525111    22.4030803909
O       5.4936458142     1.6045669838    26.4066720100
O       5.4747718369     3.1540821840    24.2384199137
O       4.6623831126     2.8338985951    28.8945738138
C       5.1401091523     2.9971344620    26.5471904079
C       5.8510541018     3.7910300056    25.4565648778
C       5.4170258177     3.5694282812    27.9173727153
H       4.0637174168     3.0207572069    26.3270713676
H       6.9494801755     3.7393465021    25.5875452123
H       5.5489138089     4.8489575286    25.3538819765
H       5.1626248043     4.6560073325    27.9128939010
H       6.5181292260     3.4919951642    28.0689766179
H       6.4541743634     1.5563351580    26.6232886745
H       5.7504265078     2.2026748675    24.2189034774
H       4.9016780095     3.1906822909    29.7529222066
86
Step 6 | ATOMIC_POSITIONS (crystal) | Cartesian Angstrom
Ni      0.0000000000     0.0000000000     8.0000178266
Ni      1.2286524556     2.1280874857     8.0000178266
Ni      9.8292197554     4.2561750353     8.0000178266
Ni      2.4573049112     0.0000000000     8.0000178266
Ni      3.6859573668     2.1280874857     8.0000178266
Ni      4.9146098593     4.2561750353     8.0000178266
Ni      4.9146098962     0.0000000000     8.0000178266
Ni      6.1432623518     2.1280874857     8.0000178266
Ni      7.3719148442     4.2561750353     8.0000178266
Ni      1.6382032741     1.4187249905    10.0063984752
Ni      2.8668557666     3.5468125401    10.0063984752
Ni      4.0955082222     5.6749000258    10.0063984752
Ni      4.0955081854     1.4187249905    10.0063984752
Ni      5.3241606778     3.5468125401    10.0063984752
Ni      6.5528131334     5.6749000258    10.0063984752
Ni      6.5528131703     1.4187249905    10.0063984752
Ni      7.7814656628     3.5468125401    10.0063984752
Ni      9.0101181184     5.6749000258    10.0063984752
Ni      2.0334518198     0.7338987528    11.9751550183
Ni      3.2624077015     2.8622819978    11.9746734483
Ni      4.4902273711     4.9910993120    11.9731174531
Ni      4.4917322030     0.7343805239    11.9753416501
Ni      5.7184069276     2.8636057829    11.9782640921
Ni      6.9479440299     4.9908016413    11.9743660708
Ni      6.9488144006     0.7319019477    11.9721581174
Ni      8.1754198553     2.8620867007    11.9764051968
Ni      9.4053780042     4.9911334889    11.9753435737
Ni     -0.0022574252     0.0037091614    13.9535503321
Ni      1.2283034437     2.1308886658    13.9567998989
Ni      9.8266630670     4.2576720964    13.9534507608
Ni      2.4572077192     0.0027264121    13.9532323054
Ni      3.6851152383     2.1287059012    13.9526792263
Ni      4.9129335146     4.2586222049    13.9510335645
Ni      4.9122054064     0.0021235328    13.9563582910
Ni      6.1424144643     2.1286223593    13.9548087637
Ni      7.3722633021     4.2580699534    13.9522671844
Cu      1.6557838789     1.3868490630    15.9887525380
Cu      2.8855692614     3.5143410758    15.9827608842
Cu      4.1139963377     5.6429545443    15.9864318820
Cu      4.1129101214     1.3880184709    15.9846782812
Cu      5.3423541401     3.5155198175    15.9786351949
Cu      6.5714757863     5.6428284526    15.9828894868
Cu      6.5713810558     1.3865273293    15.9850771870
Cu      7.7984826109     3.5161956708    15.9843126931
Cu      9.0289706198     5.6437296480    15.9887652541
Cu      2.0598480728     0.6851451846    18.0966600965
Cu      3.2908410000     2.8148432065    18.0943395264
Cu      4.5218225830     4.9391560398    18.0975776371
Cu      4.5169736021     0.6898462178    18.0970770932
Cu      5.7458122258     2.8159495986    18.0888808654
Cu      6.9758838863     4.9410602623    18.0929673849
Cu      6.9724949426     0.6919405113    18.0941313908
Cu      8.2034734585     2.8174719937    18.0965335369
Cu      9.4342877064     4.9416416420    18.0975743149
Cu      0.0532076134    -0.0937220732    20.2214724445
Cu      1.2723832764     2.0412622318    20.2488228141
Cu      9.8812202348     4.1755678168    20.2426722757
Cu      2.5015637370    -0.0853261493    20.2387284735
Cu      3.7343899931     2.0524876467    20.2500665104
Cu      4.9603138255     4.1740442279    20.2493153389
Cu      4.9675953208    -0.0845493065    20.2462863470
Cu      6.1838653827     2.0562267886    20.2478437645
Cu      7.4129397488     4.1757070314    20.2506200859
Cu      1.7819580342     1.1697478836    22.5403408305
Cu      2.9829026043     3.2945055876    22.4948821282
Cu      4.2267237802     5.4539719624    22.5079848734
Cu      4.2265690216     1.1327594540    22.4584379237
Cu      5.4669951033     3.3764565848    22.3919672868
Cu      6.7183277362     5.4603237852    22.4887883923
Cu      6.7341218717     1.1041557317    22.4059558731
Cu      7.9643912425     3.2922661511    22.4708617032
Cu      9.1536958330     5.4283571092    22.5474769340
O       5.5112448049     1.6045967715    26.4057123210
O       5.4527591382     3.1292003872    24.2926850642
O       4.6573600609     2.8407998961    28.8829128717
C       5.1496791720     2.9987614064    26.5641066629
C       5.8523311331     3.7982615472    25.4798252243
C       5.4203219136     3.5718988580    27.9265345270
H       4.0752718992     3.0208246611    26.3359818071
H       6.9558450635     3.7621079359    25.6047454031
H       5.5436019193     4.8483338149    25.3462564223
H       5.1701444527     4.6563786980    27.8986254316
H       6.5240214464     3.5072649743    28.0677608502
H       6.4413521196     1.5287399181    26.6266739657
H       5.7367732052     2.1783874954    24.2574442787
H       4.8909221985     3.1832137265    29.7816995392
86
Step 7 | ATOMIC_POSITIONS (crystal) | Cartesian Angstrom
Ni      0.0000000000     0.0000000000     8.0000178266
Ni      1.2286524556     2.1280874857     8.0000178266
Ni      9.8292197554     4.2561750353     8.0000178266
Ni      2.4573049112     0.0000000000     8.0000178266
Ni      3.6859573668     2.1280874857     8.0000178266
Ni      4.9146098593     4.2561750353     8.0000178266
Ni      4.9146098962     0.0000000000     8.0000178266
Ni      6.1432623518     2.1280874857     8.0000178266
Ni      7.3719148442     4.2561750353     8.0000178266
Ni      1.6382032741     1.4187249905    10.0063984752
Ni      2.8668557666     3.5468125401    10.0063984752
Ni      4.0955082222     5.6749000258    10.0063984752
Ni      4.0955081854     1.4187249905    10.0063984752
Ni      5.3241606778     3.5468125401    10.0063984752
Ni      6.5528131334     5.6749000258    10.0063984752
Ni      6.5528131703     1.4187249905    10.0063984752
Ni      7.7814656628     3.5468125401    10.0063984752
Ni      9.0101181184     5.6749000258    10.0063984752
Ni      2.0302280512     0.7401564729    11.9732490820
Ni      3.2586389966     2.8682266094    11.9725569373
Ni      4.4869153766     4.9971464440    11.9709846174