86
Step 1 | ATOMIC_POSITIONS (angstrom) | Cartesian Angstrom
Ni      1.2286390390     0.7093535490     9.0128649340
Ni      2.4572760100     2.8374169220     9.0128649340
Ni      3.6859498400     4.9655441370     9.0128649340
Ni      3.6859144660     0.7093535490     9.0128649340
Ni      4.9145514370     2.8374169220     9.0128649340
Ni      6.1432252670     4.9655441370     9.0128649340
Ni      6.1432636120     0.7093535490     9.0128649340
Ni      7.3719005830     2.8374169220     9.0128649340
Ni      8.6005744130     4.9655441370     9.0128649340
Ni      0.0000019230    -0.0000011100    11.0189462060
Ni      1.2286511800     2.1280835430    11.0189462060
Ni      2.4573004370     4.2561681970    11.0189462060
Ni      2.4573019230    -0.0000011100    11.0189462060
Ni      3.6859511800     2.1280835430    11.0189462060
Ni      4.9146004370     4.2561681970    11.0189462060
Ni      4.9146019230    -0.0000011100    11.0189462060
Ni      6.1432511800     2.1280835430    11.0189462060
Ni      7.3719004370     4.2561681970    11.0189462060
Ni      6.1438734720     3.5471661970    12.9811357840
Ni      7.3724754910     5.6753002550    12.9812984850
Ni      8.6011926510     3.5471005460    12.9812984900
Ni      4.9154250810     1.4190473550    12.9815171700
Ni      3.6866443280     3.5473571860    12.9815172510
Ni      9.8297970970     5.6752360910    12.9815758290
Ni      7.3727178060     1.4189936100    12.9817330850
Ni      4.9152433530     5.6754625070    12.9817330970
Ni      2.4581886360     1.4192341220    12.9820006980
Ni      1.2300181510     0.7101493710    14.9469571230
Ni      3.6871547190     0.7105440160    14.9472125230
Ni      2.4589274570     2.8378950180    14.9472126230
Ni      3.6873641450     4.9659340110    14.9472361150
Ni      6.1443087910     0.7103827880    14.9472361760
Ni      4.9159520710     2.8382250840    14.9474526980
Ni      6.1444225000     4.9663508800    14.9474869000
Ni      7.3731982530     2.8380497740    14.9474870240
Ni      8.6015404070     4.9661014020    14.9475110630
Cu      0.0002371770     0.0001345310    17.0095566530
Cu      2.4575439700     0.0002605240    17.0097303500
Cu      1.2289989080     2.1281620840    17.0097304640
Cu      2.4574811020     4.2563400380    17.0097910800
Cu      4.9148412440     0.0000691580    17.0097911200
Cu      3.6862398640     2.1282500140    17.0099390000
Cu      4.9147998590     4.2563702540    17.0100125200
Cu      6.1435260460     2.1281549480    17.0100126890
Cu      7.3720625000     4.2562615990    17.0100868050
Cu      2.4590518367     1.4200408078    19.0940946185
Cu      4.9159801534     5.6757468802    19.0952414895
Cu      7.3733512797     1.4196068671    19.0951474201
Cu      3.6874639526     3.5471115923    19.0943139657
Cu      4.9159039939     1.4200028209    19.0945099777
Cu      7.3732712666     5.6754031612    19.0955732618
Cu      8.6018250639     3.5474987878    19.0950589665
Cu      9.8305421203     5.6756760861    19.0955527072
Cu      6.1447156980     3.5475344896    19.0952285508
Cu      3.6882386686     4.9660968515    21.1872322151
Cu      6.1451168978     0.7110824462    21.1869325800
Cu      1.2309689115     0.7108274801    21.1873227833
Cu      2.4596636337     2.8382898037    21.1880232678
Cu      3.6878235802     0.7115876037    21.1881750628
Cu      8.6030018943     4.9665490076    21.1867973790
Cu      7.3738746309     2.8390562751    21.1873918183
Cu      6.1454389224     4.9661900575    21.1869579158
Cu      4.9158863456     2.8382280853    21.1876332998
Cu      3.6884009269     2.1356375879    23.2292564464
Cu      1.2251474299     2.1286496796    23.2329065280
Cu      2.4566988166    -0.0038486734    23.2334972809
Cu      4.9185395512     4.2619849229    23.2318925953
Cu      6.1494007470     2.1278818535    23.2328324086
Cu      0.0008913692     0.0006228163    23.2357894954
Cu      2.4555369517     4.2624389632    23.2324336080
Cu      4.9188797987    -0.0044513346    23.2333440406
Cu      7.3726827467     4.2570031793    23.2371843993
O       3.6547893222     2.1935908539    25.2725624289
H       4.0039766897     1.2718588829    25.3354504524
H       5.2409396067     2.9228525273    26.3677775772
H       3.7650315197     3.9275246844    26.3645541803
C       4.1374059646     2.9091461644    26.4217702794
O       4.1478792053     0.8386930161    27.6425679748
H       5.1281021131     0.8973091319    27.6505520255
C       3.6702408706     2.1882152287    27.6776132896
H       2.5548490318     2.1040792172    27.6741096373
C       4.1422567644     2.8826203402    28.9398856515
H       3.7983328835     3.9224457672    28.9726486060
H       5.2515523640     2.8706075883    28.9727061600
O       3.6601547437     2.1855301541    30.0901814864
H       4.0043193720     2.6620287251    30.8618733750
86
Step 2 | ATOMIC_POSITIONS (angstrom) | Cartesian Angstrom
Ni      1.2286390390     0.7093535490     9.0128649340
Ni      2.4572760100     2.8374169220     9.0128649340
Ni      3.6859498400     4.9655441370     9.0128649340
Ni      3.6859144660     0.7093535490     9.0128649340
Ni      4.9145514370     2.8374169220     9.0128649340
Ni      6.1432252670     4.9655441370     9.0128649340
Ni      6.1432636120     0.7093535490     9.0128649340
Ni      7.3719005830     2.8374169220     9.0128649340
Ni      8.6005744130     4.9655441370     9.0128649340
Ni      0.0000019230    -0.0000011100    11.0189462060
Ni      1.2286511800     2.1280835430    11.0189462060
Ni      2.4573004370     4.2561681970    11.0189462060
Ni      2.4573019230    -0.0000011100    11.0189462060
Ni      3.6859511800     2.1280835430    11.0189462060
Ni      4.9146004370     4.2561681970    11.0189462060
Ni      4.9146019230    -0.0000011100    11.0189462060
Ni      6.1432511800     2.1280835430    11.0189462060
Ni      7.3719004370     4.2561681970    11.0189462060
Ni      6.1438734720     3.5471661970    12.9811357840
Ni      7.3724754910     5.6753002550    12.9812984850
Ni      8.6011926510     3.5471005460    12.9812984900
Ni      4.9154250810     1.4190473550    12.9815171700
Ni      3.6866443280     3.5473571860    12.9815172510
Ni      9.8297970970     5.6752360910    12.9815758290
Ni      7.3727178060     1.4189936100    12.9817330850
Ni      4.9152433530     5.6754625070    12.9817330970
Ni      2.4581886360     1.4192341220    12.9820006980
Ni      1.2300181510     0.7101493710    14.9469571230
Ni      3.6871547190     0.7105440160    14.9472125230
Ni      2.4589274570     2.8378950180    14.9472126230
Ni      3.6873641450     4.9659340110    14.9472361150
Ni      6.1443087910     0.7103827880    14.9472361760
Ni      4.9159520710     2.8382250840    14.9474526980
Ni      6.1444225000     4.9663508800    14.9474869000
Ni      7.3731982530     2.8380497740    14.9474870240
Ni      8.6015404070     4.9661014020    14.9475110630
Cu      0.0002371770     0.0001345310    17.0095566530
Cu      2.4575439700     0.0002605240    17.0097303500
Cu      1.2289989080     2.1281620840    17.0097304640
Cu      2.4574811020     4.2563400380    17.0097910800
Cu      4.9148412440     0.0000691580    17.0097911200
Cu      3.6862398640     2.1282500140    17.0099390000
Cu      4.9147998590     4.2563702540    17.0100125200
Cu      6.1435260460     2.1281549480    17.0100126890
Cu      7.3720625000     4.2562615990    17.0100868050
Cu      2.4591925730     1.4205728160    19.0935677113
Cu      4.9157863000     5.6759742199    19.0961741628
Cu      7.3734840074     1.4195150438    19.0959127036
Cu      3.6873466083     3.5462216197    19.0936030446
Cu      4.9154889383     1.4205245005    19.0941200535
Cu      7.3732377694     5.6752796265    19.0966234920
Cu      8.6018981129     3.5471697575    19.0952391865
Cu      9.8307790296     5.6758252628    19.0965310586
Cu      6.1446701222     3.5473204548    19.0954490381
Cu      3.6880914196     4.9652900946    21.1862605374
Cu      6.1446432667     0.7113948323    21.1855714857
Cu      1.2313713464     0.7112088240    21.1866999224
Cu      2.4602414773     2.8380698954    21.1884004662
Cu      3.6878879123     0.7132658897    21.1890827312
Cu      8.6026734826     4.9658186885    21.1848909635
Cu      7.3738953480     2.8395603479    21.1864205411
Cu      6.1456354819     4.9656500517    21.1851961903
Cu      4.9154556378     2.8380000189    21.1869987099
Cu      3.6901682983     2.1464586077    23.2227336980
Cu      1.2176772521     2.1281920187    23.2307723879
Cu      2.4538845510    -0.0106145088    23.2323330000
Cu      4.9231689004     4.2700844083    23.2280561397
Cu      6.1569407368     2.1266743882    23.2306076790
Cu     -0.0000143893     0.0002565283    23.2382412684
Cu      2.4511171226     4.2711002605    23.2291224239
Cu      4.9232904003    -0.0115465616    23.2316330765
Cu      7.3727214285     4.2575936152    23.2418871993
O       3.6396141800     2.1786242861    25.2807714301
H       4.0003863007     1.2620395973    25.3445236745
H       5.2459351832     2.9298762749    26.3739088055
H       3.7610116405     3.9366192361    26.3573577413
C       4.1428715002     2.9139336660    26.4257313620
O       4.1511583734     0.8256685499    27.6353249026
H       5.1233354335     0.8924044460    27.6527510689
C       3.6745813783     2.1848137476    27.6854911830
H       2.5661250341     2.1054897916    27.6745804353
C       4.1448396493     2.8847385639    28.9513875735
H       3.7980264334     3.9351128835    28.9638733042
H       5.2566485612     2.8765269774    28.9611347212
O       3.6507992904     2.1790940200    30.0949933539
H       4.0016537399     2.6589251241    30.8640535648
