86
Step 1 | ATOMIC_POSITIONS (angstrom) | Cartesian Angstrom
Ni      1.2286420027     0.7093562278     8.0127033495
Ni      0.0000022775     0.0000000000    10.0192033545
Ni      2.4637570809     1.4224515552    12.0711324136
Ni      1.2397802907     0.7157901456    14.1224527674
Ni      2.4572821841     2.8374249112     8.0127033495
Ni      1.2286424588     2.1280686834    10.0192033545
Ni      3.6926781159     3.5507357065    12.0705045449
Ni      2.4684725529     2.8434817294    14.1212345102
Ni      3.6859592251     4.9655574374     8.0127033495
Ni      2.4573194998     4.2562012095    10.0192033545
Ni      4.9217656993     5.6792526148    12.0709362359
Ni      3.6969571749     4.9715231220    14.1220203985
Ni      3.6859223655     0.7093562278     8.0127033495
Ni      2.4572826402     0.0000000000    10.0192033545
Ni      4.9213653839     1.4225857500    12.0705018304
Ni      3.6967638997     0.7160224207    14.1212311860
Ni      4.9145625469     2.8374249112     8.0127033495
Ni      3.6859228216     2.1280686834    10.0192033545
Ni      6.1503529497     3.5509085402    12.0699854915
Ni      4.9256539069     2.8438285306    14.1202327617
Ni      6.1432395878     4.9655574374     8.0127033495
Ni      4.9145998625     4.2562012095    10.0192033545
Ni      7.3794585706     5.6794809406    12.0703411417
Ni      6.1541912510     4.9717126524    14.1210383973
Ni      6.1432764474     0.7093562278     8.0127033495
Ni      4.9146367221     0.0000000000    10.0192033545
Ni      7.3792576901     1.4227490418    12.0709363656
Ni      6.1539445722     0.7158998925    14.1220190429
Ni      7.3719166287     2.8374249112     8.0127033495
Ni      6.1432769035     2.1280686834    10.0192033545
Ni      8.6083025545     3.5510600089    12.0703431006
Ni      7.3827250276     2.8438303041    14.1210406577
Ni      8.6005936697     4.9655574374     8.0127033495
Ni      7.3719539444     4.2562012095    10.0192033545
Ni      9.8373683369     5.6796094234    12.0707933550
Ni      8.6114301675     4.9718114503    14.1216528753
Cu      0.0001502221     0.0000851675    22.7031859604
Cu      1.2211698188     2.1281841719    22.7000226107
Cu      2.4545186157     4.2649116664    22.6986106754
Cu      2.4542203858    -0.0080243075    22.6989109252
Cu      0.0125988505     0.0072754476    16.2332161102
Cu      2.4696349891     1.4258444684    18.3916416570
Cu      1.2360678209     0.7137496991    20.5512584169
Cu      3.6934382932     2.1385840717    22.6245202146
Cu      1.2416711544     2.1361120827    16.2320324925
Cu      3.6976153977     3.5539780780    18.3918749325
Cu      2.4648915563     2.8410375215    20.5534441751
Cu      4.9186052470     4.2631875663    22.7012522866
Cu      4.9196716509    -0.0062471518    22.7006583989
Cu      2.4707625323     0.0072639821    16.2320277932
Cu      4.9266420746     1.4252400817    18.3918761583
Cu      3.6928800753     0.7148409376    20.5538524011
Cu      6.1503319000     2.1273917714    22.7034692905
Cu      3.6999344853     2.1361584753    16.2305426330
Cu      6.1546566898     3.5533933395    18.3924014903
Cu      4.9202539891     2.8406764657    20.5540492440
Cu      7.3730863205     4.2572637092    22.7073638518
Cu      2.4703615692     4.2639064921    16.2323564383
Cu      4.9258612022     5.6821553099    18.3929147418
Cu      3.6923306755     4.9686670292    20.5523009119
Cu      4.9284376454     4.2641058199    16.2311095738
Cu      7.3827816611     5.6818035922    18.3933612343
Cu      6.1496898347     4.9688305710    20.5517165439
Cu      4.9278325409     0.0074438059    16.2323521866
Cu      7.3838191099     1.4248449337    18.3929204237
Cu      6.1493475537     0.7133018453    20.5513140511
Cu      6.1570438883     2.1360992535    16.2311101997
Cu      8.6119749333     3.5527772255    18.3933657681
Cu      7.3783761832     2.8413798862    20.5525456931
Cu      7.3856113588     4.2640840866    16.2316791967
Cu      9.8400295452     5.6811466362    18.3940799063
Cu      8.6063673741     4.9684574004    20.5520145539
O       3.9890614932     0.7881677619    26.8342479139
O       3.4907758932     2.1469644972    24.5397497356
O       3.5009208842     2.1345889354    29.2820577988
C       3.5103276088     2.1370970566    26.8695969041
C       3.9784708074     2.8598457837    25.6221557882
C       3.9835244191     2.8318047700    28.1317966280
H       2.3960984869     2.0533382067    26.8660868015
H       5.0817214893     2.8716639396    25.5582579589
H       3.6054998748     3.8773726046    25.5558124499
H       3.6392247141     3.8717920366    28.1645154499
H       5.0920339512     2.8199876606    28.1647285157
H       4.9686786092     0.8462235076    26.8425537582
H       3.8459545914     1.2127521254    24.5353084109
H       3.8453262005     2.6113867428    30.0540703561
86
Step 2 | ATOMIC_POSITIONS (angstrom) | Cartesian Angstrom
Ni      1.2286420027     0.7093562278     8.0127033495
Ni      0.0000022775    -0.0000000000    10.0192033545
Ni      2.4637570809     1.4224515552    12.0711324136
Ni      1.2397802907     0.7157901456    14.1224527674
Ni      2.4572821841     2.8374249112     8.0127033495
Ni      1.2286424588     2.1280686834    10.0192033545
Ni      3.6926781159     3.5507357065    12.0705045449
Ni      2.4684725529     2.8434817294    14.1212345102
Ni      3.6859592251     4.9655574374     8.0127033495
Ni      2.4573194998     4.2562012095    10.0192033545
Ni      4.9217656993     5.6792526148    12.0709362359
Ni      3.6969571749     4.9715231220    14.1220203985
Ni      3.6859223655     0.7093562278     8.0127033495
Ni      2.4572826402    -0.0000000000    10.0192033545
Ni      4.9213653839     1.4225857500    12.0705018304
Ni      3.6967638997     0.7160224207    14.1212311860
Ni      4.9145625469     2.8374249112     8.0127033495
Ni      3.6859228216     2.1280686834    10.0192033545
Ni      6.1503529497     3.5509085402    12.0699854915
Ni      4.9256539069     2.8438285306    14.1202327617
Ni      6.1432395878     4.9655574374     8.0127033495
Ni      4.9145998625     4.2562012095    10.0192033545
Ni      7.3794585706     5.6794809406    12.0703411417
Ni      6.1541912510     4.9717126524    14.1210383973
Ni      6.1432764474     0.7093562278     8.0127033495
Ni      4.9146367221    -0.0000000000    10.0192033545
Ni      7.3792576901     1.4227490418    12.0709363656
Ni      6.1539445722     0.7158998925    14.1220190429
Ni      7.3719166287     2.8374249112     8.0127033495
Ni      6.1432769035     2.1280686834    10.0192033545
Ni      8.6083025545     3.5510600089    12.0703431006
Ni      7.3827250276     2.8438303041    14.1210406577
Ni      8.6005936697     4.9655574374     8.0127033495
Ni      7.3719539444     4.2562012095    10.0192033545
Ni      9.8373683369     5.6796094234    12.0707933550
Ni      8.6114301675     4.9718114503    14.1216528753
Cu     -0.0000403458     0.0000100926    22.7026854383
Cu      1.2139837641     2.1276375894    22.6918971268
Cu      2.4507872761     4.2733439478    22.6886351832
Cu      2.4511366627    -0.0156433001    22.6889850450
Cu      0.0125988505     0.0072754476    16.2332161102
Cu      2.4696349891     1.4258444684    18.3916416570
Cu      1.2362689614     0.7139939115    20.5491071855
Cu      3.6984087425     2.1497756350    22.5643925831
Cu      1.2416711544     2.1361120827    16.2320324925
Cu      3.6976153977     3.5539780780    18.3918749325
Cu      2.4637162271     2.8414939908    20.5504952605
Cu      4.9231763229     4.2702632803    22.6916963657
Cu      4.9232287855    -0.0121746033    22.6937804317
Cu      2.4707625323     0.0072639821    16.2320277932
Cu      4.9266420746     1.4252400817    18.3918761583
Cu      3.6927536910     0.7145246967    20.5515412272
Cu      6.1570674390     2.1268511596    22.6970918178
Cu      3.6999344853     2.1361584753    16.2305426330
Cu      6.1546566898     3.5533933395    18.3924014903
Cu      4.9210480265     2.8410573628    20.5506998437
Cu      7.3728381022     4.2575347784    22.7063395910
Cu      2.4703615692     4.2639064921    16.2323564383
Cu      4.9258612022     5.6821553099    18.3929147418
Cu      3.6922641269     4.9683225095    20.5499083676
Cu      4.9284376454     4.2641058199    16.2311095738
Cu      7.3827816611     5.6818035922    18.3933612343
Cu      6.1500879332     4.9683245200    20.5466780331
Cu      4.9278325409     0.0074438059    16.2323521866
Cu      7.3838191099     1.4248449337    18.3929204237
Cu      6.1492070620     0.7134063191    20.5476371027
Cu      6.1570438883     2.1360992535    16.2311101997
Cu      8.6119749333     3.5527772255    18.3933657681
Cu      7.3785409424     2.8418993011    20.5488942651
Cu      7.3856113588     4.2640840866    16.2316791967
Cu      9.8400295452     5.6811466362    18.3940799063
Cu      8.6061511754     4.9679354639    20.5471598858
O       3.9950680272     0.7797454148    26.8274038862
O       3.4642605116     2.1135175418    24.5596651442
O       3.4938591855     2.1306283736    29.2859263446
C       3.5098291776     2.1381638357    26.8887935714
C       3.9952767960     2.8690776795    25.6550670245
C       3.9878534291     2.8302103895    28.1422669391
H       2.4091804346     2.0551263302    26.8658518658
H       5.0864459592     2.8792844059    25.5643240565
H       3.6014742561     3.8886790140    25.5516189416
H       3.6387848207     3.8820833775    28.1570956057
H       5.0941553505     2.8254020118    28.1557265948
H       4.9629225299     0.8410654428    26.8444117698
H       3.8413004434     1.2095732789    24.5547388798
H       3.8430045296     2.6086342510    30.0564974824
86
Step 3 | ATOMIC_POSITIONS (angstrom) | Cartesian Angstrom
Ni      1.2286420027     0.7093562278     8.0127033495
Ni      0.0000022775    -0.0000000000    10.0192033545
Ni      2.4637570809     1.4224515552    12.0711324136
Ni      1.2397802907     0.7157901456    14.1224527674
Ni      2.4572821841     2.8374249112     8.0127033495
Ni      1.2286424588     2.1280686834    10.0192033545
Ni      3.6926781159     3.5507357065    12.0705045449
Ni      2.4684725529     2.8434817294    14.1212345102
Ni      3.6859592251     4.9655574374     8.0127033495
Ni      2.4573194998     4.2562012095    10.0192033545
Ni      4.9217656993     5.6792526148    12.0709362359
Ni      3.6969571749     4.9715231220    14.1220203985
Ni      3.6859223655     0.7093562278     8.0127033495
Ni      2.4572826402    -0.0000000000    10.0192033545
Ni      4.9213653839     1.4225857500    12.0705018304
Ni      3.6967638997     0.7160224207    14.1212311860
Ni      4.9145625469     2.8374249112     8.0127033495
Ni      3.6859228216     2.1280686834    10.0192033545
Ni      6.1503529497     3.5509085402    12.0699854915
Ni      4.9256539069     2.8438285306    14.1202327617
Ni      6.1432395878     4.9655574374     8.0127033495
Ni      4.9145998625     4.2562012095    10.0192033545
Ni      7.3794585706     5.6794809406    12.0703411417
Ni      6.1541912510     4.9717126524    14.1210383973
Ni      6.1432764474     0.7093562278     8.0127033495
Ni      4.9146367221    -0.0000000000    10.0192033545
Ni      7.3792576901     1.4227490418    12.0709363656
Ni      6.1539445722     0.7158998925    14.1220190429
Ni      7.3719166287     2.8374249112     8.0127033495
Ni      6.1432769035     2.1280686834    10.0192033545
Ni      8.6083025545     3.5510600089    12.0703431006
Ni      7.3827250276     2.8438303041    14.1210406577
Ni      8.6005936697     4.9655574374     8.0127033495
Ni      7.3719539444     4.2562012095    10.0192033545
Ni      9.8373683369     5.6796094234    12.0707933550
Ni      8.6114301675     4.9718114503    14.1216528753
Cu     -0.0001729091     0.0000996855    22.7021088913
Cu      1.2093807667     2.1272174697    22.6830751361
Cu      2.4478507844     4.2802266128    22.6778130457
Cu      2.4494333330    -0.0207676349    22.6774834857
Cu      0.0125988505     0.0072754476    16.2332161102
Cu      2.4696349891     1.4258444684    18.3916416570
Cu      1.2362198113     0.7140674024    20.5462404337
Cu      3.7010035165     2.1589111279    22.5282493307
Cu      1.2416711544     2.1361120827    16.2320324925
Cu      3.6976153977     3.5539780780    18.3918749325
Cu      2.4604237973     2.8431113081    20.5438642833
Cu      4.9271443536     4.2761929790    22.6813247740
Cu      4.9256357644    -0.0159267959    22.6855049890
Cu      2.4707625323     0.0072639821    16.2320277932
Cu      4.9266420746     1.4252400817    18.3918761583
Cu      3.6926481831     0.7118914516    20.5459764422
Cu      6.1621360771     2.1263716604    22.6900442028
Cu      3.6999344853     2.1361584753    16.2305426330
Cu      6.1546566898     3.5533933395    18.3924014903
Cu      4.9241147075     2.8426804356    20.5432596267
Cu      7.3727371265     4.2577032914    22.7051279757
Cu      2.4703615692     4.2639064921    16.2323564383
Cu      4.9258612022     5.6821553099    18.3929147418
Cu      3.6922354739     4.9683588984    20.5465513919
Cu      4.9284376454     4.2641058199    16.2311095738
Cu      7.3827816611     5.6818035922    18.3933612343
Cu      6.1507441958     4.9677877916    20.5401402119
Cu      4.9278325409     0.0074438059    16.2323521866
Cu      7.3838191099     1.4248449337    18.3929204237
Cu      6.1492993261     0.7133563294    20.5431808081
Cu      6.1570438883     2.1360992535    16.2311101997
Cu      8.6119749333     3.5527772255    18.3933657681
Cu      7.3786487175     2.8425453603    20.5440961860
Cu      7.3856113588     4.2640840866    16.2316791967
Cu      9.8400295452     5.6811466362    18.3940799063
Cu      8.6056490778     4.9675002284    20.5409751005
O       3.9893557748     0.7777989783    26.8232748868
O       3.4409637139     2.1042873871    24.5718114301
O       3.4905424875     2.1317364895    29.2918381189
C       3.5189423127     2.1367600786    26.9063120264
C       3.9906632045     2.8674852952    25.6659619399
C       3.9877205853     2.8320765026    28.1551125510
H       2.4195980463     2.0572302253    26.8669631563
H       5.0966101662     2.8876793861    25.5713352697
H       3.6004003200     3.8938653908    25.5495148090
H       3.6407521265     3.8852287747    28.1501528436
H       5.0965598015     2.8311218501    28.1490016495
H       4.9678121613     0.8345115115    26.8470965826
H       3.8412868872     1.1956706929    24.5781807614
H       3.8389912390     2.6036131899    30.0608032072
