86
Step 1 | ATOMIC_POSITIONS (angstrom) | Cartesian Angstrom
Ni      1.2286420027     0.7093562278     8.0127033495
Ni      0.0000022775     0.0000000000    10.0192033545
Ni      2.4637570809     1.4224515552    12.0711324136
Ni      1.2397802907     0.7157901456    14.1224527674
Ni      2.4572821841     2.8374249112     8.0127033495
Ni      1.2286424588     2.1280686834    10.0192033545
Ni      3.6926781159     3.5507357065    12.0705045449
Ni      2.4684725529     2.8434817294    14.1212345102
Ni      3.6859592251     4.9655574374     8.0127033495
Ni      2.4573194998     4.2562012095    10.0192033545
Ni      4.9217656993     5.6792526148    12.0709362359
Ni      3.6969571749     4.9715231220    14.1220203985
Ni      3.6859223655     0.7093562278     8.0127033495
Ni      2.4572826402     0.0000000000    10.0192033545
Ni      4.9213653839     1.4225857500    12.0705018304
Ni      3.6967638997     0.7160224207    14.1212311860
Ni      4.9145625469     2.8374249112     8.0127033495
Ni      3.6859228216     2.1280686834    10.0192033545
Ni      6.1503529497     3.5509085402    12.0699854915
Ni      4.9256539069     2.8438285306    14.1202327617
Ni      6.1432395878     4.9655574374     8.0127033495
Ni      4.9145998625     4.2562012095    10.0192033545
Ni      7.3794585706     5.6794809406    12.0703411417
Ni      6.1541912510     4.9717126524    14.1210383973
Ni      6.1432764474     0.7093562278     8.0127033495
Ni      4.9146367221     0.0000000000    10.0192033545
Ni      7.3792576901     1.4227490418    12.0709363656
Ni      6.1539445722     0.7158998925    14.1220190429
Ni      7.3719166287     2.8374249112     8.0127033495
Ni      6.1432769035     2.1280686834    10.0192033545
Ni      8.6083025545     3.5510600089    12.0703431006
Ni      7.3827250276     2.8438303041    14.1210406577
Ni      8.6005936697     4.9655574374     8.0127033495
Ni      7.3719539444     4.2562012095    10.0192033545
Ni      9.8373683369     5.6796094234    12.0707933550
Ni      8.6114301675     4.9718114503    14.1216528753
Cu      0.0001434990     0.0000906242    22.7032657951
Cu      1.2211557031     2.1281760089    22.7001021747
Cu      2.4545119149     4.2649298565    22.6986878886
Cu      2.4542219815    -0.0080343745    22.6989880459
Cu      0.0125988505     0.0072754476    16.2332161102
Cu      2.4696349891     1.4258444684    18.3916416570
Cu      1.2360706144     0.7137523260    20.5513032205
Cu      3.6934530922     2.1385867933    22.6245264301
Cu      1.2416711544     2.1361120827    16.2320324925
Cu      3.6976153977     3.5539780780    18.3918749325
Cu      2.4648932457     2.8410373258    20.5534651004
Cu      4.9186194957     4.2631947442    22.7013341799
Cu      4.9196784764    -0.0062552117    22.7007243758
Cu      2.4707625323     0.0072639821    16.2320277932
Cu      4.9266420746     1.4252400817    18.3918761583
Cu      3.6928793870     0.7148469533    20.5538825723
Cu      6.1503407260     2.1273874105    22.7035455019
Cu      3.6999344853     2.1361584753    16.2305426330
Cu      6.1546566898     3.5533933395    18.3924014903
Cu      4.9202505145     2.8406759466    20.5540723085
Cu      7.3730794437     4.2572703384    22.7074419108
Cu      2.4703615692     4.2639064921    16.2323564383
Cu      4.9258612022     5.6821553099    18.3929147418
Cu      3.6923315911     4.9686611145    20.5523429080
Cu      4.9284376454     4.2641058199    16.2311095738
Cu      7.3827816611     5.6818035922    18.3933612343
Cu      6.1496845839     4.9688314213    20.5517676799
Cu      4.9278325409     0.0074438059    16.2323521866
Cu      7.3838191099     1.4248449337    18.3929204237
Cu      6.1493462258     0.7133048091    20.5513655162
Cu      6.1570438883     2.1360992535    16.2311101997
Cu      8.6119749333     3.5527772255    18.3933657681
Cu      7.3783790532     2.8413756920    20.5526002190
Cu      7.3856113588     4.2640840866    16.2316791967
Cu      9.8400295452     5.6811466362    18.3940799063
Cu      8.6063726714     4.9684546601    20.5520708808
O       3.9890494839     0.7881410231    26.8342799082
O       3.4907545318     2.1469744170    24.5397640303
O       3.5009096087     2.1345780284    29.2821015580
C       3.5103246687     2.1371018882    26.8696254295
C       3.9784746710     2.8598498318    25.6221924600
C       3.9835260508     2.8318104501    28.1318256140
H       2.3961027286     2.0533393660    26.8661179397
H       5.0817234143     2.8716645817    25.5582900904
H       3.6055004609     3.8773759119    25.5558448788
H       3.6392259146     3.8717977353    28.1645465002
H       5.0920377948     2.8199896148    28.1647600355
H       4.9686790262     0.8462237640    26.8425868015
H       3.8459538844     1.2127536074    24.5353374130
H       3.8453257544     2.6113861376    30.0541015960
86
Step 2 | ATOMIC_POSITIONS (angstrom) | Cartesian Angstrom
Ni      1.2286420027     0.7093562278     8.0127033495
Ni      0.0000022775    -0.0000000000    10.0192033545
Ni      2.4637570809     1.4224515552    12.0711324136
Ni      1.2397802907     0.7157901456    14.1224527674
Ni      2.4572821841     2.8374249112     8.0127033495
Ni      1.2286424588     2.1280686834    10.0192033545
Ni      3.6926781159     3.5507357065    12.0705045449
Ni      2.4684725529     2.8434817294    14.1212345102
Ni      3.6859592251     4.9655574374     8.0127033495
Ni      2.4573194998     4.2562012095    10.0192033545
Ni      4.9217656993     5.6792526148    12.0709362359
Ni      3.6969571749     4.9715231220    14.1220203985
Ni      3.6859223655     0.7093562278     8.0127033495
Ni      2.4572826402    -0.0000000000    10.0192033545
Ni      4.9213653839     1.4225857500    12.0705018304
Ni      3.6967638997     0.7160224207    14.1212311860
Ni      4.9145625469     2.8374249112     8.0127033495
Ni      3.6859228216     2.1280686834    10.0192033545
Ni      6.1503529497     3.5509085402    12.0699854915
Ni      4.9256539069     2.8438285306    14.1202327617
Ni      6.1432395878     4.9655574374     8.0127033495
Ni      4.9145998625     4.2562012095    10.0192033545
Ni      7.3794585706     5.6794809406    12.0703411417
Ni      6.1541912510     4.9717126524    14.1210383973
Ni      6.1432764474     0.7093562278     8.0127033495
Ni      4.9146367221    -0.0000000000    10.0192033545
Ni      7.3792576901     1.4227490418    12.0709363656
Ni      6.1539445722     0.7158998925    14.1220190429
Ni      7.3719166287     2.8374249112     8.0127033495
Ni      6.1432769035     2.1280686834    10.0192033545
Ni      8.6083025545     3.5510600089    12.0703431006
Ni      7.3827250276     2.8438303041    14.1210406577
Ni      8.6005936697     4.9655574374     8.0127033495
Ni      7.3719539444     4.2562012095    10.0192033545
Ni      9.8373683369     5.6796094234    12.0707933550
Ni      8.6114301675     4.9718114503    14.1216528753
Cu     -0.0000476587     0.0000118208    22.7027319916
Cu      1.2139770497     2.1276262371    22.6919506694
Cu      2.4507832030     4.2733623924    22.6886715117
Cu      2.4511451503    -0.0156484154    22.6890426168
Cu      0.0125988505     0.0072754476    16.2332161102
Cu      2.4696349891     1.4258444684    18.3916416570
Cu      1.2362797318     0.7140001435    20.5491464073
Cu      3.6984386998     2.1497823257    22.5642338363
Cu      1.2416711544     2.1361120827    16.2320324925
Cu      3.6976153977     3.5539780780    18.3918749325
Cu      2.4637246802     2.8414870033    20.5505190639
Cu      4.9231884757     4.2702620011    22.6917544230
Cu      4.9232293480    -0.0121728053    22.6938318407
Cu      2.4707625323     0.0072639821    16.2320277932
Cu      4.9266420746     1.4252400817    18.3918761583
Cu      3.6927511827     0.7145394845    20.5515702372
Cu      6.1570602895     2.1268453405    22.6971547669
Cu      3.6999344853     2.1361584753    16.2305426330
Cu      6.1546566898     3.5533933395    18.3924014903
Cu      4.9210352521     2.8410509239    20.5507204273
Cu      7.3728329360     4.2575438571    22.7063851978
Cu      2.4703615692     4.2639064921    16.2323564383
Cu      4.9258612022     5.6821553099    18.3929147418
Cu      3.6922648442     4.9683089527    20.5499410932
Cu      4.9284376454     4.2641058199    16.2311095738
Cu      7.3827816611     5.6818035922    18.3933612343
Cu      6.1500796648     4.9683272675    20.5467186775
Cu      4.9278325409     0.0074438059    16.2323521866
Cu      7.3838191099     1.4248449337    18.3929204237
Cu      6.1492007737     0.7134110852    20.5476740822
Cu      6.1570438883     2.1360992535    16.2311101997
Cu      8.6119749333     3.5527772255    18.3933657681
Cu      7.3785462491     2.8418904924    20.5489419604
Cu      7.3856113588     4.2640840866    16.2316791967
Cu      9.8400295452     5.6811466362    18.3940799063
Cu      8.6061604803     4.9679322640    20.5472082301
O       3.9950710295     0.7797422533    26.8274369654
O       3.4641986320     2.1135403735    24.5597757852
O       3.4938495770     2.1306256408    29.2859820263
C       3.5098388726     2.1381642126    26.8888558859
C       3.9952729130     2.8690819248    25.6551381793
C       3.9878547385     2.8302094588    28.1423319473
H       2.4091960313     2.0551308369    26.8659054802
H       5.0864489226     2.8792878524    25.5643824273
H       3.6014747894     3.8886878494    25.5516726579
H       3.6387879552     3.8820964767    28.1571440354
H       5.0941585723     2.8254083108    28.1557735967
H       4.9629192882     0.8410609739    26.8444700559
H       3.8412860466     1.2095876409    24.5548044500
H       3.8430049425     2.6086343467    30.0565618952
86
Step 3 | ATOMIC_POSITIONS (angstrom) | Cartesian Angstrom
Ni      1.2286420027     0.7093562278     8.0127033495
Ni      0.0000022775    -0.0000000000    10.0192033545
Ni      2.4637570809     1.4224515552    12.0711324136
Ni      1.2397802907     0.7157901456    14.1224527674
Ni      2.4572821841     2.8374249112     8.0127033495
Ni      1.2286424588     2.1280686834    10.0192033545
Ni      3.6926781159     3.5507357065    12.0705045449
Ni      2.4684725529     2.8434817294    14.1212345102
Ni      3.6859592251     4.9655574374     8.0127033495
Ni      2.4573194998     4.2562012095    10.0192033545
Ni      4.9217656993     5.6792526148    12.0709362359
Ni      3.6969571749     4.9715231220    14.1220203985
Ni      3.6859223655     0.7093562278     8.0127033495
Ni      2.4572826402    -0.0000000000    10.0192033545
Ni      4.9213653839     1.4225857500    12.0705018304
Ni      3.6967638997     0.7160224207    14.1212311860
Ni      4.9145625469     2.8374249112     8.0127033495
Ni      3.6859228216     2.1280686834    10.0192033545
Ni      6.1503529497     3.5509085402    12.0699854915
Ni      4.9256539069     2.8438285306    14.1202327617
Ni      6.1432395878     4.9655574374     8.0127033495
Ni      4.9145998625     4.2562012095    10.0192033545
Ni      7.3794585706     5.6794809406    12.0703411417
Ni      6.1541912510     4.9717126524    14.1210383973
Ni      6.1432764474     0.7093562278     8.0127033495
Ni      4.9146367221    -0.0000000000    10.0192033545
Ni      7.3792576901     1.4227490418    12.0709363656
Ni      6.1539445722     0.7158998925    14.1220190429
Ni      7.3719166287     2.8374249112     8.0127033495
Ni      6.1432769035     2.1280686834    10.0192033545
Ni      8.6083025545     3.5510600089    12.0703431006
Ni      7.3827250276     2.8438303041    14.1210406577
Ni      8.6005936697     4.9655574374     8.0127033495
Ni      7.3719539444     4.2562012095    10.0192033545
Ni      9.8373683369     5.6796094234    12.0707933550
Ni      8.6114301675     4.9718114503    14.1216528753
Cu     -0.0001771176     0.0001131765    22.7021336408
Cu      1.2094168985     2.1271990017    22.6831486008
Cu      2.4478584282     4.2801955968    22.6778926036
Cu      2.4494640032    -0.0207283824    22.6775526361
Cu      0.0125988505     0.0072754476    16.2332161102
Cu      2.4696349891     1.4258444684    18.3916416570
Cu      1.2362218479     0.7140677955    20.5463245019
Cu      3.7010096385     2.1588505058    22.5283565059
Cu      1.2416711544     2.1361120827    16.2320324925
Cu      3.6976153977     3.5539780780    18.3918749325
Cu      2.4604206026     2.8431090912    20.5439258960
Cu      4.9271323818     4.2761528452    22.6814382280
Cu      4.9256082749    -0.0158906072    22.6855622937
Cu      2.4707625323     0.0072639821    16.2320277932
Cu      4.9266420746     1.4252400817    18.3918761583
Cu      3.6926439783     0.7118902415    20.5460546901
Cu      6.1620877846     2.1263536273    22.6901414605
Cu      3.6999344853     2.1361584753    16.2305426330
Cu      6.1546566898     3.5533933395    18.3924014903
Cu      4.9241150916     2.8426834644    20.5433056492
Cu      7.3727407962     4.2577224760    22.7051570926
Cu      2.4703615692     4.2639064921    16.2323564383
Cu      4.9258612022     5.6821553099    18.3929147418
Cu      3.6922371338     4.9683556149    20.5466130660
Cu      4.9284376454     4.2641058199    16.2311095738
Cu      7.3827816611     5.6818035922    18.3933612343
Cu      6.1507361112     4.9677852043    20.5402292636
Cu      4.9278325409     0.0074438059    16.2323521866
Cu      7.3838191099     1.4248449337    18.3929204237
Cu      6.1493026167     0.7133546096    20.5432614893
Cu      6.1570438883     2.1360992535    16.2311101997
Cu      8.6119749333     3.5527772255    18.3933657681
Cu      7.3786522835     2.8425406190    20.5441878859
Cu      7.3856113588     4.2640840866    16.2316791967
Cu      9.8400295452     5.6811466362    18.3940799063
Cu      8.6056553058     4.9674930417    20.5410743959
O       3.9893580802     0.7778371605    26.8233270378
O       3.4410399230     2.1044263679    24.5718199436
O       3.4905865059     2.1317813305    29.2918695944
C       3.5189430235     2.1367613422    26.9062863867
C       3.9906115490     2.8674712624    25.6658992842
C       3.9877068486     2.8320787719    28.1551149588
H       2.4195585416     2.0572256963    26.8670071264
H       5.0965806849     2.8876430741    25.5713528447
H       3.6004139909     3.8938362655    25.5495806044
H       3.6407545778     3.8852000151    28.1502250879
H       5.0965531544     2.8311019648    28.1490788223
H       4.9678206738     0.8345313063    26.8471368495
H       3.8412679097     1.1957572969    24.5781335389
H       3.8390008949     2.6036236731    30.0608376913
