86
Step 1 | ATOMIC_POSITIONS (angstrom) | Cartesian Angstrom
Ni      1.2286390390     0.7093535490     9.0128649340
Ni      2.4572760100     2.8374169220     9.0128649340
Ni      3.6859498400     4.9655441370     9.0128649340
Ni      3.6859144660     0.7093535490     9.0128649340
Ni      4.9145514370     2.8374169220     9.0128649340
Ni      6.1432252670     4.9655441370     9.0128649340
Ni      6.1432636120     0.7093535490     9.0128649340
Ni      7.3719005830     2.8374169220     9.0128649340
Ni      8.6005744130     4.9655441370     9.0128649340
Ni      0.0000019230    -0.0000011100    11.0189462060
Ni      1.2286511800     2.1280835430    11.0189462060
Ni      2.4573004370     4.2561681970    11.0189462060
Ni      2.4573019230    -0.0000011100    11.0189462060
Ni      3.6859511800     2.1280835430    11.0189462060
Ni      4.9146004370     4.2561681970    11.0189462060
Ni      4.9146019230    -0.0000011100    11.0189462060
Ni      6.1432511800     2.1280835430    11.0189462060
Ni      7.3719004370     4.2561681970    11.0189462060
Ni      6.1438734720     3.5471661970    12.9811357840
Ni      7.3724754910     5.6753002550    12.9812984850
Ni      8.6011926510     3.5471005460    12.9812984900
Ni      4.9154250810     1.4190473550    12.9815171700
Ni      3.6866443280     3.5473571860    12.9815172510
Ni      9.8297970970     5.6752360910    12.9815758290
Ni      7.3727178060     1.4189936100    12.9817330850
Ni      4.9152433530     5.6754625070    12.9817330970
Ni      2.4581886360     1.4192341220    12.9820006980
Ni      1.2300181510     0.7101493710    14.9469571230
Ni      3.6871547190     0.7105440160    14.9472125230
Ni      2.4589274570     2.8378950180    14.9472126230
Ni      3.6873641450     4.9659340110    14.9472361150
Ni      6.1443087910     0.7103827880    14.9472361760
Ni      4.9159520710     2.8382250840    14.9474526980
Ni      6.1444225000     4.9663508800    14.9474869000
Ni      7.3731982530     2.8380497740    14.9474870240
Ni      8.6015404070     4.9661014020    14.9475110630
Cu      0.0002371770     0.0001345310    17.0095566530
Cu      2.4575439700     0.0002605240    17.0097303500
Cu      1.2289989080     2.1281620840    17.0097304640
Cu      2.4574811020     4.2563400380    17.0097910800
Cu      4.9148412440     0.0000691580    17.0097911200
Cu      3.6862398640     2.1282500140    17.0099390000
Cu      4.9147998590     4.2563702540    17.0100125200
Cu      6.1435260460     2.1281549480    17.0100126890
Cu      7.3720625000     4.2562615990    17.0100868050
Cu      2.4630591330     1.4235958836    19.0973326525
Cu      4.9176112370     5.6781264281    19.0951852934
Cu      7.3750776970     1.4222683437    19.0953442889
Cu      3.6890277859     3.5471792547    19.1008476617
Cu      4.9156423919     1.4230143901    19.0999412592
Cu      7.3754296263     5.6789019419    19.0963913283
Cu      8.6060465633     3.5480896333    19.0989062017
Cu      9.8325562716     5.6779924912    19.0968540466
Cu      6.1440556849     3.5475372022    19.1009267739
Cu      3.6913822331     4.9725686200    21.1847772406
Cu      6.1481271184     0.7181276449    21.1842704655
Cu      1.2330537309     0.7184496880    21.1798503809
Cu      2.4692887557     2.8411291233    21.2114314593
Cu      3.6908498624     0.7243502488    21.2026436453
Cu      8.6023480227     4.9701352725    21.1820818640
Cu      7.3752108642     2.8474246147    21.1861752949
Cu      6.1497320705     4.9672462939    21.1781513433
Cu      4.9094860199     2.8389847554    21.2163127928
Cu      3.6865885445     2.1390380209    23.3210815323
Cu      1.2128907564     2.1385264782    23.2236652070
Cu      2.4487852142    -0.0132533552    23.2053078960
Cu      4.9233504013     4.2779381730    23.2357949988
Cu      6.1587544873     2.1371405656    23.2381250449
Cu      0.0023369878     0.0100800007    23.2434621356
Cu      2.4548538941     4.2854210999    23.2285275376
Cu      4.9283382974    -0.0029039782    23.2225813475
Cu      7.3755768539     4.2683073535    23.2622511188
O       3.4330368980     1.8881071394    25.3936057112
H       3.7145935823     0.9678937611    25.6002251253
H       5.0642422495     2.9030998034    26.2290858507
H       3.4806014849     3.7184440148    26.3001522957
C       3.9860517103     2.7514937504    26.4132674382
O       4.2046796559     0.7527341905    27.7663277675
H       5.1790439543     0.7742952724    27.7994538683
C       3.7200421837     2.1090232313    27.7714712303
H       2.6321369544     2.0037254341    27.9070124481
C       4.2699313158     2.9373448258    28.9217876179
H       3.9908042108     3.9954981875    28.7667542353
H       5.3766135638     2.8822872602    28.9240853818
O       3.7201122099     2.4308365182    30.1406071079
H       4.1086612795     2.9207714602    30.8832137937
