86
Step 1 | ATOMIC_POSITIONS (angstrom) | Cartesian Angstrom
Ni      0.0000000000     0.0000000000    10.0000000900
Ni      8.6005476670     2.1280836470    10.0000000900
Ni      9.8291973330     4.2561672950    10.0000000900
Ni      2.4572993330     0.0000000000    10.0000000900
Ni      3.6859490000     2.1280836470    10.0000000900
Ni      4.9145986670     4.2561672950    10.0000000900
Ni      4.9145986670     0.0000000000    10.0000000900
Ni      6.1432483330     2.1280836470    10.0000000900
Ni      7.3718980000     4.2561672950    10.0000000900
Ni      1.6381995390     1.4187224170    12.0063763950
Ni      2.8668492300     3.5468061070    12.0063763950
Ni      4.0954988850     5.6748897330    12.0063763950
Ni      4.0954988480     1.4187224170    12.0063763950
Ni      5.3241485390     3.5468061070    12.0063763950
Ni      6.5527981940     5.6748897330    12.0063763950
Ni      6.5527982300     1.4187224170    12.0063763950
Ni      7.7814479220     3.5468061070    12.0063763950
Ni      9.0100975760     5.6748897330    12.0063763950
Ni      2.0477494240     0.7093612090    14.1640614080
Ni      3.2763990780     2.8374448350    14.1640729510
Ni      4.5050487700     4.9655285250    14.1640397250
Ni      4.5050488060     0.7093612090    14.1640710440
Ni      5.7336984610     2.8374448350    14.1640423650
Ni      6.9623481520     4.9655285250    14.1640482520
Ni      6.9623481150     0.7093612090    14.1640292020
Ni      8.1909977700     2.8374448350    14.1640591990
Ni      9.4196474610     4.9655285250    14.1640542750
Ni      0.0000000000     0.0000000000    16.3281461600
Ni      8.6005476670     2.1280836470    16.3282017120
Ni      9.8291973330     4.2561672950    16.3281943160
Ni      2.4572993330     0.0000000000    16.3281936330
Ni      3.6859490000     2.1280836470    16.3282178260
Ni      4.9145986670     4.2561672950    16.3281642570
Ni      4.9145986670     0.0000000000    16.3282096040
Ni      6.1432483330     2.1280836470    16.3281694310
Ni      7.3718980000     4.2561672950    16.3281777140
Cu      1.6381995390     1.4187224170    18.5439570380
Cu      2.8668492300     3.5468061070    18.5439633170
Cu      4.0954988850     5.6748897330    18.5439058500
Cu      4.0954988480     1.4187224170    18.5439876690
Cu      5.3241485390     3.5468061070    18.5439225600
Cu      6.5527981940     5.6748897330    18.5439394360
Cu      6.5527982300     1.4187224170    18.5439267690
Cu      7.7814479220     3.5468061070    18.5439293780
Cu      9.0100975760     5.6748897330    18.5439799570
Cu      2.0477494240     0.7093612090    20.7902126970
Cu      3.2763990780     2.8374448350    20.7902464750
Cu      4.5050487700     4.9655285250    20.7901894570
Cu      4.5050488060     0.7093612090    20.7902646290
Cu      5.7336984610     2.8374448350    20.7902077890
Cu      6.9623481520     4.9655285250    20.7902013200
Cu      6.9623481150     0.7093612090    20.7901985810
Cu      8.1909977700     2.8374448350    20.7901995150
Cu      9.4196474610     4.9655285250    20.7902560580
Cu      0.0000000000     0.0000000000    23.0269984560
Cu      8.6005476670     2.1280836470    23.0270021480
Cu      9.8291973330     4.2561672950    23.0270571880
Cu      2.4572993330     0.0000000000    23.0270017780
Cu      3.6859490000     2.1280836470    23.0270601890
Cu      4.9145986670     4.2561672950    23.0270145410
Cu      4.9145986670     0.0000000000    23.0270616010
Cu      6.1432483330     2.1280836470    23.0270229140
Cu      7.3718980000     4.2561672950    23.0270045470
Cu      1.8391174127     1.0698891339    25.1888289616
Cu      3.0625630050     3.1978398844    25.1844678839
Cu      4.2933206998     5.3324335000    25.1828960200
Cu      4.2948193926     1.0653614260    25.1850968414
Cu      5.5271332720     3.2041193701    25.1504328486
Cu      6.7574914267     5.3318371060    25.1822945723
Cu      6.7565377748     1.0655654085    25.1855099387
Cu      7.9879192606     3.1975674650    25.1848712246
Cu      9.2112036432     5.3264021712    25.1888483381
O       5.9333805882     1.9993161420    29.4559026042
O       5.4398087145     3.3572958587    27.1167823108
O       5.4451272598     3.3461096333    31.9037298082
C       5.4547868535     3.3491379923    29.4918850123
C       5.9222385055     4.0692406852    28.2388626732
C       5.9275260202     4.0428137149    30.7536586319
H       4.3403198840     3.2647674532    29.4877194423
H       7.0259205249     4.0832759521    28.1808337968
H       5.5496252673     5.0886856821    28.1778997353
H       5.5833532781     5.0832329599    30.7861807541
H       7.0362096454     4.0314212001    30.7864315067
H       6.9126990455     2.0578272048    29.4645444391
H       5.7895817839     2.4290146323    27.1538216951
H       5.7894401382     3.8227732257    32.6758492518
86
Step 2 | ATOMIC_POSITIONS (angstrom) | Cartesian Angstrom
Ni      0.0000000000     0.0000000000    10.0000000900
Ni      8.6005476670     2.1280836470    10.0000000900
Ni      9.8291973330     4.2561672950    10.0000000900
Ni      2.4572993330     0.0000000000    10.0000000900
Ni      3.6859490000     2.1280836470    10.0000000900
Ni      4.9145986670     4.2561672950    10.0000000900
Ni      4.9145986670     0.0000000000    10.0000000900
Ni      6.1432483330     2.1280836470    10.0000000900
Ni      7.3718980000     4.2561672950    10.0000000900
Ni      1.6381995390     1.4187224170    12.0063763950
Ni      2.8668492300     3.5468061070    12.0063763950
Ni      4.0954988850     5.6748897330    12.0063763950
Ni      4.0954988480     1.4187224170    12.0063763950
Ni      5.3241485390     3.5468061070    12.0063763950
Ni      6.5527981940     5.6748897330    12.0063763950
Ni      6.5527982300     1.4187224170    12.0063763950
Ni      7.7814479220     3.5468061070    12.0063763950
Ni      9.0100975760     5.6748897330    12.0063763950
Ni      2.0477494240     0.7093612090    14.1640614080
Ni      3.2763990780     2.8374448350    14.1640729510
Ni      4.5050487700     4.9655285250    14.1640397250
Ni      4.5050488060     0.7093612090    14.1640710440
Ni      5.7336984610     2.8374448350    14.1640423650
Ni      6.9623481520     4.9655285250    14.1640482520
Ni      6.9623481150     0.7093612090    14.1640292020
Ni      8.1909977700     2.8374448350    14.1640591990
Ni      9.4196474610     4.9655285250    14.1640542750
Ni      0.0000000000     0.0000000000    16.3281461600
Ni      8.6005476670     2.1280836470    16.3282017120
Ni      9.8291973330     4.2561672950    16.3281943160
Ni      2.4572993330     0.0000000000    16.3281936330
Ni      3.6859490000     2.1280836470    16.3282178260
Ni      4.9145986670     4.2561672950    16.3281642570
Ni      4.9145986670     0.0000000000    16.3282096040
Ni      6.1432483330     2.1280836470    16.3281694310
Ni      7.3718980000     4.2561672950    16.3281777140
Cu      1.6381995390     1.4187224170    18.5439570380
Cu      2.8668492300     3.5468061070    18.5439633170
Cu      4.0954988850     5.6748897330    18.5439058500
Cu      4.0954988480     1.4187224170    18.5439876690
Cu      5.3241485390     3.5468061070    18.5439225600
Cu      6.5527981940     5.6748897330    18.5439394360
Cu      6.5527982300     1.4187224170    18.5439267690
Cu      7.7814479220     3.5468061070    18.5439293780
Cu      9.0100975760     5.6748897330    18.5439799570
Cu      2.0477494240     0.7093612090    20.7902126970
Cu      3.2763990780     2.8374448350    20.7902464750
Cu      4.5050487700     4.9655285250    20.7901894570
Cu      4.5050488060     0.7093612090    20.7902646290
Cu      5.7336984610     2.8374448350    20.7902077890
Cu      6.9623481520     4.9655285250    20.7902013200
Cu      6.9623481150     0.7093612090    20.7901985810
Cu      8.1909977700     2.8374448350    20.7901995150
Cu      9.4196474610     4.9655285250    20.7902560580
Cu      0.0000000000     0.0000000000    23.0269984560
Cu      8.6005476670     2.1280836470    23.0270021480
Cu      9.8291973330     4.2561672950    23.0270571880
Cu      2.4572993330     0.0000000000    23.0270017780
Cu      3.6859490000     2.1280836470    23.0270601890
Cu      4.9145986670     4.2561672950    23.0270145410
Cu      4.9145986670     0.0000000000    23.0270616010
Cu      6.1432483330     2.1280836470    23.0270229140
Cu      7.3718980000     4.2561672950    23.0270045470
Cu      1.8385563560     1.0693887855    25.1926217392
Cu      3.0526455208     3.1968647937    25.1788587441
Cu      4.2869950994     5.3437302703    25.1740571599
Cu      4.2916753036     1.0571442779    25.1807461218
Cu      5.5307353788     3.2161130629    25.0892260212
Cu      6.7642914830     5.3422695091    25.1721865780
Cu      6.7606152472     1.0579102188    25.1824110313
Cu      7.9974242239     3.1962803299    25.1803442427
Cu      9.2109458967     5.3264713115    25.1925516803
O       5.9383812188     1.9838278954    29.4456914894
O       5.4156692343     3.3302296766    27.1579931669
O       5.4338420885     3.3387443655    31.9102014856
C       5.4591580590     3.3468258189    29.5085145756
C       5.9342391999     4.0781224199    28.2600852471
C       5.9314326291     4.0440190828    30.7685615082
H       4.3562290387     3.2668255094    29.4878576800
H       7.0326268349     4.0927792275    28.1890486125
H       5.5441774168     5.1012503139    28.1696676489
H       5.5830952524     5.0988304896    30.7749573346
H       7.0416037967     4.0392943177    30.7721951972
H       6.9063904671     2.0513852835    29.4676638559
H       5.7844466732     2.4177155663    27.1757441974
H       5.7859426410     3.8186304121    32.6787597454
86
Step 3 | ATOMIC_POSITIONS (angstrom) | Cartesian Angstrom
Ni      0.0000000000     0.0000000000    10.0000000900
Ni      8.6005476670     2.1280836470    10.0000000900
Ni      9.8291973330     4.2561672950    10.0000000900
Ni      2.4572993330     0.0000000000    10.0000000900
Ni      3.6859490000     2.1280836470    10.0000000900
Ni      4.9145986670     4.2561672950    10.0000000900
Ni      4.9145986670     0.0000000000    10.0000000900
Ni      6.1432483330     2.1280836470    10.0000000900
Ni      7.3718980000     4.2561672950    10.0000000900
Ni      1.6381995390     1.4187224170    12.0063763950
Ni      2.8668492300     3.5468061070    12.0063763950
Ni      4.0954988850     5.6748897330    12.0063763950
Ni      4.0954988480     1.4187224170    12.0063763950
Ni      5.3241485390     3.5468061070    12.0063763950
Ni      6.5527981940     5.6748897330    12.0063763950
Ni      6.5527982300     1.4187224170    12.0063763950
Ni      7.7814479220     3.5468061070    12.0063763950
Ni      9.0100975760     5.6748897330    12.0063763950
Ni      2.0477494240     0.7093612090    14.1640614080
Ni      3.2763990780     2.8374448350    14.1640729510
Ni      4.5050487700     4.9655285250    14.1640397250
Ni      4.5050488060     0.7093612090    14.1640710440
Ni      5.7336984610     2.8374448350    14.1640423650
Ni      6.9623481520     4.9655285250    14.1640482520
Ni      6.9623481150     0.7093612090    14.1640292020
Ni      8.1909977700     2.8374448350    14.1640591990
Ni      9.4196474610     4.9655285250    14.1640542750
Ni      0.0000000000     0.0000000000    16.3281461600
Ni      8.6005476670     2.1280836470    16.3282017120
Ni      9.8291973330     4.2561672950    16.3281943160
Ni      2.4572993330     0.0000000000    16.3281936330
Ni      3.6859490000     2.1280836470    16.3282178260
Ni      4.9145986670     4.2561672950    16.3281642570
Ni      4.9145986670     0.0000000000    16.3282096040
Ni      6.1432483330     2.1280836470    16.3281694310
Ni      7.3718980000     4.2561672950    16.3281777140
Cu      1.6381995390     1.4187224170    18.5439570380
Cu      2.8668492300     3.5468061070    18.5439633170
Cu      4.0954988850     5.6748897330    18.5439058500
Cu      4.0954988480     1.4187224170    18.5439876690
Cu      5.3241485390     3.5468061070    18.5439225600
Cu      6.5527981940     5.6748897330    18.5439394360
Cu      6.5527982300     1.4187224170    18.5439267690
Cu      7.7814479220     3.5468061070    18.5439293780
Cu      9.0100975760     5.6748897330    18.5439799570
Cu      2.0477494240     0.7093612090    20.7902126970
Cu      3.2763990780     2.8374448350    20.7902464750
Cu      4.5050487700     4.9655285250    20.7901894570
Cu      4.5050488060     0.7093612090    20.7902646290
Cu      5.7336984610     2.8374448350    20.7902077890
Cu      6.9623481520     4.9655285250    20.7902013200
Cu      6.9623481150     0.7093612090    20.7901985810
Cu      8.1909977700     2.8374448350    20.7901995150
Cu      9.4196474610     4.9655285250    20.7902560580
Cu      0.0000000000     0.0000000000    23.0269984560
Cu      8.6005476670     2.1280836470    23.0270021480
Cu      9.8291973330     4.2561672950    23.0270571880
Cu      2.4572993330     0.0000000000    23.0270017780
Cu      3.6859490000     2.1280836470    23.0270601890
Cu      4.9145986670     4.2561672950    23.0270145410
Cu      4.9145986670     0.0000000000    23.0270616010
Cu      6.1432483330     2.1280836470    23.0270229140
Cu      7.3718980000     4.2561672950    23.0270045470
Cu      1.8384000368     1.0692607672    25.1954620981
Cu      3.0495606130     3.1962028128    25.1757599152
Cu      4.2847247009     5.3479084719    25.1691078308
Cu      4.2911809381     1.0552788943    25.1780357928
Cu      5.5327076768     3.2221866291    25.0696629475
Cu      6.7674677214     5.3466073156    25.1664969707
Cu      6.7613309106     1.0564233064    25.1805396769
Cu      8.0006319235     3.1958468251    25.1779736860
Cu      9.2108569624     5.3264130665    25.1953786797
O       5.9331391188     1.9850925205    29.4420308753
O       5.4015931827     3.3197444096    27.1680965826
O       5.4328968919     3.3426073527    31.9136631011
C       5.4641365090     3.3459088406    29.5177156783
C       5.9324198632     4.0757646913    28.2674690036
C       5.9320199203     4.0442651967    30.7741488605
H       4.3654742972     3.2680232762    29.4891373472
H       7.0381117858     4.1000241498    28.1940696991
H       5.5431033533     5.1034094040    28.1665868987
H       5.5851936305     5.0994616842    30.7695045967
H       7.0421194216     4.0444846849    30.7678533967
H       6.9116473133     2.0446709313    29.4703480964
H       5.7818609970     2.4101836099    27.1930559543
H       5.7817607788     3.8133279650    32.6829517345
86
Step 4 | ATOMIC_POSITIONS (angstrom) | Cartesian Angstrom
Ni      0.0000000000     0.0000000000    10.0000000900
Ni      8.6005476670     2.1280836470    10.0000000900
Ni      9.8291973330     4.2561672950    10.0000000900
Ni      2.4572993330     0.0000000000    10.0000000900
Ni      3.6859490000     2.1280836470    10.0000000900
Ni      4.9145986670     4.2561672950    10.0000000900
Ni      4.9145986670     0.0000000000    10.0000000900
Ni      6.1432483330     2.1280836470    10.0000000900
Ni      7.3718980000     4.2561672950    10.0000000900
Ni      1.6381995390     1.4187224170    12.0063763950
Ni      2.8668492300     3.5468061070    12.0063763950
Ni      4.0954988850     5.6748897330    12.0063763950
Ni      4.0954988480     1.4187224170    12.0063763950
Ni      5.3241485390     3.5468061070    12.0063763950
Ni      6.5527981940     5.6748897330    12.0063763950
Ni      6.5527982300     1.4187224170    12.0063763950
Ni      7.7814479220     3.5468061070    12.0063763950
Ni      9.0100975760     5.6748897330    12.0063763950
Ni      2.0477494240     0.7093612090    14.1640614080
Ni      3.2763990780     2.8374448350    14.1640729510
Ni      4.5050487700     4.9655285250    14.1640397250
Ni      4.5050488060     0.7093612090    14.1640710440
Ni      5.7336984610     2.8374448350    14.1640423650
Ni      6.9623481520     4.9655285250    14.1640482520
Ni      6.9623481150     0.7093612090    14.1640292020
Ni      8.1909977700     2.8374448350    14.1640591990
Ni      9.4196474610     4.9655285250    14.1640542750
Ni      0.0000000000     0.0000000000    16.3281461600
Ni      8.6005476670     2.1280836470    16.3282017120
Ni      9.8291973330     4.2561672950    16.3281943160
Ni      2.4572993330     0.0000000000    16.3281936330
Ni      3.6859490000     2.1280836470    16.3282178260
Ni      4.9145986670     4.2561672950    16.3281642570
Ni      4.9145986670     0.0000000000    16.3282096040
Ni      6.1432483330     2.1280836470    16.3281694310
Ni      7.3718980000     4.2561672950    16.3281777140
Cu      1.6381995390     1.4187224170    18.5439570380
Cu      2.8668492300     3.5468061070    18.5439633170
Cu      4.0954988850     5.6748897330    18.5439058500
Cu      4.0954988480     1.4187224170    18.5439876690
Cu      5.3241485390     3.5468061070    18.5439225600
Cu      6.5527981940     5.6748897330    18.5439394360
Cu      6.5527982300     1.4187224170    18.5439267690
Cu      7.7814479220     3.5468061070    18.5439293780
Cu      9.0100975760     5.6748897330    18.5439799570
Cu      2.0477494240     0.7093612090    20.7902126970
Cu      3.2763990780     2.8374448350    20.7902464750
Cu      4.5050487700     4.9655285250    20.7901894570
Cu      4.5050488060     0.7093612090    20.7902646290
Cu      5.7336984610     2.8374448350    20.7902077890
Cu      6.9623481520     4.9655285250    20.7902013200
Cu      6.9623481150     0.7093612090    20.7901985810
Cu      8.1909977700     2.8374448350    20.7901995150
Cu      9.4196474610     4.9655285250    20.7902560580
Cu      0.0000000000     0.0000000000    23.0269984560
Cu      8.6005476670     2.1280836470    23.0270021480
Cu      9.8291973330     4.2561672950    23.0270571880
Cu      2.4572993330     0.0000000000    23.0270017780
Cu      3.6859490000     2.1280836470    23.0270601890
Cu      4.9145986670     4.2561672950    23.0270145410
Cu      4.9145986670     0.0000000000    23.0270616010
Cu      6.1432483330     2.1280836470    23.0270229140
Cu      7.3718980000     4.2561672950    23.0270045470
Cu      1.8383278559     1.0692623079    25.1995460342
Cu      3.0478906777     3.1953888612    25.1719196532
Cu      4.2830320902     5.3512865582    25.1630512245
Cu      4.2916652907     1.0553678216    25.1743593737
Cu      5.5352479707     3.2287443013    25.0564878042
Cu      6.7708161893     5.3506670189    25.1595996965
Cu      6.7609676913     1.0569337248    25.1780687778
Cu      8.0027872993     3.1956348936    25.1752224943
Cu      9.2108984887     5.3263323163    25.1994752400
O       5.9383391697     1.9887603842    29.4405246267
O       5.3874394526     3.3083925331    27.1771990195
O       5.4316617821     3.3475805810    31.9142242367
C       5.4707722404     3.3470441357    29.5256875507
C       5.9290746063     4.0735349793    28.2701113818
C       5.9337876373     4.0454665826    30.7791904687
H       4.3741942769     3.2697491977    29.4926656057
H       7.0398939788     4.1090008522    28.2001895588
H       5.5431660957     5.0999002638    28.1643728884
H       5.5885723040     5.0966691822    30.7632973886
H       7.0422099757     4.0514281950    30.7655676366
H       6.9094821745     2.0330951450    29.4741195002
H       5.7766929247     2.4015172000    27.2177945001
H       5.7777637724     3.8084341424    32.6952149819
86
Step 5 | ATOMIC_POSITIONS (angstrom) | Cartesian Angstrom
Ni      0.0000000000     0.0000000000    10.0000000900
Ni      8.6005476670     2.1280836470    10.0000000900
Ni      9.8291973330     4.2561672950    10.0000000900
Ni      2.4572993330     0.0000000000    10.0000000900
Ni      3.6859490000     2.1280836470    10.0000000900
Ni      4.9145986670     4.2561672950    10.0000000900
Ni      4.9145986670     0.0000000000    10.0000000900
Ni      6.1432483330     2.1280836470    10.0000000900
Ni      7.3718980000     4.2561672950    10.0000000900
Ni      1.6381995390     1.4187224170    12.0063763950
Ni      2.8668492300     3.5468061070    12.0063763950
Ni      4.0954988850     5.6748897330    12.0063763950
Ni      4.0954988480     1.4187224170    12.0063763950
Ni      5.3241485390     3.5468061070    12.0063763950
Ni      6.5527981940     5.6748897330    12.0063763950
Ni      6.5527982300     1.4187224170    12.0063763950
Ni      7.7814479220     3.5468061070    12.0063763950
Ni      9.0100975760     5.6748897330    12.0063763950
Ni      2.0477494240     0.7093612090    14.1640614080
Ni      3.2763990780     2.8374448350    14.1640729510
Ni      4.5050487700     4.9655285250    14.1640397250
Ni      4.5050488060     0.7093612090    14.1640710440
Ni      5.7336984610     2.8374448350    14.1640423650
Ni      6.9623481520     4.9655285250    14.1640482520
Ni      6.9623481150     0.7093612090    14.1640292020
Ni      8.1909977700     2.8374448350    14.1640591990
Ni      9.4196474610     4.9655285250    14.1640542750
Ni      0.0000000000     0.0000000000    16.3281461600
Ni      8.6005476670     2.1280836470    16.3282017120
Ni      9.8291973330     4.2561672950    16.3281943160
Ni      2.4572993330     0.0000000000    16.3281936330
Ni      3.6859490000     2.1280836470    16.3282178260
Ni      4.9145986670     4.2561672950    16.3281642570
Ni      4.9145986670     0.0000000000    16.3282096040
Ni      6.1432483330     2.1280836470    16.3281694310
Ni      7.3718980000     4.2561672950    16.3281777140
Cu      1.6381995390     1.4187224170    18.5439570380
Cu      2.8668492300     3.5468061070    18.5439633170
Cu      4.0954988850     5.6748897330    18.5439058500
Cu      4.0954988480     1.4187224170    18.5439876690
Cu      5.3241485390     3.5468061070    18.5439225600
Cu      6.5527981940     5.6748897330    18.5439394360
Cu      6.5527982300     1.4187224170    18.5439267690
Cu      7.7814479220     3.5468061070    18.5439293780
Cu      9.0100975760     5.6748897330    18.5439799570
Cu      2.0477494240     0.7093612090    20.7902126970
Cu      3.2763990780     2.8374448350    20.7902464750
Cu      4.5050487700     4.9655285250    20.7901894570
Cu      4.5050488060     0.7093612090    20.7902646290
Cu      5.7336984610     2.8374448350    20.7902077890
Cu      6.9623481520     4.9655285250    20.7902013200
Cu      6.9623481150     0.7093612090    20.7901985810
Cu      8.1909977700     2.8374448350    20.7901995150
Cu      9.4196474610     4.9655285250    20.7902560580
Cu      0.0000000000     0.0000000000    23.0269984560
Cu      8.6005476670     2.1280836470    23.0270021480
Cu      9.8291973330     4.2561672950    23.0270571880
Cu      2.4572993330     0.0000000000    23.0270017780
Cu      3.6859490000     2.1280836470    23.0270601890
Cu      4.9145986670     4.2561672950    23.0270145410
Cu      4.9145986670     0.0000000000    23.0270616010
Cu      6.1432483330     2.1280836470    23.0270229140
Cu      7.3718980000     4.2561672950    23.0270045470
Cu      1.8383744590     1.0694991594    25.2050899539
Cu      3.0485750064     3.1945793258    25.1673845749
Cu      4.2823978307     5.3532224698    25.1560477847
Cu      4.2936193821     1.0584752720    25.1696223834
Cu      5.5383886717     3.2350690392    25.0550315271
Cu      6.7740932637     5.3539811419    25.1517484083
Cu      6.7591538273     1.0603050598    25.1750100022
Cu      8.0032349195     3.1958801418    25.1722507873
Cu      9.2112659530     5.3263397070    25.2050850169
O       5.9397554525     1.9932318208    29.4418832451
O       5.3764997216     3.2945162150    27.1847282018
O       5.4321051409     3.3563472832    31.9199346071
C       5.4774376118     3.3498312086    29.5293443541
C       5.9272352894     4.0695347005    28.2681788156
C       5.9395276908     4.0471518189    30.7822777579
H       4.3828581172     3.2715016233    29.4997532154
H       7.0348471875     4.1190827904    28.2061282534
H       5.5424505493     5.0923118107    28.1629253751
H       5.5922520567     5.0929129548    30.7566436110
H       7.0428826574     4.0604159554    30.7671085315
H       6.9141687197     2.0172683656    29.4800573104
H       5.7664463455     2.3931542146    27.2512487382
H       5.7713393021     3.8005289934    32.7104078863
86
Step 6 | ATOMIC_POSITIONS (angstrom) | Cartesian Angstrom
Ni      0.0000000000     0.0000000000    10.0000000900
Ni      8.6005476670     2.1280836470    10.0000000900
Ni      9.8291973330     4.2561672950    10.0000000900
Ni      2.4572993330     0.0000000000    10.0000000900
Ni      3.6859490000     2.1280836470    10.0000000900
Ni      4.9145986670     4.2561672950    10.0000000900
Ni      4.9145986670     0.0000000000    10.0000000900
Ni      6.1432483330     2.1280836470    10.0000000900
Ni      7.3718980000     4.2561672950    10.0000000900
Ni      1.6381995390     1.4187224170    12.0063763950
Ni      2.8668492300     3.5468061070    12.0063763950
Ni      4.0954988850     5.6748897330    12.0063763950
Ni      4.0954988480     1.4187224170    12.0063763950
Ni      5.3241485390     3.5468061070    12.0063763950
Ni      6.5527981940     5.6748897330    12.0063763950
Ni      6.5527982300     1.4187224170    12.0063763950
Ni      7.7814479220     3.5468061070    12.0063763950
Ni      9.0100975760     5.6748897330    12.0063763950
Ni      2.0477494240     0.7093612090    14.1640614080
Ni      3.2763990780     2.8374448350    14.1640729510
Ni      4.5050487700     4.9655285250    14.1640397250
Ni      4.5050488060     0.7093612090    14.1640710440
Ni      5.7336984610     2.8374448350    14.1640423650
Ni      6.9623481520     4.9655285250    14.1640482520
Ni      6.9623481150     0.7093612090    14.1640292020
Ni      8.1909977700     2.8374448350    14.1640591990
Ni      9.4196474610     4.9655285250    14.1640542750
Ni      0.0000000000     0.0000000000    16.3281461600
Ni      8.6005476670     2.1280836470    16.3282017120
Ni      9.8291973330     4.2561672950    16.3281943160
Ni      2.4572993330     0.0000000000    16.3281936330
Ni      3.6859490000     2.1280836470    16.3282178260
Ni      4.9145986670     4.2561672950    16.3281642570
Ni      4.9145986670     0.0000000000    16.3282096040
Ni      6.1432483330     2.1280836470    16.3281694310
Ni      7.3718980000     4.2561672950    16.3281777140
Cu      1.6381995390     1.4187224170    18.5439570380
Cu      2.8668492300     3.5468061070    18.5439633170
Cu      4.0954988850     5.6748897330    18.5439058500
Cu      4.0954988480     1.4187224170    18.5439876690
Cu      5.3241485390     3.5468061070    18.5439225600
Cu      6.5527981940     5.6748897330    18.5439394360
Cu      6.5527982300     1.4187224170    18.5439267690
Cu      7.7814479220     3.5468061070    18.5439293780
Cu      9.0100975760     5.6748897330    18.5439799570
Cu      2.0477494240     0.7093612090    20.7902126970
Cu      3.2763990780     2.8374448350    20.7902464750
Cu      4.5050487700     4.9655285250    20.7901894570
Cu      4.5050488060     0.7093612090    20.7902646290
Cu      5.7336984610     2.8374448350    20.7902077890
Cu      6.9623481520     4.9655285250    20.7902013200
Cu      6.9623481150     0.7093612090    20.7901985810
Cu      8.1909977700     2.8374448350    20.7901995150
Cu      9.4196474610     4.9655285250    20.7902560580
Cu      0.0000000000     0.0000000000    23.0269984560
Cu      8.6005476670     2.1280836470    23.0270021480
Cu      9.8291973330     4.2561672950    23.0270571880
Cu      2.4572993330     0.0000000000    23.0270017780
Cu      3.6859490000     2.1280836470    23.0270601890
Cu      4.9145986670     4.2561672950    23.0270145410
Cu      4.9145986670     0.0000000000    23.0270616010
Cu      6.1432483330     2.1280836470    23.0270229140
Cu      7.3718980000     4.2561672950    23.0270045470
Cu      1.8385461898     1.0701521785    25.2124585241
Cu      3.0519318324     3.1941006876    25.1621139039
Cu      4.2830003982     5.3538620552    25.1481676134
Cu      4.2972738522     1.0650511789    25.1635874454
Cu      5.5422074460     3.2409272825    25.0685577030
Cu      6.7774256642     5.3567759236    25.1431203605
Cu      6.7561106172     1.0666137387    25.1712611079
Cu      8.0021199777     3.1968884023    25.1691774460
Cu      9.2122769929     5.3267398426    25.2126016297
O       5.9448278243     1.9947844027    29.4465261135
O       5.3699077105     3.2815450379    27.1912117322
O       5.4319571054     3.3654813959    31.9244577519
C       5.4847900830     3.3534222805    29.5310115095
C       5.9226612714     4.0634836534    28.2643460015
C       5.9467486840     4.0496535073    30.7859945675
H       4.3910567231     3.2737258082    29.5116067523
H       7.0263084616     4.1295543211    28.2095724703
H       5.5383277032     5.0826521924    28.1610610747
H       5.5958232225     5.0911988807    30.7493850264
H       7.0486847752     4.0718050485    30.7739812348
H       6.9193919777     1.9964278243    29.4890809663
H       5.7500614208     2.3788806970    27.2967529703
H       5.7648335422     3.7928882684    32.7329500092
86
Step 7 | ATOMIC_POSITIONS (angstrom) | Cartesian Angstrom
Ni      0.0000000000     0.0000000000    10.0000000900
Ni      8.6005476670     2.1280836470    10.0000000900
Ni      9.8291973330     4.2561672950    10.0000000900
Ni      2.4572993330     0.0000000000    10.0000000900
Ni      3.6859490000     2.1280836470    10.0000000900
Ni      4.9145986670     4.2561672950    10.0000000900
Ni      4.9145986670     0.0000000000    10.0000000900
Ni      6.1432483330     2.1280836470    10.0000000900
Ni      7.3718980000     4.2561672950    10.0000000900
Ni      1.6381995390     1.4187224170    12.0063763950
Ni      2.8668492300     3.5468061070    12.0063763950
Ni      4.0954988850     5.6748897330    12.0063763950
Ni      4.0954988480     1.4187224170    12.0063763950
Ni      5.3241485390     3.5468061070    12.0063763950
Ni      6.5527981940     5.6748897330    12.0063763950
Ni      6.5527982300     1.4187224170    12.0063763950
Ni      7.7814479220     3.5468061070    12.0063763950
Ni      9.0100975760     5.6748897330    12.0063763950
Ni      2.0477494240     0.7093612090    14.1640614080
Ni      3.2763990780     2.8374448350    14.1640729510
Ni      4.5050487700     4.9655285250    14.1640397250