86
Step 1 | ATOMIC_POSITIONS (angstrom) | Cartesian Angstrom
Ni      1.2286420027     0.7093562278     8.0127033495
Ni      0.0000022775     0.0000000000    10.0192033545
Ni      2.4637570809     1.4224515552    12.0711324136
Ni      1.2397802907     0.7157901456    14.1224527674
Ni      2.4572821841     2.8374249112     8.0127033495
Ni      1.2286424588     2.1280686834    10.0192033545
Ni      3.6926781159     3.5507357065    12.0705045449
Ni      2.4684725529     2.8434817294    14.1212345102
Ni      3.6859592251     4.9655574374     8.0127033495
Ni      2.4573194998     4.2562012095    10.0192033545
Ni      4.9217656993     5.6792526148    12.0709362359
Ni      3.6969571749     4.9715231220    14.1220203985
Ni      3.6859223655     0.7093562278     8.0127033495
Ni      2.4572826402     0.0000000000    10.0192033545
Ni      4.9213653839     1.4225857500    12.0705018304
Ni      3.6967638997     0.7160224207    14.1212311860
Ni      4.9145625469     2.8374249112     8.0127033495
Ni      3.6859228216     2.1280686834    10.0192033545
Ni      6.1503529497     3.5509085402    12.0699854915
Ni      4.9256539069     2.8438285306    14.1202327617
Ni      6.1432395878     4.9655574374     8.0127033495
Ni      4.9145998625     4.2562012095    10.0192033545
Ni      7.3794585706     5.6794809406    12.0703411417
Ni      6.1541912510     4.9717126524    14.1210383973
Ni      6.1432764474     0.7093562278     8.0127033495
Ni      4.9146367221     0.0000000000    10.0192033545
Ni      7.3792576901     1.4227490418    12.0709363656
Ni      6.1539445722     0.7158998925    14.1220190429
Ni      7.3719166287     2.8374249112     8.0127033495
Ni      6.1432769035     2.1280686834    10.0192033545
Ni      8.6083025545     3.5510600089    12.0703431006
Ni      7.3827250276     2.8438303041    14.1210406577
Ni      8.6005936697     4.9655574374     8.0127033495
Ni      7.3719539444     4.2562012095    10.0192033545
Ni      9.8373683369     5.6796094234    12.0707933550
Ni      8.6114301675     4.9718114503    14.1216528753
Cu      0.0001384262     0.0000998508    22.7033138466
Cu      1.2211196977     2.1281692644    22.7001105123
Cu      2.4544861324     4.2649710116    22.6987009555
Cu      2.4542326033    -0.0080467971    22.6990270472
Cu      0.0125988505     0.0072754476    16.2332161102
Cu      2.4696349891     1.4258444684    18.3916416570
Cu      1.2357013061     0.7134308093    20.5525806734
Cu      3.6934613435     2.1385536716    22.6246175080
Cu      1.2416711544     2.1361120827    16.2320324925
Cu      3.6976153977     3.5539780780    18.3918749325
Cu      2.4641651968     2.8415663609    20.5535203685
Cu      4.9186392942     4.2632193813    22.7013801144
Cu      4.9196785677    -0.0062679012    22.7007724579
Cu      2.4707625323     0.0072639821    16.2320277932
Cu      4.9266420746     1.4252400817    18.3918761583
Cu      3.6929504693     0.7132457861    20.5535179654
Cu      6.1503639767     2.1273748217    22.7035869827
Cu      3.6999344853     2.1361584753    16.2305426330
Cu      6.1546566898     3.5533933395    18.3924014903
Cu      4.9213317101     2.8413334155    20.5541973442
Cu      7.3730887455     4.2572810012    22.7074955326
Cu      2.4703615692     4.2639064921    16.2323564383
Cu      4.9258612022     5.6821553099    18.3929147418
Cu      3.6923908304     4.9692750903    20.5536695377
Cu      4.9284376454     4.2641058199    16.2311095738
Cu      7.3827816611     5.6818035922    18.3933612343
Cu      6.1495647783     4.9691763920    20.5547682837
Cu      4.9278325409     0.0074438059    16.2323521866
Cu      7.3838191099     1.4248449337    18.3929204237
Cu      6.1497113719     0.7130663237    20.5536678351
Cu      6.1570438883     2.1360992535    16.2311101997
Cu      8.6119749333     3.5527772255    18.3933657681
Cu      7.3782123231     2.8410932514    20.5547689064
Cu      7.3856113588     4.2640840866    16.2316791967
Cu      9.8400295452     5.6811466362    18.3940799063
Cu      8.6063487219     4.9688802328    20.5550099945
O       3.9890018764     0.7881037252    26.8343434371
O       3.4907270705     2.1469980105    24.5397959356
O       3.5008814803     2.1345357460    29.2821614127
C       3.5103254764     2.1370988192    26.8696938419
C       3.9784713516     2.8598439614    25.6222586433
C       3.9835226440     2.8318032960    28.1318947232
H       2.3961006480     2.0533371591    26.8661831347
H       5.0817358691     2.8716637833    25.5583511795
H       3.6054974954     3.8773860863    25.5559066670
H       3.6392216528     3.8718096674    28.1646133397
H       5.0920524293     2.8199875503    28.1648273547
H       4.9686861665     0.8462253342    26.8426506621
H       3.8459563907     1.2127511571    24.5354025470
H       3.8453255876     2.6113853642    30.0541658462
86
Step 2 | ATOMIC_POSITIONS (angstrom) | Cartesian Angstrom
Ni      1.2286420027     0.7093562278     8.0127033495
Ni      0.0000022775    -0.0000000000    10.0192033545
Ni      2.4637570809     1.4224515552    12.0711324136
Ni      1.2397802907     0.7157901456    14.1224527674
Ni      2.4572821841     2.8374249112     8.0127033495
Ni      1.2286424588     2.1280686834    10.0192033545
Ni      3.6926781159     3.5507357065    12.0705045449
Ni      2.4684725529     2.8434817294    14.1212345102
Ni      3.6859592251     4.9655574374     8.0127033495
Ni      2.4573194998     4.2562012095    10.0192033545
Ni      4.9217656993     5.6792526148    12.0709362359
Ni      3.6969571749     4.9715231220    14.1220203985
Ni      3.6859223655     0.7093562278     8.0127033495
Ni      2.4572826402    -0.0000000000    10.0192033545
Ni      4.9213653839     1.4225857500    12.0705018304
Ni      3.6967638997     0.7160224207    14.1212311860
Ni      4.9145625469     2.8374249112     8.0127033495
Ni      3.6859228216     2.1280686834    10.0192033545
Ni      6.1503529497     3.5509085402    12.0699854915
Ni      4.9256539069     2.8438285306    14.1202327617
Ni      6.1432395878     4.9655574374     8.0127033495
Ni      4.9145998625     4.2562012095    10.0192033545
Ni      7.3794585706     5.6794809406    12.0703411417
Ni      6.1541912510     4.9717126524    14.1210383973
Ni      6.1432764474     0.7093562278     8.0127033495
Ni      4.9146367221    -0.0000000000    10.0192033545
Ni      7.3792576901     1.4227490418    12.0709363656
Ni      6.1539445722     0.7158998925    14.1220190429
Ni      7.3719166287     2.8374249112     8.0127033495
Ni      6.1432769035     2.1280686834    10.0192033545
Ni      8.6083025545     3.5510600089    12.0703431006
Ni      7.3827250276     2.8438303041    14.1210406577
Ni      8.6005936697     4.9655574374     8.0127033495
Ni      7.3719539444     4.2562012095    10.0192033545
Ni      9.8373683369     5.6796094234    12.0707933550
Ni      8.6114301675     4.9718114503    14.1216528753
Cu     -0.0000266395    -0.0000112345    22.7029635938
Cu      1.2141249561     2.1276479884    22.6921510134
Cu      2.4508773028     4.2732196315    22.6889334872
Cu      2.4511967571    -0.0154661495    22.6893013016
Cu      0.0125988505     0.0072754476    16.2332161102
Cu      2.4696349891     1.4258444684    18.3916416570
Cu      1.2357013061     0.7134308093    20.5525806734
Cu      3.6983411662     2.1496960050    22.5652749258
Cu      1.2416711544     2.1361120827    16.2320324925
Cu      3.6976153977     3.5539780780    18.3918749325
Cu      2.4641651968     2.8415663609    20.5535203685
Cu      4.9230732153     4.2701521045    22.6920450965
Cu      4.9231672599    -0.0120471974    22.6941027477
Cu      2.4707625323     0.0072639821    16.2320277932
Cu      4.9266420746     1.4252400817    18.3918761583
Cu      3.6929504693     0.7132457861    20.5535179654
Cu      6.1569571970     2.1268705021    22.6974096404
Cu      3.6999344853     2.1361584753    16.2305426330
Cu      6.1546566898     3.5533933395    18.3924014903
Cu      4.9213317101     2.8413334155    20.5541973442
Cu      7.3728560189     4.2574922060    22.7066574954
Cu      2.4703615692     4.2639064921    16.2323564383
Cu      4.9258612022     5.6821553099    18.3929147418
Cu      3.6923908304     4.9692750903    20.5536695377
Cu      4.9284376454     4.2641058199    16.2311095738
Cu      7.3827816611     5.6818035922    18.3933612343
Cu      6.1495647783     4.9691763920    20.5547682837
Cu      4.9278325409     0.0074438059    16.2323521866
Cu      7.3838191099     1.4248449337    18.3929204237
Cu      6.1497113719     0.7130663237    20.5536678351
Cu      6.1570438883     2.1360992535    16.2311101997
Cu      8.6119749333     3.5527772255    18.3933657681
Cu      7.3782123231     2.8410932514    20.5547689064
Cu      7.3856113588     4.2640840866    16.2316791967
Cu      9.8400295452     5.6811466362    18.3940799063
Cu      8.6063487219     4.9688802328    20.5550099945
O       3.9950770895     0.7797990421    26.8275718119
O       3.4644141433     2.1136348410    24.5593256158
O       3.4938846578     2.1306342834    29.2860137469
C       3.5097081022     2.1381537391    26.8888129580
C       3.9952375718     2.8689839317    25.6550016516
C       3.9878726380     2.8301784620    28.1423422545
H       2.4091556189     2.0551251803    26.8659848046
H       5.0863933334     2.8792436488    25.5644186784
H       3.6015011476     3.8886267460    25.5517986023
H       3.6387805620     3.8820213194    28.1572839441
H       5.0941227429     2.8253678070    28.1559379481
H       4.9628609754     0.8410696180    26.8445306052
H       3.8412947543     1.2097235576    24.5547241596
H       3.8430028093     2.6086283595    30.0565993627
86
Step 3 | ATOMIC_POSITIONS (angstrom) | Cartesian Angstrom
Ni      1.2286420027     0.7093562278     8.0127033495
Ni      0.0000022775    -0.0000000000    10.0192033545
Ni      2.4637570809     1.4224515552    12.0711324136
Ni      1.2397802907     0.7157901456    14.1224527674
Ni      2.4572821841     2.8374249112     8.0127033495
Ni      1.2286424588     2.1280686834    10.0192033545
Ni      3.6926781159     3.5507357065    12.0705045449
Ni      2.4684725529     2.8434817294    14.1212345102
Ni      3.6859592251     4.9655574374     8.0127033495
Ni      2.4573194998     4.2562012095    10.0192033545
Ni      4.9217656993     5.6792526148    12.0709362359
Ni      3.6969571749     4.9715231220    14.1220203985
Ni      3.6859223655     0.7093562278     8.0127033495
Ni      2.4572826402    -0.0000000000    10.0192033545
Ni      4.9213653839     1.4225857500    12.0705018304
Ni      3.6967638997     0.7160224207    14.1212311860
Ni      4.9145625469     2.8374249112     8.0127033495
Ni      3.6859228216     2.1280686834    10.0192033545
Ni      6.1503529497     3.5509085402    12.0699854915
Ni      4.9256539069     2.8438285306    14.1202327617
Ni      6.1432395878     4.9655574374     8.0127033495
Ni      4.9145998625     4.2562012095    10.0192033545
Ni      7.3794585706     5.6794809406    12.0703411417
Ni      6.1541912510     4.9717126524    14.1210383973
Ni      6.1432764474     0.7093562278     8.0127033495
Ni      4.9146367221    -0.0000000000    10.0192033545
Ni      7.3792576901     1.4227490418    12.0709363656
Ni      6.1539445722     0.7158998925    14.1220190429
Ni      7.3719166287     2.8374249112     8.0127033495
Ni      6.1432769035     2.1280686834    10.0192033545
Ni      8.6083025545     3.5510600089    12.0703431006
Ni      7.3827250276     2.8438303041    14.1210406577
Ni      8.6005936697     4.9655574374     8.0127033495
Ni      7.3719539444     4.2562012095    10.0192033545
Ni      9.8373683369     5.6796094234    12.0707933550
Ni      8.6114301675     4.9718114503    14.1216528753
Cu     -0.0000716708     0.0001285280    22.7026971471
Cu      1.2099287723     2.1271680282    22.6839692274
Cu      2.4481494463     4.2796478995    22.6789201809
Cu      2.4496020671    -0.0201273579    22.6785457295
Cu      0.0125988505     0.0072754476    16.2332161102
Cu      2.4696349891     1.4258444684    18.3916416570
Cu      1.2357013061     0.7134308093    20.5525806734
Cu      3.7006535536     2.1582885996    22.5319749105
Cu      1.2416711544     2.1361120827    16.2320324925
Cu      3.6976153977     3.5539780780    18.3918749325
Cu      2.4641651968     2.8415663609    20.5535203685
Cu      4.9267595078     4.2757710939    22.6824773364
Cu      4.9253722543    -0.0154962394    22.6864736405
Cu      2.4707625323     0.0072639821    16.2320277932
Cu      4.9266420746     1.4252400817    18.3918761583
Cu      3.6929504693     0.7132457861    20.5535179654
Cu      6.1617225377     2.1263617719    22.6909893301
Cu      3.6999344853     2.1361584753    16.2305426330
Cu      6.1546566898     3.5533933395    18.3924014903
Cu      4.9213317101     2.8413334155    20.5541973442
Cu      7.3728032636     4.2576742404    22.7059010160
Cu      2.4703615692     4.2639064921    16.2323564383
Cu      4.9258612022     5.6821553099    18.3929147418
Cu      3.6923908304     4.9692750903    20.5536695377
Cu      4.9284376454     4.2641058199    16.2311095738
Cu      7.3827816611     5.6818035922    18.3933612343
Cu      6.1495647783     4.9691763920    20.5547682837
Cu      4.9278325409     0.0074438059    16.2323521866
Cu      7.3838191099     1.4248449337    18.3929204237
Cu      6.1497113719     0.7130663237    20.5536678351
Cu      6.1570438883     2.1360992535    16.2311101997
Cu      8.6119749333     3.5527772255    18.3933657681
Cu      7.3782123231     2.8410932514    20.5547689064
Cu      7.3856113588     4.2640840866    16.2316791967
Cu      9.8400295452     5.6811466362    18.3940799063
Cu      8.6063487219     4.9688802328    20.5550099945
O       3.9892365534     0.7781965779    26.8237806256
O       3.4423073698     2.1054543755    24.5703844114
O       3.4908580914     2.1318728141    29.2916642969
C       3.5185963659     2.1367108941    26.9055040077
C       3.9903332994     2.8671630469    25.6648189535
C       3.9876674531     2.8320367354    28.1546539664
H       2.4190413503     2.0571348790    26.8670875499
H       5.0962082563     2.8872572185    25.5711215320
H       3.6005404845     3.8934399292    25.5498566701
H       3.6407176759     3.8848089055    28.1507053944
H       5.0963855190     2.8308198907    28.1496168123
H       4.9678310760     0.8347852470    26.8471246547
H       3.8413968493     1.1962600767    24.5771424700
H       3.8391312191     2.6037771826    30.0607502256
86
Step 4 | ATOMIC_POSITIONS (angstrom) | Cartesian Angstrom
Ni      1.2286420027     0.7093562278     8.0127033495
Ni      0.0000022775    -0.0000000000    10.0192033545
Ni      2.4637570809     1.4224515552    12.0711324136
Ni      1.2397802907     0.7157901456    14.1224527674
Ni      2.4572821841     2.8374249112     8.0127033495
Ni      1.2286424588     2.1280686834    10.0192033545
Ni      3.6926781159     3.5507357065    12.0705045449
Ni      2.4684725529     2.8434817294    14.1212345102
Ni      3.6859592251     4.9655574374     8.0127033495
Ni      2.4573194998     4.2562012095    10.0192033545
Ni      4.9217656993     5.6792526148    12.0709362359
Ni      3.6969571749     4.9715231220    14.1220203985
Ni      3.6859223655     0.7093562278     8.0127033495
Ni      2.4572826402    -0.0000000000    10.0192033545
Ni      4.9213653839     1.4225857500    12.0705018304
Ni      3.6967638997     0.7160224207    14.1212311860
Ni      4.9145625469     2.8374249112     8.0127033495
Ni      3.6859228216     2.1280686834    10.0192033545
Ni      6.1503529497     3.5509085402    12.0699854915
Ni      4.9256539069     2.8438285306    14.1202327617
Ni      6.1432395878     4.9655574374     8.0127033495
Ni      4.9145998625     4.2562012095    10.0192033545
Ni      7.3794585706     5.6794809406    12.0703411417
Ni      6.1541912510     4.9717126524    14.1210383973
Ni      6.1432764474     0.7093562278     8.0127033495
Ni      4.9146367221    -0.0000000000    10.0192033545
Ni      7.3792576901     1.4227490418    12.0709363656
Ni      6.1539445722     0.7158998925    14.1220190429
Ni      7.3719166287     2.8374249112     8.0127033495
Ni      6.1432769035     2.1280686834    10.0192033545
Ni      8.6083025545     3.5510600089    12.0703431006
Ni      7.3827250276     2.8438303041    14.1210406577
Ni      8.6005936697     4.9655574374     8.0127033495
Ni      7.3719539444     4.2562012095    10.0192033545
Ni      9.8373683369     5.6796094234    12.0707933550
Ni      8.6114301675     4.9718114503    14.1216528753
Cu     -0.0000057849     0.0004129672    22.7027629727
Cu      1.2087439542     2.1269633704    22.6769023815
Cu      2.4467747527     4.2834291968    22.6703933545
Cu      2.4496555508    -0.0214548360    22.6689145273
Cu      0.0125988505     0.0072754476    16.2332161102
Cu      2.4696349891     1.4258444684    18.3916416570
Cu      1.2357013061     0.7134308093    20.5525806734
Cu      3.7013546219     2.1632723963    22.5200576880
Cu      1.2416711544     2.1361120827    16.2320324925
Cu      3.6976153977     3.5539780780    18.3918749325
Cu      2.4641651968     2.8415663609    20.5535203685
Cu      4.9290287164     4.2790534175    22.6744755857
Cu      4.9259349335    -0.0159321227    22.6797758339
Cu      2.4707625323     0.0072639821    16.2320277932
Cu      4.9266420746     1.4252400817    18.3918761583
Cu      3.6929504693     0.7132457861    20.5535179654
Cu      6.1638417950     2.1261078213    22.6856384208
Cu      3.6999344853     2.1361584753    16.2305426330
Cu      6.1546566898     3.5533933395    18.3924014903
Cu      4.9213317101     2.8413334155    20.5541973442
Cu      7.3729469290     4.2576640166    22.7055263421
Cu      2.4703615692     4.2639064921    16.2323564383
Cu      4.9258612022     5.6821553099    18.3929147418
Cu      3.6923908304     4.9692750903    20.5536695377
Cu      4.9284376454     4.2641058199    16.2311095738
Cu      7.3827816611     5.6818035922    18.3933612343
Cu      6.1495647783     4.9691763920    20.5547682837
Cu      4.9278325409     0.0074438059    16.2323521866
Cu      7.3838191099     1.4248449337    18.3929204237
Cu      6.1497113719     0.7130663237    20.5536678351
Cu      6.1570438883     2.1360992535    16.2311101997
Cu      8.6119749333     3.5527772255    18.3933657681
Cu      7.3782123231     2.8410932514    20.5547689064
Cu      7.3856113588     4.2640840866    16.2316791967
Cu      9.8400295452     5.6811466362    18.3940799063
Cu      8.6063487219     4.9688802328    20.5550099945
O       3.9947533726     0.7786863815    26.8242862515
O       3.4336030772     2.0965871304    24.5789459046
O       3.4886241122     2.1336261831    29.2956162299
C       3.5234974788     2.1364694531    26.9118605814
C       3.9862354645     2.8657444271    25.6613084255
C       3.9895484308     2.8339007747    28.1627237329
H       2.4262392877     2.0591816887    26.8707108481
H       5.0964504377     2.8932929586    25.5767882177
H       3.6012166181     3.8915164437    25.5505109138
H       3.6427951729     3.8846472924    28.1462705985
H       5.0976000078     2.8359425677    28.1475980205
H       4.9646434762     0.8267748624    26.8495756609
H       3.8364659924     1.1925572984    24.5973610118
H       3.8365235769     2.6006005264    30.0703379232
86
Step 5 | ATOMIC_POSITIONS (angstrom) | Cartesian Angstrom
Ni      1.2286420027     0.7093562278     8.0127033495
Ni      0.0000022775     0.0000000000    10.0192033545
Ni      2.4637570809     1.4224515552    12.0711324136
Ni      1.2397802907     0.7157901456    14.1224527674
Ni      2.4572821841     2.8374249112     8.0127033495
Ni      1.2286424588     2.1280686834    10.0192033545
Ni      3.6926781159     3.5507357065    12.0705045449
Ni      2.4684725529     2.8434817294    14.1212345102
Ni      3.6859592251     4.9655574374     8.0127033495
Ni      2.4573194998     4.2562012095    10.0192033545
Ni      4.9217656993     5.6792526148    12.0709362359
Ni      3.6969571749     4.9715231220    14.1220203985
Ni      3.6859223655     0.7093562278     8.0127033495
Ni      2.4572826402     0.0000000000    10.0192033545
Ni      4.9213653839     1.4225857500    12.0705018304
Ni      3.6967638997     0.7160224207    14.1212311860
Ni      4.9145625469     2.8374249112     8.0127033495
Ni      3.6859228216     2.1280686834    10.0192033545
Ni      6.1503529497     3.5509085402    12.0699854915
Ni      4.9256539069     2.8438285306    14.1202327617
Ni      6.1432395878     4.9655574374     8.0127033495
Ni      4.9145998625     4.2562012095    10.0192033545
Ni      7.3794585706     5.6794809406    12.0703411417
Ni      6.1541912510     4.9717126524    14.1210383973
Ni      6.1432764474     0.7093562278     8.0127033495
Ni      4.9146367221     0.0000000000    10.0192033545
Ni      7.3792576901     1.4227490418    12.0709363656
Ni      6.1539445722     0.7158998925    14.1220190429
Ni      7.3719166287     2.8374249112     8.0127033495
Ni      6.1432769035     2.1280686834    10.0192033545
Ni      8.6083025545     3.5510600089    12.0703431006
Ni      7.3827250276     2.8438303041    14.1210406577
Ni      8.6005936697     4.9655574374     8.0127033495
Ni      7.3719539444     4.2562012095    10.0192033545
Ni      9.8373683369     5.6796094234    12.0707933550
Ni      8.6114301675     4.9718114503    14.1216528753
Cu      0.0003171628     0.0013020627    22.7031086358
Cu      1.2088696375     2.1268650001    22.6622132358
Cu      2.4450689972     4.2893058299    22.6528467884
Cu      2.4512637058    -0.0212069258    22.6485210836
Cu      0.0125988505     0.0072754476    16.2332161102
Cu      2.4696349891     1.4258444684    18.3916416570
Cu      1.2357013061     0.7134308093    20.5525806734
Cu      3.7014215287     2.1708937186    22.5127103236
Cu      1.2416711544     2.1361120827    16.2320324925
Cu      3.6976153977     3.5539780780    18.3918749325
Cu      2.4641651968     2.8415663609    20.5535203685
Cu      4.9326385931     4.2840783923    22.6581394961
Cu      4.9257273064    -0.0140679771    22.6655542862
Cu      2.4707625323     0.0072639821    16.2320277932
Cu      4.9266420746     1.4252400817    18.3918761583
Cu      3.6929504693     0.7132457861    20.5535179654
Cu      6.1660669798     2.1259077512    22.6746461821
Cu      3.6999344853     2.1361584753    16.2305426330
Cu      6.1546566898     3.5533933395    18.3924014903
Cu      4.9213317101     2.8413334155    20.5541973442
Cu      7.3735209680     4.2575558155    22.7049405179
Cu      2.4703615692     4.2639064921    16.2323564383
Cu      4.9258612022     5.6821553099    18.3929147418
Cu      3.6923908304     4.9692750903    20.5536695377
Cu      4.9284376454     4.2641058199    16.2311095738
Cu      7.3827816611     5.6818035922    18.3933612343
Cu      6.1495647783     4.9691763920    20.5547682837
Cu      4.9278325409     0.0074438059    16.2323521866
Cu      7.3838191099     1.4248449337    18.3929204237
Cu      6.1497113719     0.7130663237    20.5536678351
Cu      6.1570438883     2.1360992535    16.2311101997
Cu      8.6119749333     3.5527772255    18.3933657681
Cu      7.3782123231     2.8410932514    20.5547689064
Cu      7.3856113588     4.2640840866    16.2316791967
Cu      9.8400295452     5.6811466362    18.3940799063
Cu      8.6063487219     4.9688802328    20.5550099945
O       3.9951754124     0.7801110252    26.8283036150
O       3.4212023122     2.0816610096    24.5903992091
O       3.4864526805     2.1405174013    29.3078687962
C       3.5344110959     2.1386477322    26.9178413800
C       3.9820856642     2.8601479585    25.6550877489
C       3.9951326260     2.8357814250    28.1721340318
H       2.4386685207     2.0625121535    26.8812639837
H       5.0890123000     2.9046324098    25.5865656316
H       3.6011264705     3.8856216694    25.5521437855
H       3.6466649822     3.8843083620    28.1391278924
H       5.1006596643     2.8469806709    28.1481630547
H       4.9701441398     0.8095085499    26.8557726336
H       3.8237305319     1.1847700754    24.6411926340
H       3.8298813722     2.5924172321    30.0918279308
86
Step 6 | ATOMIC_POSITIONS (angstrom) | Cartesian Angstrom
Ni      1.2286420027     0.7093562278     8.0127033495
Ni      0.0000022775     0.0000000000    10.0192033545
Ni      2.4637570809     1.4224515552    12.0711324136
Ni      1.2397802907     0.7157901456    14.1224527674
Ni      2.4572821841     2.8374249112     8.0127033495
Ni      1.2286424588     2.1280686834    10.0192033545
Ni      3.6926781159     3.5507357065    12.0705045449
Ni      2.4684725529     2.8434817294    14.1212345102
Ni      3.6859592251     4.9655574374     8.0127033495
Ni      2.4573194998     4.2562012095    10.0192033545
Ni      4.9217656993     5.6792526148    12.0709362359
Ni      3.6969571749     4.9715231220    14.1220203985
Ni      3.6859223655     0.7093562278     8.0127033495
Ni      2.4572826402     0.0000000000    10.0192033545
Ni      4.9213653839     1.4225857500    12.0705018304
Ni      3.6967638997     0.7160224207    14.1212311860
Ni      4.9145625469     2.8374249112     8.0127033495
Ni      3.6859228216     2.1280686834    10.0192033545
Ni      6.1503529497     3.5509085402    12.0699854915
Ni      4.9256539069     2.8438285306    14.1202327617
Ni      6.1432395878     4.9655574374     8.0127033495
Ni      4.9145998625     4.2562012095    10.0192033545
Ni      7.3794585706     5.6794809406    12.0703411417
Ni      6.1541912510     4.9717126524    14.1210383973
Ni      6.1432764474     0.7093562278     8.0127033495
Ni      4.9146367221     0.0000000000    10.0192033545
Ni      7.3792576901     1.4227490418    12.0709363656
Ni      6.1539445722     0.7158998925    14.1220190429
Ni      7.3719166287     2.8374249112     8.0127033495
Ni      6.1432769035     2.1280686834    10.0192033545
Ni      8.6083025545     3.5510600089    12.0703431006
Ni      7.3827250276     2.8438303041    14.1210406577
Ni      8.6005936697     4.9655574374     8.0127033495
Ni      7.3719539444     4.2562012095    10.0192033545
Ni      9.8373683369     5.6796094234    12.0707933550
Ni      8.6114301675     4.9718114503    14.1216528753
Cu      0.0009329905     0.0026455718    22.7037383395
Cu      1.2116663262     2.1273117364    22.6483195284
Cu      2.4448222309     4.2927487534    22.6367078097
Cu      2.4544079525    -0.0175180794    22.6289732362
Cu      0.0125988505     0.0072754476    16.2332161102
Cu      2.4696349891     1.4258444684    18.3916416570
Cu      1.2357013061     0.7134308093    20.5525806734
Cu      3.7001745501     2.1749152514    22.5249845590
Cu      1.2416711544     2.1361120827    16.2320324925
Cu      3.6976153977     3.5539780780    18.3918749325
Cu      2.4641651968     2.8415663609    20.5535203685
Cu      4.9347055076     4.2868153187    22.6432674802
Cu      4.9240872212    -0.0091392833    22.6518753754
Cu      2.4707625323     0.0072639821    16.2320277932
Cu      4.9266420746     1.4252400817    18.3918761583
Cu      3.6929504693     0.7132457861    20.5535179654
Cu      6.1657991843     2.1262874447    22.6644516379
Cu      3.6999344853     2.1361584753    16.2305426330
Cu      6.1546566898     3.5533933395    18.3924014903
Cu      4.9213317101     2.8413334155    20.5541973442
Cu      7.3744772460     4.2575055691    22.7046416787
Cu      2.4703615692     4.2639064921    16.2323564383
Cu      4.9258612022     5.6821553099    18.3929147418
Cu      3.6923908304     4.9692750903    20.5536695377
Cu      4.9284376454     4.2641058199    16.2311095738
Cu      7.3827816611     5.6818035922    18.3933612343
Cu      6.1495647783     4.9691763920    20.5547682837
Cu      4.9278325409     0.0074438059    16.2323521866
Cu      7.3838191099     1.4248449337    18.3929204237
Cu      6.1497113719     0.7130663237    20.5536678351
Cu      6.1570438883     2.1360992535    16.2311101997
Cu      8.6119749333     3.5527772255    18.3933657681
Cu      7.3782123231     2.8410932514    20.5547689064
Cu      7.3856113588     4.2640840866    16.2316791967
Cu      9.8400295452     5.6811466362    18.3940799063
Cu      8.6063487219     4.9688802328    20.5550099945
O       4.0018024848     0.7798278135    26.8353279641
O       3.4158504199     2.0743430943    24.5955539316
O       3.4857881076     2.1483597564    29.3163002960
C       3.5425640351     2.1417512324    26.9201391627
C       3.9760471746     2.8560120364    25.6531995558
C       4.0007281062     2.8383699716    28.1770301751
H       2.4480443487     2.0655313566    26.8948712412
H       5.0797974035     2.9133794106    25.5916081705
H       3.5985295812     3.8774523464    25.5534085961
H       3.6502780991     3.8835043725    28.1346754277
H       5.1061444412     2.8577721707    28.1549746082
H       4.9725198038     0.7910151595    26.8630127856
H       3.8087208810     1.1715653388    24.6864552866
H       3.8243485822     2.5858823541    30.1169951750
86
Step 7 | ATOMIC_POSITIONS (angstrom) | Cartesian Angstrom
Ni      1.2286420027     0.7093562278     8.0127033495
Ni      0.0000022775     0.0000000000    10.0192033545
Ni      2.4637570809     1.4224515552    12.0711324136
Ni      1.2397802907     0.7157901456    14.1224527674
Ni      2.4572821841     2.8374249112     8.0127033495
Ni      1.2286424588     2.1280686834    10.0192033545
Ni      3.6926781159     3.5507357065    12.0705045449
Ni      2.4684725529     2.8434817294    14.1212345102
Ni      3.6859592251     4.9655574374     8.0127033495
Ni      2.4573194998     4.2562012095    10.0192033545
Ni      4.9217656993     5.6792526148    12.0709362359
Ni      3.6969571749     4.9715231220    14.1220203985
Ni      3.6859223655     0.7093562278     8.0127033495
Ni      2.4572826402     0.0000000000    10.0192033545
Ni      4.9213653839     1.4225857500    12.0705018304
Ni      3.6967638997     0.7160224207    14.1212311860
Ni      4.9145625469     2.8374249112     8.0127033495
Ni      3.6859228216     2.1280686834    10.0192033545
Ni      6.1503529497     3.5509085402    12.0699854915
Ni      4.9256539069     2.8438285306    14.1202327617
Ni      6.1432395878     4.9655574374     8.0127033495