86
Step 1 | ATOMIC_POSITIONS (angstrom) | Cartesian Angstrom
Ni      1.2286390390     0.7093535490     9.0128649340
Ni      2.4572760100     2.8374169220     9.0128649340
Ni      3.6859498400     4.9655441370     9.0128649340
Ni      3.6859144660     0.7093535490     9.0128649340
Ni      4.9145514370     2.8374169220     9.0128649340
Ni      6.1432252670     4.9655441370     9.0128649340
Ni      6.1432636120     0.7093535490     9.0128649340
Ni      7.3719005830     2.8374169220     9.0128649340
Ni      8.6005744130     4.9655441370     9.0128649340
Ni      0.0000019230    -0.0000011100    11.0189462060
Ni      1.2286511800     2.1280835430    11.0189462060
Ni      2.4573004370     4.2561681970    11.0189462060
Ni      2.4573019230    -0.0000011100    11.0189462060
Ni      3.6859511800     2.1280835430    11.0189462060
Ni      4.9146004370     4.2561681970    11.0189462060
Ni      4.9146019230    -0.0000011100    11.0189462060
Ni      6.1432511800     2.1280835430    11.0189462060
Ni      7.3719004370     4.2561681970    11.0189462060
Ni      6.1438734720     3.5471661970    12.9811357840
Ni      7.3724754910     5.6753002550    12.9812984850
Ni      8.6011926510     3.5471005460    12.9812984900
Ni      4.9154250810     1.4190473550    12.9815171700
Ni      3.6866443280     3.5473571860    12.9815172510
Ni      9.8297970970     5.6752360910    12.9815758290
Ni      7.3727178060     1.4189936100    12.9817330850
Ni      4.9152433530     5.6754625070    12.9817330970
Ni      2.4581886360     1.4192341220    12.9820006980
Ni      1.2300181510     0.7101493710    14.9469571230
Ni      3.6871547190     0.7105440160    14.9472125230
Ni      2.4589274570     2.8378950180    14.9472126230
Ni      3.6873641450     4.9659340110    14.9472361150
Ni      6.1443087910     0.7103827880    14.9472361760
Ni      4.9159520710     2.8382250840    14.9474526980
Ni      6.1444225000     4.9663508800    14.9474869000
Ni      7.3731982530     2.8380497740    14.9474870240
Ni      8.6015404070     4.9661014020    14.9475110630
Cu      0.0002371770     0.0001345310    17.0095566530
Cu      2.4575439700     0.0002605240    17.0097303500
Cu      1.2289989080     2.1281620840    17.0097304640
Cu      2.4574811020     4.2563400380    17.0097910800
Cu      4.9148412440     0.0000691580    17.0097911200
Cu      3.6862398640     2.1282500140    17.0099390000
Cu      4.9147998590     4.2563702540    17.0100125200
Cu      6.1435260460     2.1281549480    17.0100126890
Cu      7.3720625000     4.2562615990    17.0100868050
Cu      2.4590516375     1.4200407780    19.0940952145
Cu      4.9159799982     5.6757475584    19.0952439787
Cu      7.3733512075     1.4196068156    19.0951497336
Cu      3.6874644282     3.5471120651    19.0943148790
Cu      4.9159045249     1.4200028704    19.0945105630
Cu      7.3732714687     5.6754038942    19.0955758510
Cu      8.6018251663     3.5474986566    19.0950612660
Cu      9.8305426950     5.6756770429    19.0955554068
Cu      6.1447156365     3.5475342464    19.0952307525
Cu      3.6882393839     4.9660968101    21.1872237828
Cu      6.1451175923     0.7110828374    21.1869209149
Cu      1.2309688805     0.7108274213    21.1873125156
Cu      2.4596641171     2.8382904033    21.1880174669
Cu      3.6878235021     0.7115881031    21.1881660133
Cu      8.6030017693     4.9665485852    21.1867853014
Cu      7.3738748115     2.8390570615    21.1873809291
Cu      6.1454388265     4.9661899256    21.1869470538
Cu      4.9158862315     2.8382289819    21.1876270780
Cu      3.6884005183     2.1356349362    23.2292614220
Cu      1.2251447469     2.1286504605    23.2329076936
Cu      2.4566983467    -0.0038496901    23.2335001547
Cu      4.9185412564     4.2619885964    23.2318912694
Cu      6.1494043224     2.1278813638    23.2328353573
Cu      0.0008906550     0.0006227625    23.2357975915
Cu      2.4555348845     4.2624425294    23.2324321456
Cu      4.9188813951    -0.0044527407    23.2333502941
Cu      7.3726836940     4.2570025109    23.2371929705
O       3.6547802133     2.1935915880    25.2725732850
H       4.0039775897     1.2718579222    25.3354650198
H       5.2409400697     2.9228526908    26.3677933985
H       3.7650315968     3.9275252837    26.3645695858
C       4.1374087573     2.9091473095    26.4217862927
O       4.1478757361     0.8386794689    27.6425856008
H       5.1281037340     0.8973099299    27.6505671619
C       3.6702367813     2.1882153427    27.6776293578
H       2.5548497578     2.1040791342    27.6741249557
C       4.1422587451     2.8826208577    28.9399006336
H       3.7983331879     3.9224460501    28.9726642183
H       5.2515524432     2.8706074111    28.9727216225
O       3.6601489374     2.1855203962    30.0901977502
H       4.0043202472     2.6620296024    30.8618899088
86
Step 2 | ATOMIC_POSITIONS (angstrom) | Cartesian Angstrom
Ni      1.2286390390     0.7093535490     9.0128649340
Ni      2.4572760100     2.8374169220     9.0128649340
Ni      3.6859498400     4.9655441370     9.0128649340
Ni      3.6859144660     0.7093535490     9.0128649340
Ni      4.9145514370     2.8374169220     9.0128649340
Ni      6.1432252670     4.9655441370     9.0128649340
Ni      6.1432636120     0.7093535490     9.0128649340
Ni      7.3719005830     2.8374169220     9.0128649340
Ni      8.6005744130     4.9655441370     9.0128649340
Ni      0.0000019230    -0.0000011100    11.0189462060
Ni      1.2286511800     2.1280835430    11.0189462060
Ni      2.4573004370     4.2561681970    11.0189462060
Ni      2.4573019230    -0.0000011100    11.0189462060
Ni      3.6859511800     2.1280835430    11.0189462060
Ni      4.9146004370     4.2561681970    11.0189462060
Ni      4.9146019230    -0.0000011100    11.0189462060
Ni      6.1432511800     2.1280835430    11.0189462060
Ni      7.3719004370     4.2561681970    11.0189462060
Ni      6.1438734720     3.5471661970    12.9811357840
Ni      7.3724754910     5.6753002550    12.9812984850
Ni      8.6011926510     3.5471005460    12.9812984900
Ni      4.9154250810     1.4190473550    12.9815171700
Ni      3.6866443280     3.5473571860    12.9815172510
Ni      9.8297970970     5.6752360910    12.9815758290
Ni      7.3727178060     1.4189936100    12.9817330850
Ni      4.9152433530     5.6754625070    12.9817330970
Ni      2.4581886360     1.4192341220    12.9820006980
Ni      1.2300181510     0.7101493710    14.9469571230
Ni      3.6871547190     0.7105440160    14.9472125230
Ni      2.4589274570     2.8378950180    14.9472126230
Ni      3.6873641450     4.9659340110    14.9472361150
Ni      6.1443087910     0.7103827880    14.9472361760
Ni      4.9159520710     2.8382250840    14.9474526980
Ni      6.1444225000     4.9663508800    14.9474869000
Ni      7.3731982530     2.8380497740    14.9474870240
Ni      8.6015404070     4.9661014020    14.9475110630
Cu      0.0002371770     0.0001345310    17.0095566530
Cu      2.4575439700     0.0002605240    17.0097303500
Cu      1.2289989080     2.1281620840    17.0097304640
Cu      2.4574811020     4.2563400380    17.0097910800
Cu      4.9148412440     0.0000691580    17.0097911200
Cu      3.6862398640     2.1282500140    17.0099390000
Cu      4.9147998590     4.2563702540    17.0100125200
Cu      6.1435260460     2.1281549480    17.0100126890
Cu      7.3720625000     4.2562615990    17.0100868050
Cu      2.4591918370     1.4205732963    19.0935673371
Cu      4.9157863131     5.6759745171    19.0961723019
Cu      7.3734839372     1.4195158968    19.0959107224
Cu      3.6873475542     3.5462234389    19.0936069008
Cu      4.9154903803     1.4205253645    19.0941208561
Cu      7.3732377308     5.6752810032    19.0966206622
Cu      8.6018994450     3.5471689148    19.0952382824
Cu      9.8307802942     5.6758260986    19.0965301061
Cu      6.1446688900     3.5473195715    19.0954485092
Cu      3.6880926895     4.9652904994    21.1862531350
Cu      6.1446466238     0.7113952128    21.1855589054
Cu      1.2313687402     0.7112073748    21.1866925611
Cu      2.4602407676     2.8380751624    21.1884025739
Cu      3.6878886400     0.7132641928    21.1890802422
Cu      8.6026741328     4.9658157577    21.1848807948
Cu      7.3738937220     2.8395641822    21.1864121374
Cu      6.1456346867     4.9656456861    21.1851850626
Cu      4.9154583792     2.8380048605    21.1869921894
Cu      3.6901580614     2.1464374412    23.2227187734
Cu      1.2176775811     2.1281979808    23.2307563376
Cu      2.4538804210    -0.0106092122    23.2323211508
Cu      4.9231608938     4.2700981273    23.2280501741
Cu      6.1569514710     2.1266767061    23.2306042663
Cu     -0.0000053643     0.0002479282    23.2382481459
Cu      2.4511124328     4.2711018858    23.2291104698
Cu      4.9232849420    -0.0115525483    23.2316306593
Cu      7.3727340002     4.2575884429    23.2418890012
O       3.6396109165     2.1786198322    25.2807934169
H       4.0003841323     1.2620498123    25.3445422569
H       5.2459336353     2.9298757755    26.3739304168
H       3.7610120320     3.9366201478    26.3573836717
C       4.1428721377     2.9139325277    26.4257513647
O       4.1511588611     0.8256617583    27.6353499824
H       5.1233296737     0.8924030479    27.6527730072
C       3.6745722163     2.1848109220    27.6855134594
H       2.5661264446     2.1054896729    27.6746041472
C       4.1448412185     2.8847329114    28.9514074633
H       3.7980262586     3.9351093871    28.9638991272
H       5.2566444566     2.8765251146    28.9611615721
O       3.6508006493     2.1790917282    30.0950264632
H       4.0016524926     2.6589227240    30.8640746437
86
Step 3 | ATOMIC_POSITIONS (angstrom) | Cartesian Angstrom
Ni      1.2286390390     0.7093535490     9.0128649340
Ni      2.4572760100     2.8374169220     9.0128649340
Ni      3.6859498400     4.9655441370     9.0128649340
Ni      3.6859144660     0.7093535490     9.0128649340
Ni      4.9145514370     2.8374169220     9.0128649340
Ni      6.1432252670     4.9655441370     9.0128649340
Ni      6.1432636120     0.7093535490     9.0128649340
Ni      7.3719005830     2.8374169220     9.0128649340
Ni      8.6005744130     4.9655441370     9.0128649340
Ni      0.0000019230    -0.0000011100    11.0189462060
Ni      1.2286511800     2.1280835430    11.0189462060
Ni      2.4573004370     4.2561681970    11.0189462060
Ni      2.4573019230    -0.0000011100    11.0189462060
Ni      3.6859511800     2.1280835430    11.0189462060
Ni      4.9146004370     4.2561681970    11.0189462060
Ni      4.9146019230    -0.0000011100    11.0189462060
Ni      6.1432511800     2.1280835430    11.0189462060
Ni      7.3719004370     4.2561681970    11.0189462060
Ni      6.1438734720     3.5471661970    12.9811357840
Ni      7.3724754910     5.6753002550    12.9812984850
Ni      8.6011926510     3.5471005460    12.9812984900
Ni      4.9154250810     1.4190473550    12.9815171700
Ni      3.6866443280     3.5473571860    12.9815172510
Ni      9.8297970970     5.6752360910    12.9815758290
Ni      7.3727178060     1.4189936100    12.9817330850
Ni      4.9152433530     5.6754625070    12.9817330970
Ni      2.4581886360     1.4192341220    12.9820006980
Ni      1.2300181510     0.7101493710    14.9469571230
Ni      3.6871547190     0.7105440160    14.9472125230
Ni      2.4589274570     2.8378950180    14.9472126230
Ni      3.6873641450     4.9659340110    14.9472361150
Ni      6.1443087910     0.7103827880    14.9472361760
Ni      4.9159520710     2.8382250840    14.9474526980
Ni      6.1444225000     4.9663508800    14.9474869000
Ni      7.3731982530     2.8380497740    14.9474870240
Ni      8.6015404070     4.9661014020    14.9475110630
Cu      0.0002371770     0.0001345310    17.0095566530
Cu      2.4575439700     0.0002605240    17.0097303500
Cu      1.2289989080     2.1281620840    17.0097304640
Cu      2.4574811020     4.2563400380    17.0097910800
Cu      4.9148412440     0.0000691580    17.0097911200
Cu      3.6862398640     2.1282500140    17.0099390000
Cu      4.9147998590     4.2563702540    17.0100125200
Cu      6.1435260460     2.1281549480    17.0100126890
Cu      7.3720625000     4.2562615990    17.0100868050
Cu      2.4593339234     1.4209605774    19.0929399993
Cu      4.9156200059     5.6761578713    19.0969697743
Cu      7.3735961666     1.4194507378    19.0965277614
Cu      3.6872006558     3.5454897946    19.0926997343
Cu      4.9150705341     1.4208827252    19.0935506923
Cu      7.3732039225     5.6753159209    19.0975521109
Cu      8.6020044115     3.5468498728    19.0952611154
Cu      9.8309723955     5.6759364734    19.0973298283
Cu      6.1446063174     3.5471173676    19.0954931732
Cu      3.6879412284     4.9647251342    21.1848684633
Cu      6.1442204386     0.7115667678    21.1840280158
Cu      1.2317590290     0.7114420100    21.1861304727
Cu      2.4603611749     2.8380308801    21.1885848950
Cu      3.6879340842     0.7146404883    21.1904045495
Cu      8.6018651496     4.9650858598    21.1823109592
Cu      7.3739301368     2.8403755196    21.1849791481
Cu      6.1462834749     4.9651883311    21.1827997179
Cu      4.9155156783     2.8379792014    21.1860246624
Cu      3.6921369362     2.1571496880    23.2187875338
Cu      1.2117802571     2.1277841800    23.2283207849
Cu      2.4522847234    -0.0152890864    23.2307507513
Cu      4.9275446981     4.2776380072    23.2239118053
Cu      6.1630671301     2.1256033176    23.2281857532
Cu     -0.0006729659     0.0000019594    23.2409870228
Cu      2.4471119950     4.2790174851    23.2255130308
Cu      4.9264326555    -0.0165136570    23.2295559609
Cu      7.3727797224     4.2580376559    23.2472674624
O       3.6280594546     2.1647172547    25.2961839271
H       3.9944992170     1.2528062057    25.3564424750
H       5.2500757772     2.9384473092    26.3784946485
H       3.7578918769     3.9417956997    26.3493889904
C       4.1433200619     2.9129983722    26.4270689685
O       4.1483098756     0.8215179853    27.6287711798
H       5.1256193672     0.8838473075    27.6556324178
C       3.6777144487     2.1816626251    27.6900926666
H       2.5793576083     2.1065871824    27.6760880390
C       4.1472476361     2.8855310580    28.9572399445
H       3.7996585655     3.9411072268    28.9555250970
H       5.2586762216     2.8836395884    28.9525146622
O       3.6464009197     2.1806815747    30.0988319267
H       3.9964443764     2.6524147747    30.8681007704
86
Step 4 | ATOMIC_POSITIONS (angstrom) | Cartesian Angstrom
Ni      1.2286390390     0.7093535490     9.0128649340
Ni      2.4572760100     2.8374169220     9.0128649340
Ni      3.6859498400     4.9655441370     9.0128649340
Ni      3.6859144660     0.7093535490     9.0128649340
Ni      4.9145514370     2.8374169220     9.0128649340
Ni      6.1432252670     4.9655441370     9.0128649340
Ni      6.1432636120     0.7093535490     9.0128649340
Ni      7.3719005830     2.8374169220     9.0128649340
Ni      8.6005744130     4.9655441370     9.0128649340
Ni      0.0000019230    -0.0000011100    11.0189462060
Ni      1.2286511800     2.1280835430    11.0189462060
Ni      2.4573004370     4.2561681970    11.0189462060
Ni      2.4573019230    -0.0000011100    11.0189462060
Ni      3.6859511800     2.1280835430    11.0189462060
Ni      4.9146004370     4.2561681970    11.0189462060
Ni      4.9146019230    -0.0000011100    11.0189462060
Ni      6.1432511800     2.1280835430    11.0189462060
Ni      7.3719004370     4.2561681970    11.0189462060
Ni      6.1438734720     3.5471661970    12.9811357840
Ni      7.3724754910     5.6753002550    12.9812984850
Ni      8.6011926510     3.5471005460    12.9812984900
Ni      4.9154250810     1.4190473550    12.9815171700
Ni      3.6866443280     3.5473571860    12.9815172510
Ni      9.8297970970     5.6752360910    12.9815758290
Ni      7.3727178060     1.4189936100    12.9817330850
Ni      4.9152433530     5.6754625070    12.9817330970
Ni      2.4581886360     1.4192341220    12.9820006980
Ni      1.2300181510     0.7101493710    14.9469571230
Ni      3.6871547190     0.7105440160    14.9472125230
Ni      2.4589274570     2.8378950180    14.9472126230
Ni      3.6873641450     4.9659340110    14.9472361150
Ni      6.1443087910     0.7103827880    14.9472361760
Ni      4.9159520710     2.8382250840    14.9474526980
Ni      6.1444225000     4.9663508800    14.9474869000
Ni      7.3731982530     2.8380497740    14.9474870240
Ni      8.6015404070     4.9661014020    14.9475110630
Cu      0.0002371770     0.0001345310    17.0095566530
Cu      2.4575439700     0.0002605240    17.0097303500
Cu      1.2289989080     2.1281620840    17.0097304640
Cu      2.4574811020     4.2563400380    17.0097910800
Cu      4.9148412440     0.0000691580    17.0097911200
Cu      3.6862398640     2.1282500140    17.0099390000
Cu      4.9147998590     4.2563702540    17.0100125200
Cu      6.1435260460     2.1281549480    17.0100126890
Cu      7.3720625000     4.2562615990    17.0100868050
Cu      2.4594706662     1.4211505931    19.0922978712
Cu      4.9154960029     5.6762859002    19.0974950561
Cu      7.3736788511     1.4194122923    19.0968997615
Cu      3.6870297232     3.5449833097    19.0916421668
Cu      4.9146681989     1.4210226589    19.0928440293
Cu      7.3731708450     5.6755649290    19.0981799180
Cu      8.6021473595     3.5465582473    19.0950140149
Cu      9.8310943506     5.6759970414    19.0977917936
Cu      6.1445177320     3.5469380429    19.0952408132
Cu      3.6877903469     4.9645096034    21.1831301051
Cu      6.1439378338     0.7115371712    21.1824522354
Cu      1.2320489388     0.7114719589    21.1856818313
Cu      2.4600679653     2.8381731212    21.1885279317
Cu      3.6879634066     0.7157436577    21.1920756660
Cu      8.6006025297     4.9644749812    21.1792754370
Cu      7.3739829342     2.8414177875    21.1831982798
Cu      6.1473794668     4.9649182567    21.1799552403
Cu      4.9160188895     2.8381738418    21.1847595016
Cu      3.6940710432     2.1670038228    23.2187421251
Cu      1.2082605839     2.1275232276    23.2256814583
Cu      2.4522474062    -0.0170765447    23.2287963709
Cu      4.9312784229     4.2839649718    23.2196536412
Cu      6.1670280908     2.1248423939    23.2256448269
Cu     -0.0009836679    -0.0000193447    23.2438131780
Cu      2.4439720143     4.2854131880    23.2217823534
Cu      4.9278582717    -0.0185065765    23.2271513697
Cu      7.3728533381     4.2583317766    23.2529949384
O       3.6180377224     2.1524729270    25.3121514139
H       3.9871514069     1.2419544353    25.3718585827
H       5.2504396180     2.9477306804    26.3814157013
H       3.7557927068     3.9405976286    26.3408874246
C       4.1428372322     2.9119264405    26.4283194327
O       4.1529518978     0.8218347948    27.6234347333
H       5.1227256645     0.8713951813    27.6589786494
C       3.6835877114     2.1821436903    27.6931660981
H       2.5889815926     2.1072681303    27.6786092368
C       4.1492784559     2.8864629332    28.9578773090
H       3.8027634416     3.9414236627    28.9473786524
H       5.2590849172     2.8914460030    28.9469047202
O       3.6434685148     2.1848258919    30.0963347092
H       3.9917153299     2.6466747561    30.8786046742
86
Step 5 | ATOMIC_POSITIONS (angstrom) | Cartesian Angstrom
Ni      1.2286390390     0.7093535490     9.0128649340
Ni      2.4572760100     2.8374169220     9.0128649340
Ni      3.6859498400     4.9655441370     9.0128649340
Ni      3.6859144660     0.7093535490     9.0128649340
Ni      4.9145514370     2.8374169220     9.0128649340
Ni      6.1432252670     4.9655441370     9.0128649340
Ni      6.1432636120     0.7093535490     9.0128649340
Ni      7.3719005830     2.8374169220     9.0128649340
Ni      8.6005744130     4.9655441370     9.0128649340
Ni      0.0000019230    -0.0000011100    11.0189462060
Ni      1.2286511800     2.1280835430    11.0189462060
Ni      2.4573004370     4.2561681970    11.0189462060
Ni      2.4573019230    -0.0000011100    11.0189462060
Ni      3.6859511800     2.1280835430    11.0189462060
Ni      4.9146004370     4.2561681970    11.0189462060
Ni      4.9146019230    -0.0000011100    11.0189462060
Ni      6.1432511800     2.1280835430    11.0189462060
Ni      7.3719004370     4.2561681970    11.0189462060
Ni      6.1438734720     3.5471661970    12.9811357840
Ni      7.3724754910     5.6753002550    12.9812984850
Ni      8.6011926510     3.5471005460    12.9812984900
Ni      4.9154250810     1.4190473550    12.9815171700
Ni      3.6866443280     3.5473571860    12.9815172510
Ni      9.8297970970     5.6752360910    12.9815758290
Ni      7.3727178060     1.4189936100    12.9817330850
Ni      4.9152433530     5.6754625070    12.9817330970
Ni      2.4581886360     1.4192341220    12.9820006980
Ni      1.2300181510     0.7101493710    14.9469571230
Ni      3.6871547190     0.7105440160    14.9472125230
Ni      2.4589274570     2.8378950180    14.9472126230
Ni      3.6873641450     4.9659340110    14.9472361150
Ni      6.1443087910     0.7103827880    14.9472361760
Ni      4.9159520710     2.8382250840    14.9474526980
Ni      6.1444225000     4.9663508800    14.9474869000
Ni      7.3731982530     2.8380497740    14.9474870240
Ni      8.6015404070     4.9661014020    14.9475110630
Cu      0.0002371770     0.0001345310    17.0095566530
Cu      2.4575439700     0.0002605240    17.0097303500
Cu      1.2289989080     2.1281620840    17.0097304640
Cu      2.4574811020     4.2563400380    17.0097910800
Cu      4.9148412440     0.0000691580    17.0097911200
Cu      3.6862398640     2.1282500140    17.0099390000
Cu      4.9147998590     4.2563702540    17.0100125200
Cu      6.1435260460     2.1281549480    17.0100126890
Cu      7.3720625000     4.2562615990    17.0100868050
Cu      2.4596070586     1.4211071814    19.0916784784
Cu      4.9154183637     5.6763662605    19.0976263365
Cu      7.3737326134     1.4193950748    19.0969438131
Cu      3.6868224660     3.5447136062    19.0903551875
Cu      4.9142587555     1.4209077948    19.0919708352
Cu      7.3731321775     5.6761255857    19.0983265040
Cu      8.6023415044     3.5462773892    19.0943019783
Cu      9.8311284311     5.6760068395    19.0977513560
Cu      6.1443894484     3.5467748073    19.0944802297
Cu      3.6876301728     4.9647304399    21.1808347673
Cu      6.1438752095     0.7112501074    21.1807420999
Cu      1.2321750401     0.7112456770    21.1853242506
Cu      2.4594731060     2.8385145024    21.1882288982
Cu      3.6879884176     0.7169040328    21.1942583753
Cu      8.5987609332     4.9640657404    21.1756161587
Cu      7.3740546163     2.8427308078    21.1809808222
Cu      6.1490528457     4.9649422387    21.1764701982
Cu      4.9168994936     2.8386201667    21.1831299472
Cu      3.6960232882     2.1764726157    23.2240708454
Cu      1.2075875738     2.1275706480    23.2225399703
Cu      2.4541913235    -0.0152016393    23.2261612840
Cu      4.9344320663     4.2892543933    23.2148369327
Cu      6.1685288746     2.1245729584    23.2226830172
Cu     -0.0008299597     0.0003448145    23.2468965209
Cu      2.4417639982     4.2903563782    23.2175122179
Cu      4.9272107777    -0.0167510652    23.2241069503
Cu      7.3730042955     4.2585365267    23.2595019738
O       3.6090492075     2.1384537134    25.3277209916
H       3.9762998957     1.2293654233    25.3939020355
H       5.2466714949     2.9585947262    26.3821082598
H       3.7530491398     3.9342321316    26.3308613070
C       4.1431576104     2.9096376585    26.4295931319
O       4.1532885806     0.8254133878    27.6186863943
H       5.1265296234     0.8543015665    27.6639940054
C       3.6901031925     2.1849345166    27.6943770747
H       2.5973691901     2.1074063567    27.6827396841
C       4.1541828309     2.8882425612    28.9547042820
H       3.8067611584     3.9383256743    28.9380236636
H       5.2588000728     2.9009274447    28.9443150662
O       3.6436868890     2.1946117317    30.0958927737
H       3.9839056401     2.6371222897    30.8889591251
86
Step 6 | ATOMIC_POSITIONS (angstrom) | Cartesian Angstrom
Ni      1.2286390390     0.7093535490     9.0128649340
Ni      2.4572760100     2.8374169220     9.0128649340
Ni      3.6859498400     4.9655441370     9.0128649340
Ni      3.6859144660     0.7093535490     9.0128649340
Ni      4.9145514370     2.8374169220     9.0128649340
Ni      6.1432252670     4.9655441370     9.0128649340
Ni      6.1432636120     0.7093535490     9.0128649340
Ni      7.3719005830     2.8374169220     9.0128649340
Ni      8.6005744130     4.9655441370     9.0128649340
Ni      0.0000019230    -0.0000011100    11.0189462060
Ni      1.2286511800     2.1280835430    11.0189462060
Ni      2.4573004370     4.2561681970    11.0189462060
Ni      2.4573019230    -0.0000011100    11.0189462060
Ni      3.6859511800     2.1280835430    11.0189462060
Ni      4.9146004370     4.2561681970    11.0189462060
Ni      4.9146019230    -0.0000011100    11.0189462060
Ni      6.1432511800     2.1280835430    11.0189462060
Ni      7.3719004370     4.2561681970    11.0189462060
Ni      6.1438734720     3.5471661970    12.9811357840
Ni      7.3724754910     5.6753002550    12.9812984850
Ni      8.6011926510     3.5471005460    12.9812984900
Ni      4.9154250810     1.4190473550    12.9815171700
Ni      3.6866443280     3.5473571860    12.9815172510
Ni      9.8297970970     5.6752360910    12.9815758290
Ni      7.3727178060     1.4189936100    12.9817330850
Ni      4.9152433530     5.6754625070    12.9817330970
Ni      2.4581886360     1.4192341220    12.9820006980
Ni      1.2300181510     0.7101493710    14.9469571230
Ni      3.6871547190     0.7105440160    14.9472125230
Ni      2.4589274570     2.8378950180    14.9472126230
Ni      3.6873641450     4.9659340110    14.9472361150
Ni      6.1443087910     0.7103827880    14.9472361760
Ni      4.9159520710     2.8382250840    14.9474526980
Ni      6.1444225000     4.9663508800    14.9474869000
Ni      7.3731982530     2.8380497740    14.9474870240
Ni      8.6015404070     4.9661014020    14.9475110630
Cu      0.0002371770     0.0001345310    17.0095566530
Cu      2.4575439700     0.0002605240    17.0097303500
Cu      1.2289989080     2.1281620840    17.0097304640
Cu      2.4574811020     4.2563400380    17.0097910800
Cu      4.9148412440     0.0000691580    17.0097911200
Cu      3.6862398640     2.1282500140    17.0099390000
Cu      4.9147998590     4.2563702540    17.0100125200
Cu      6.1435260460     2.1281549480    17.0100126890
Cu      7.3720625000     4.2562615990    17.0100868050
Cu      2.4596856479     1.4207968236    19.0914154657
Cu      4.9154319093     5.6763801626    19.0970724116
Cu      7.3737343284     1.4193923260    19.0964850387
Cu      3.6866531491     3.5448144086    19.0892650992
Cu      4.9139925814     1.4205351867    19.0912658102
Cu      7.3730975764     5.6768965264    19.0976026840
Cu      8.6025103891     3.5461218135    19.0931207444
Cu      9.8310224320     5.6759622850    19.0969251938
Cu      6.1442676670     3.5467031186    19.0931945895
Cu      3.6875162863     4.9654625069    21.1786328357
Cu      6.1441954447     0.7107516961    21.1794834253
Cu      1.2319666248     0.7107927254    21.1851100683
Cu      2.4590870332     2.8389231691    21.1878210480
Cu      3.6880255514     0.7181956126    21.1961298858
Cu      8.5969863310     4.9642188990    21.1727610806
Cu      7.3741250766     2.8437857047    21.1791817796
Cu      6.1507586061     4.9654604206    21.1736409744
Cu      4.9175889205     2.8391616728    21.1818052322
Cu      3.6972515679     2.1819549372    23.2348697196
Cu      1.2106339908     2.1282371694    23.2198122037
Cu      2.4578239598    -0.0094198681    23.2235070844
Cu      4.9358050917     4.2916177675    23.2108944201
Cu      6.1666099978     2.1252898807    23.2201098172
Cu     -0.0001302274     0.0012503537    23.2490943793
Cu      2.4415031364     4.2920013361    23.2139411330
Cu      4.9243787981    -0.0109541142    23.2212192375
Cu      7.3732556105     4.2587625564    23.2645231598
O       3.6044962418     2.1285774394    25.3361725028
H       3.9646048275     1.2161303011    25.4183606057
H       5.2429260859     2.9673131441    26.3789202341
H       3.7491194310     3.9250047634    26.3220100816
C       4.1399255011     2.9066212063    26.4289095325
O       4.1559162891     0.8287746475    27.6166232883
H       5.1299915416     0.8371679417    27.6695769966
C       3.6957108320     2.1882776521    27.6944636126
H       2.6013186047     2.1074964392    27.6876697074
C       4.1585754313     2.8908322644    28.9524694820
H       3.8099599840     3.9351839586    28.9294998467
H       5.2619647702     2.9092765248    28.9462645643
O       3.6442034880     2.2028418366    30.0915500294
H       3.9779788873     2.6302199728    30.8997291860
86
Step 7 | ATOMIC_POSITIONS (angstrom) | Cartesian Angstrom
Ni      1.2286390390     0.7093535490     9.0128649340
Ni      2.4572760100     2.8374169220     9.0128649340
Ni      3.6859498400     4.9655441370     9.0128649340
Ni      3.6859144660     0.7093535490     9.0128649340
Ni      4.9145514370     2.8374169220     9.0128649340
Ni      6.1432252670     4.9655441370     9.0128649340
Ni      6.1432636120     0.7093535490     9.0128649340
Ni      7.3719005830     2.8374169220     9.0128649340
Ni      8.6005744130     4.9655441370     9.0128649340
Ni      0.0000019230    -0.0000011100    11.0189462060
Ni      1.2286511800     2.1280835430    11.0189462060
Ni      2.4573004370     4.2561681970    11.0189462060
Ni      2.4573019230    -0.0000011100    11.0189462060
Ni      3.6859511800     2.1280835430    11.0189462060
Ni      4.9146004370     4.2561681970    11.0189462060
Ni      4.9146019230    -0.0000011100    11.0189462060
Ni      6.1432511800     2.1280835430    11.0189462060
Ni      7.3719004370     4.2561681970    11.0189462060
Ni      6.1438734720     3.5471661970    12.9811357840
Ni      7.3724754910     5.6753002550    12.9812984850
Ni      8.6011926510     3.5471005460    12.9812984900