86
Step 1 | ATOMIC_POSITIONS (angstrom) | Cartesian Angstrom
Ni      0.0000000000     0.0000000000    10.0000000900
Ni      8.6005476670     2.1280836470    10.0000000900
Ni      9.8291973330     4.2561672950    10.0000000900
Ni      2.4572993330     0.0000000000    10.0000000900
Ni      3.6859490000     2.1280836470    10.0000000900
Ni      4.9145986670     4.2561672950    10.0000000900
Ni      4.9145986670     0.0000000000    10.0000000900
Ni      6.1432483330     2.1280836470    10.0000000900
Ni      7.3718980000     4.2561672950    10.0000000900
Ni      1.6381995390     1.4187224170    12.0063763950
Ni      2.8668492300     3.5468061070    12.0063763950
Ni      4.0954988850     5.6748897330    12.0063763950
Ni      4.0954988480     1.4187224170    12.0063763950
Ni      5.3241485390     3.5468061070    12.0063763950
Ni      6.5527981940     5.6748897330    12.0063763950
Ni      6.5527982300     1.4187224170    12.0063763950
Ni      7.7814479220     3.5468061070    12.0063763950
Ni      9.0100975760     5.6748897330    12.0063763950
Ni      2.0477494240     0.7093612090    14.1640614080
Ni      3.2763990780     2.8374448350    14.1640729510
Ni      4.5050487700     4.9655285250    14.1640397250
Ni      4.5050488060     0.7093612090    14.1640710440
Ni      5.7336984610     2.8374448350    14.1640423650
Ni      6.9623481520     4.9655285250    14.1640482520
Ni      6.9623481150     0.7093612090    14.1640292020
Ni      8.1909977700     2.8374448350    14.1640591990
Ni      9.4196474610     4.9655285250    14.1640542750
Ni      0.0000000000     0.0000000000    16.3281461600
Ni      8.6005476670     2.1280836470    16.3282017120
Ni      9.8291973330     4.2561672950    16.3281943160
Ni      2.4572993330     0.0000000000    16.3281936330
Ni      3.6859490000     2.1280836470    16.3282178260
Ni      4.9145986670     4.2561672950    16.3281642570
Ni      4.9145986670     0.0000000000    16.3282096040
Ni      6.1432483330     2.1280836470    16.3281694310
Ni      7.3718980000     4.2561672950    16.3281777140
Cu      1.6381995390     1.4187224170    18.5439570380
Cu      2.8668492300     3.5468061070    18.5439633170
Cu      4.0954988850     5.6748897330    18.5439058500
Cu      4.0954988480     1.4187224170    18.5439876690
Cu      5.3241485390     3.5468061070    18.5439225600
Cu      6.5527981940     5.6748897330    18.5439394360
Cu      6.5527982300     1.4187224170    18.5439267690
Cu      7.7814479220     3.5468061070    18.5439293780
Cu      9.0100975760     5.6748897330    18.5439799570
Cu      2.0480902747     0.7089932437    20.7903006545
Cu      3.2766993274     2.8375708429    20.7901414803
Cu      4.5053030770     4.9651790075    20.7899310643
Cu      4.5051464443     0.7097298294    20.7903825575
Cu      5.7336744912     2.8373577620    20.7896781093
Cu      6.9621518488     4.9653637030    20.7899543349
Cu      6.9642652854     0.7097015910    20.7904406506
Cu      8.1908141761     2.8377860687    20.7901397038
Cu      9.4197841475     4.9651613940    20.7903689332
Cu      0.0033166661    -0.0059431709    23.0257949774
Cu      8.6033588283     2.1224486292    23.0260871417
Cu      9.8328643561     4.2508587823    23.0268408745
Cu      2.4601700556    -0.0058989470    23.0267931869
Cu      3.6896203479     2.1229985090    23.0279109877
Cu      4.9182043114     4.2498042945    23.0283001718
Cu      4.9180610662    -0.0054770718    23.0259505034
Cu      6.1455627258     2.1240029103    23.0292792961
Cu      7.3746058673     4.2504538673    23.0277141440
Cu      1.8391151524     1.0698912020    25.1888386322
Cu      3.0625633704     3.1978361174    25.1844858571
Cu      4.2933229315     5.3324350089    25.1829204745
Cu      4.2948210040     1.0653604947    25.1851163602
Cu      5.5271381328     3.2041237082    25.1504314313
Cu      6.7574944164     5.3318331604    25.1823232059
Cu      6.7565381970     1.0655665063    25.1855206781
Cu      7.9879152729     3.1975673632    25.1848891292
Cu      9.2111985453     5.3264053562    25.1888580047
O       5.9333642010     1.9993137685    29.4559215550
O       5.4398067167     3.3573137845    27.1168018386
O       5.4451265771     3.3461116351    31.9037431085
C       5.4547906550     3.3491395869    29.4919030025
C       5.9222348281     4.0692365720    28.2388812671
C       5.9275217399     4.0428122121    30.7536799697
H       4.3403207068     3.2647670885    29.4877384257
H       7.0259231601     4.0832763877    28.1808524424
H       5.5496254163     5.0886888163    28.1779192696
H       5.5833531154     5.0832395033    30.7862002131
H       7.0362150454     4.0314227191    30.7864517594
H       6.9126970628     2.0578269808    29.4645639510
H       5.7895823815     2.4290128412    27.1538396520
H       5.7894389121     3.8227715541    32.6758665742
86
Step 2 | ATOMIC_POSITIONS (angstrom) | Cartesian Angstrom
Ni      0.0000000000     0.0000000000    10.0000000900
Ni      8.6005476670     2.1280836470    10.0000000900
Ni      9.8291973330     4.2561672950    10.0000000900
Ni      2.4572993330     0.0000000000    10.0000000900
Ni      3.6859490000     2.1280836470    10.0000000900
Ni      4.9145986670     4.2561672950    10.0000000900
Ni      4.9145986670     0.0000000000    10.0000000900
Ni      6.1432483330     2.1280836470    10.0000000900
Ni      7.3718980000     4.2561672950    10.0000000900
Ni      1.6381995390     1.4187224170    12.0063763950
Ni      2.8668492300     3.5468061070    12.0063763950
Ni      4.0954988850     5.6748897330    12.0063763950
Ni      4.0954988480     1.4187224170    12.0063763950
Ni      5.3241485390     3.5468061070    12.0063763950
Ni      6.5527981940     5.6748897330    12.0063763950
Ni      6.5527982300     1.4187224170    12.0063763950
Ni      7.7814479220     3.5468061070    12.0063763950
Ni      9.0100975760     5.6748897330    12.0063763950
Ni      2.0477494240     0.7093612090    14.1640614080
Ni      3.2763990780     2.8374448350    14.1640729510
Ni      4.5050487700     4.9655285250    14.1640397250
Ni      4.5050488060     0.7093612090    14.1640710440
Ni      5.7336984610     2.8374448350    14.1640423650
Ni      6.9623481520     4.9655285250    14.1640482520
Ni      6.9623481150     0.7093612090    14.1640292020
Ni      8.1909977700     2.8374448350    14.1640591990
Ni      9.4196474610     4.9655285250    14.1640542750
Ni      0.0000000000     0.0000000000    16.3281461600
Ni      8.6005476670     2.1280836470    16.3282017120
Ni      9.8291973330     4.2561672950    16.3281943160
Ni      2.4572993330     0.0000000000    16.3281936330
Ni      3.6859490000     2.1280836470    16.3282178260
Ni      4.9145986670     4.2561672950    16.3281642570
Ni      4.9145986670     0.0000000000    16.3282096040
Ni      6.1432483330     2.1280836470    16.3281694310
Ni      7.3718980000     4.2561672950    16.3281777140
Cu      1.6381995390     1.4187224170    18.5439570380
Cu      2.8668492300     3.5468061070    18.5439633170
Cu      4.0954988850     5.6748897330    18.5439058500
Cu      4.0954988480     1.4187224170    18.5439876690
Cu      5.3241485390     3.5468061070    18.5439225600
Cu      6.5527981940     5.6748897330    18.5439394360
Cu      6.5527982300     1.4187224170    18.5439267690
Cu      7.7814479220     3.5468061070    18.5439293780
Cu      9.0100975760     5.6748897330    18.5439799570
Cu      2.0488426560     0.7081514226    20.7907651750
Cu      3.2774108924     2.8376640082    20.7903214005
Cu      4.5059377054     4.9642947181    20.7897937229
Cu      4.5053771858     0.7104376371    20.7908626619
Cu      5.7337477518     2.8369863268    20.7888667529
Cu      6.9618639441     4.9648639003    20.7898040346
Cu      6.9630976337     0.7103949614    20.7912824115
Cu      8.1905036003     2.8384124029    20.7902624170
Cu      9.4201322865     4.9643115152    20.7909055732
Cu      0.0115089927    -0.0205538255    23.0216411186
Cu      8.6107061062     2.1080944065    23.0233240949
Cu      9.8417406209     4.2376232463    23.0257854337
Cu      2.4673339997    -0.0201799027    23.0255167504
Cu      3.6985384025     2.1100317819    23.0295224847
Cu      4.9260654166     4.2358891407    23.0278753642
Cu      4.9267747097    -0.0194388134    23.0228001887
Cu      6.1525356136     2.1117081927    23.0317016782
Cu      7.3816590497     4.2361577853    23.0288396619
Cu      1.8386232535     1.0691295218    25.1929646695
Cu      3.0517165242     3.1965629458    25.1784304961
Cu      4.2864418114     5.3447304776    25.1732536487
Cu      4.2915217094     1.0559504055    25.1803610486
Cu      5.5312215933     3.2171288734    25.0831573927
Cu      6.7651184125     5.3431327992    25.1713132265
Cu      6.7612585471     1.0567408601    25.1821489415
Cu      7.9985882665     3.1958418157    25.1799295083
Cu      9.2110246579     5.3262737888    25.1928917101
O       5.9383550767     1.9819721460    29.4446842658
O       5.4132097217     3.3283641331    27.1627616832
O       5.4326911639     3.3378934488    31.9110535111
C       5.4607239868     3.3466756122    29.5101553392
C       5.9348622967     4.0793493407    28.2621068449
C       5.9312948102     4.0443243691    30.7699439021
H       4.3572094508     3.2669636242    29.4878856114
H       7.0334954491     4.0936264286    28.1898788279
H       5.5437273551     5.1022838122    28.1688310481
H       5.5831050312     5.1004051745    30.7738785764
H       7.0424445960     4.0400212575    30.7707425234
H       6.9060505011     2.0509127877    29.4679898825
H       5.7841815133     2.4159192115    27.1778983807
H       5.7855943680     3.8182129683    32.6789595605
