86
Step 1 | ATOMIC_POSITIONS (angstrom) | Cartesian Angstrom
Ni      1.2286420027     0.7093562278     8.0127033495
Ni      0.0000022775     0.0000000000    10.0192033545
Ni      2.4637570809     1.4224515552    12.0711324136
Ni      1.2397802907     0.7157901456    14.1224527674
Ni      2.4572821841     2.8374249112     8.0127033495
Ni      1.2286424588     2.1280686834    10.0192033545
Ni      3.6926781159     3.5507357065    12.0705045449
Ni      2.4684725529     2.8434817294    14.1212345102
Ni      3.6859592251     4.9655574374     8.0127033495
Ni      2.4573194998     4.2562012095    10.0192033545
Ni      4.9217656993     5.6792526148    12.0709362359
Ni      3.6969571749     4.9715231220    14.1220203985
Ni      3.6859223655     0.7093562278     8.0127033495
Ni      2.4572826402     0.0000000000    10.0192033545
Ni      4.9213653839     1.4225857500    12.0705018304
Ni      3.6967638997     0.7160224207    14.1212311860
Ni      4.9145625469     2.8374249112     8.0127033495
Ni      3.6859228216     2.1280686834    10.0192033545
Ni      6.1503529497     3.5509085402    12.0699854915
Ni      4.9256539069     2.8438285306    14.1202327617
Ni      6.1432395878     4.9655574374     8.0127033495
Ni      4.9145998625     4.2562012095    10.0192033545
Ni      7.3794585706     5.6794809406    12.0703411417
Ni      6.1541912510     4.9717126524    14.1210383973
Ni      6.1432764474     0.7093562278     8.0127033495
Ni      4.9146367221     0.0000000000    10.0192033545
Ni      7.3792576901     1.4227490418    12.0709363656
Ni      6.1539445722     0.7158998925    14.1220190429
Ni      7.3719166287     2.8374249112     8.0127033495
Ni      6.1432769035     2.1280686834    10.0192033545
Ni      8.6083025545     3.5510600089    12.0703431006
Ni      7.3827250276     2.8438303041    14.1210406577
Ni      8.6005936697     4.9655574374     8.0127033495
Ni      7.3719539444     4.2562012095    10.0192033545
Ni      9.8373683369     5.6796094234    12.0707933550
Ni      8.6114301675     4.9718114503    14.1216528753
Cu      0.0606248935    -0.0000009076    22.6429392959
Cu      1.2861052596     2.1284696793    22.6238044195
Cu      2.5197103439     4.2585107386    22.6334804449
Cu      2.5148915496    -0.0058765714    22.6145995504
Cu      0.0125988505     0.0072754476    16.2332161102
Cu      2.4696349891     1.4258444684    18.3916416570
Cu      1.2664671261     0.7111605871    20.5063580237
Cu      3.7542135216     2.1234611699    22.7542853445
Cu      1.2416711544     2.1361120827    16.2320324925
Cu      3.6976153977     3.5539780780    18.3918749325
Cu      2.5032960082     2.8352088659    20.5353758700
Cu      4.9790314988     4.2626396841    22.6114260504
Cu      4.9835825608    -0.0120251724    22.5892158741
Cu      2.4707625323     0.0072639821    16.2320277932
Cu      4.9266420746     1.4252400817    18.3918761583
Cu      3.7226686298     0.7190406700    20.5233190214
Cu      6.2174461288     2.1261677666    22.6086623233
Cu      3.6999344853     2.1361584753    16.2305426330
Cu      6.1546566898     3.5533933395    18.3924014903
Cu      4.9462335065     2.8340278777    20.5315651871
Cu      7.4340516897     4.2594533414    22.6297914202
Cu      2.4703615692     4.2639064921    16.2323564383
Cu      4.9258612022     5.6821553099    18.3929147418
Cu      3.7220249418     4.9684095077    20.5061256730
Cu      4.9284376454     4.2641058199    16.2311095738
Cu      7.3827816611     5.6818035922    18.3933612343
Cu      6.1810265642     4.9665417678    20.4916163682
Cu      4.9278325409     0.0074438059    16.2323521866
Cu      7.3838191099     1.4248449337    18.3929204237
Cu      6.1826724802     0.7102911359    20.4961813776
Cu      6.1570438883     2.1360992535    16.2311101997
Cu      8.6119749333     3.5527772255    18.3933657681
Cu      7.4113862926     2.8407045415    20.4933464478
Cu      7.3856113588     4.2640840866    16.2316791968
Cu      9.8400295452     5.6811466362    18.3940799063
Cu      8.6380541496     4.9625036493    20.4902286029
O       5.3348674346     1.3799876370    27.5140318931
O       3.8790622121     1.8364510053    25.0832298598
O       5.4337484887     3.2462231353    29.4234381621
C       4.5511756996     2.5633678541    27.3182823182
C       4.5390451812     2.8728038984    25.8334188956
C       5.1576790349     3.7287465588    28.0939604130
H       3.5131917786     2.3786974484    27.6604346246
H       5.5715762272     3.0070124240    25.4709041124
H       3.9797145393     3.7921002154    25.6157972976
H       4.4553475464     4.5769535297    28.1192123834
H       6.0871405914     4.0536156142    27.5977878446
H       5.6896976118     1.4560921251    28.4222489984
H       4.4066168337     1.0139914079    25.1692667556
H       6.1185083249     3.8021217100    29.8280175257
86
Step 2 | ATOMIC_POSITIONS (angstrom) | Cartesian Angstrom
Ni      1.2286420027     0.7093562278     8.0127033495
Ni      0.0000022775     0.0000000000    10.0192033545
Ni      2.4637570809     1.4224515552    12.0711324136
Ni      1.2397802907     0.7157901456    14.1224527674
Ni      2.4572821841     2.8374249112     8.0127033495
Ni      1.2286424588     2.1280686834    10.0192033545
Ni      3.6926781159     3.5507357065    12.0705045449
Ni      2.4684725529     2.8434817294    14.1212345102
Ni      3.6859592251     4.9655574374     8.0127033495
Ni      2.4573194998     4.2562012095    10.0192033545
Ni      4.9217656993     5.6792526148    12.0709362359
Ni      3.6969571749     4.9715231220    14.1220203985
Ni      3.6859223655     0.7093562278     8.0127033495
Ni      2.4572826402     0.0000000000    10.0192033545
Ni      4.9213653839     1.4225857500    12.0705018304
Ni      3.6967638997     0.7160224207    14.1212311860
Ni      4.9145625469     2.8374249112     8.0127033495
Ni      3.6859228216     2.1280686834    10.0192033545
Ni      6.1503529497     3.5509085402    12.0699854915
Ni      4.9256539069     2.8438285306    14.1202327617
Ni      6.1432395878     4.9655574374     8.0127033495
Ni      4.9145998625     4.2562012095    10.0192033545
Ni      7.3794585706     5.6794809406    12.0703411417
Ni      6.1541912510     4.9717126524    14.1210383973
Ni      6.1432764474     0.7093562278     8.0127033495
Ni      4.9146367221     0.0000000000    10.0192033545
Ni      7.3792576901     1.4227490418    12.0709363656
Ni      6.1539445722     0.7158998925    14.1220190429
Ni      7.3719166287     2.8374249112     8.0127033495
Ni      6.1432769035     2.1280686834    10.0192033545
Ni      8.6083025545     3.5510600089    12.0703431006
Ni      7.3827250276     2.8438303041    14.1210406577
Ni      8.6005936697     4.9655574374     8.0127033495
Ni      7.3719539444     4.2562012095    10.0192033545
Ni      9.8373683369     5.6796094234    12.0707933550
Ni      8.6114301675     4.9718114503    14.1216528753
Cu      0.0628846335     0.0013107312    22.6447324453
Cu      1.2886494722     2.1296383119    22.6214735923
Cu      2.5206108837     4.2614241352    22.6368572085
Cu      2.5175701632    -0.0060907103    22.6170953184
Cu      0.0125988505     0.0072754476    16.2332161102
Cu      2.4696349891     1.4258444684    18.3916416570
Cu      1.2717476783     0.7136028946    20.5051762178
Cu      3.7531393988     2.1242194433    22.7506702655
Cu      1.2416711544     2.1361120827    16.2320324925
Cu      3.6976153977     3.5539780780    18.3918749325
Cu      2.5062188151     2.8411136055    20.5367386918
Cu      4.9814609363     4.2632735032    22.6077836622
Cu      4.9838467366    -0.0089482002    22.5924941268
Cu      2.4707625323     0.0072639821    16.2320277932
Cu      4.9266420746     1.4252400817    18.3918761583
Cu      3.7250482847     0.7218714165    20.5243364776
Cu      6.2179721276     2.1283744204    22.6045396860
Cu      3.6999344853     2.1361584753    16.2305426330
Cu      6.1546566898     3.5533933395    18.3924014903
Cu      4.9495334042     2.8367154116    20.5298740090
Cu      7.4366250747     4.2590088222    22.6361801148
Cu      2.4703615692     4.2639064921    16.2323564383
Cu      4.9258612022     5.6821553099    18.3929147418
Cu      3.7246552581     4.9717270709    20.5057375359
Cu      4.9284376454     4.2641058199    16.2311095738
Cu      7.3827816611     5.6818035922    18.3933612343
Cu      6.1849309395     4.9672035256    20.4918140906
Cu      4.9278325409     0.0074438059    16.2323521866
Cu      7.3838191099     1.4248449337    18.3929204237
Cu      6.1853477709     0.7129138415    20.4973899425
Cu      6.1570438883     2.1360992535    16.2311101997
Cu      8.6119749333     3.5527772255    18.3933657681
Cu      7.4154078956     2.8422527448    20.4925693494
Cu      7.3856113588     4.2640840866    16.2316791968
Cu      9.8400295452     5.6811466362    18.3940799063
Cu      8.6391424176     4.9662449657    20.4924850137
O       5.3650553167     1.3942575889    27.5015151650
O       3.8760276190     1.8434421147    25.0797300631
O       5.4372576083     3.2634868328    29.4212895731
C       4.5674690930     2.5697914717    27.3148982271
C       4.5442455276     2.8761248380    25.8300415113
C       5.1685792837     3.7404099703    28.0870660472
H       3.5339313272     2.3771170432    27.6649840959
H       5.5771946980     3.0071016819    25.4640787963
H       3.9854360828     3.7960477662    25.6133961618
H       4.4609365046     4.5854563206    28.1077574871
H       6.0990706510     4.0651235677    27.5933234487
H       5.6915514939     1.4491647101    28.4220079920
H       4.3894601569     1.0137282144    25.1724259164
H       6.1341804722     3.8118609469    29.8170159010
86
Step 3 | ATOMIC_POSITIONS (angstrom) | Cartesian Angstrom
Ni      1.2286420027     0.7093562278     8.0127033495
Ni      0.0000022775     0.0000000000    10.0192033545
Ni      2.4637570809     1.4224515552    12.0711324136
Ni      1.2397802907     0.7157901456    14.1224527674
Ni      2.4572821841     2.8374249112     8.0127033495
Ni      1.2286424588     2.1280686834    10.0192033545
Ni      3.6926781159     3.5507357065    12.0705045449
Ni      2.4684725529     2.8434817294    14.1212345102
Ni      3.6859592251     4.9655574374     8.0127033495
Ni      2.4573194998     4.2562012095    10.0192033545
Ni      4.9217656993     5.6792526148    12.0709362359
Ni      3.6969571749     4.9715231220    14.1220203985
Ni      3.6859223655     0.7093562278     8.0127033495
Ni      2.4572826402     0.0000000000    10.0192033545
Ni      4.9213653839     1.4225857500    12.0705018304
Ni      3.6967638997     0.7160224207    14.1212311860
Ni      4.9145625469     2.8374249112     8.0127033495
Ni      3.6859228216     2.1280686834    10.0192033545
Ni      6.1503529497     3.5509085402    12.0699854915
Ni      4.9256539069     2.8438285306    14.1202327617
Ni      6.1432395878     4.9655574374     8.0127033495
Ni      4.9145998625     4.2562012095    10.0192033545
Ni      7.3794585706     5.6794809406    12.0703411417
Ni      6.1541912510     4.9717126524    14.1210383973
Ni      6.1432764474     0.7093562278     8.0127033495
Ni      4.9146367221     0.0000000000    10.0192033545
Ni      7.3792576901     1.4227490418    12.0709363656
Ni      6.1539445722     0.7158998925    14.1220190429
Ni      7.3719166287     2.8374249112     8.0127033495
Ni      6.1432769035     2.1280686834    10.0192033545
Ni      8.6083025545     3.5510600089    12.0703431006
Ni      7.3827250276     2.8438303041    14.1210406577
Ni      8.6005936697     4.9655574374     8.0127033495
Ni      7.3719539444     4.2562012095    10.0192033545
Ni      9.8373683369     5.6796094234    12.0707933550
Ni      8.6114301675     4.9718114503    14.1216528753
Cu      0.0611186607     0.0006078924    22.6455476880
Cu      1.2869596454     2.1289100026    22.6201563153
Cu      2.5177965077     4.2625612558    22.6374769670
Cu      2.5156679184    -0.0077408288    22.6182097559
Cu      0.0125988505     0.0072754476    16.2332161102
Cu      2.4696349891     1.4258444684    18.3916416570
Cu      1.2725207694     0.7142695662    20.5046633683
Cu      3.7498085738     2.1243536379    22.7460999958
Cu      1.2416711544     2.1361120827    16.2320324925
Cu      3.6976153977     3.5539780780    18.3918749325
Cu      2.5066933880     2.8428414797    20.5362353021
Cu      4.9801252695     4.2632171966    22.6047979187
Cu      4.9819719381    -0.0087715882    22.5944654054
Cu      2.4707625323     0.0072639821    16.2320277932
Cu      4.9266420746     1.4252400817    18.3918761583
Cu      3.7249535772     0.7228065287    20.5246530536
Cu      6.2156128889     2.1280905248    22.6025029523
Cu      3.6999344853     2.1361584753    16.2305426330
Cu      6.1546566898     3.5533933395    18.3924014903
Cu      4.9494361485     2.8372693224    20.5275938990
Cu      7.4348530949     4.2570844349    22.6394118770
Cu      2.4703615692     4.2639064921    16.2323564383
Cu      4.9258612022     5.6821553099    18.3929147418
Cu      3.7246416282     4.9721404982    20.5053821750
Cu      4.9284376454     4.2641058199    16.2311095738
Cu      7.3827816611     5.6818035922    18.3933612343
Cu      6.1857365070     4.9672906720    20.4922064604
Cu      4.9278325409     0.0074438059    16.2323521866
Cu      7.3838191099     1.4248449337    18.3929204237
Cu      6.1851242225     0.7138234123    20.4979599587
Cu      6.1570438883     2.1360992535    16.2311101997
Cu      8.6119749333     3.5527772255    18.3933657681
Cu      7.4158005760     2.8425358688    20.4931554899
Cu      7.3856113588     4.2640840866    16.2316791968
Cu      9.8400295452     5.6811466362    18.3940799063
Cu      8.6383254232     4.9675325766    20.4935851183
O       5.3684450165     1.3946001501    27.4891264770
O       3.8711346039     1.8483504234    25.0739220527
O       5.4255667412     3.2639852288    29.4235105944
C       4.5665746102     2.5680710159    27.3111629040
C       4.5404099744     2.8779164877    25.8274254827
C       5.1647930194     3.7385154698    28.0862938189
H       3.5357857287     2.3723611479    27.6655449364
H       5.5746264875     3.0080241687    25.4641069076
H       3.9819687506     3.7994008470    25.6155979641
H       4.4578188755     4.5830968896    28.1021785947
H       6.0996834592     4.0610737592    27.5955261326
H       5.6827670086     1.4358769263    28.4128972187
H       4.3768039171     1.0158670015    25.1712916566
H       6.1215247626     3.8118785571    29.8168239788
