86
Step 1 | ATOMIC_POSITIONS (angstrom) | Cartesian Angstrom
Ni      0.0000000000     0.0000000000    10.0000000900
Ni      8.6005476670     2.1280836470    10.0000000900
Ni      9.8291973330     4.2561672950    10.0000000900
Ni      2.4572993330     0.0000000000    10.0000000900
Ni      3.6859490000     2.1280836470    10.0000000900
Ni      4.9145986670     4.2561672950    10.0000000900
Ni      4.9145986670     0.0000000000    10.0000000900
Ni      6.1432483330     2.1280836470    10.0000000900
Ni      7.3718980000     4.2561672950    10.0000000900
Ni      1.6381995390     1.4187224170    12.0063763950
Ni      2.8668492300     3.5468061070    12.0063763950
Ni      4.0954988850     5.6748897330    12.0063763950
Ni      4.0954988480     1.4187224170    12.0063763950
Ni      5.3241485390     3.5468061070    12.0063763950
Ni      6.5527981940     5.6748897330    12.0063763950
Ni      6.5527982300     1.4187224170    12.0063763950
Ni      7.7814479220     3.5468061070    12.0063763950
Ni      9.0100975760     5.6748897330    12.0063763950
Ni      2.0477494240     0.7093612090    14.0127530410
Ni      3.2763990780     2.8374448350    14.0127530410
Ni      4.5050487700     4.9655285250    14.0127530410
Ni      4.5050488060     0.7093612090    14.0127530410
Ni      5.7336984610     2.8374448350    14.0127530410
Ni      6.9623481520     4.9655285250    14.0127530410
Ni      6.9623481150     0.7093612090    14.0127530410
Ni      8.1909977700     2.8374448350    14.0127530410
Ni      9.4196474610     4.9655285250    14.0127530410
Ni      0.2219535440    -0.3844348150    16.0346322610
Ni      8.8225203380     1.7436790770    16.0347677870
Ni     10.0511134640     3.8717235960    16.0347600380
Ni      2.6792792770    -0.3844068560    16.0347600380
Ni      3.9079067200     1.7436614180    16.0347555120
Ni      5.1365311080     3.8717690310    16.0346226390
Ni      5.1365164550    -0.3844362570    16.0347677870
Ni      6.3652073280     1.7436393910    16.0346221070
Ni      7.5938385560     3.8717351570    16.0347555120
Cu      2.0723744710     0.6666908500    18.1188401140
Cu      3.3010364020     2.7947772280    18.1188294380
Cu      4.5296848840     4.9228575240    18.1186684400
Cu      4.5296771200     0.6666970110    18.1188367610
Cu      5.7583325920     2.7947772670    18.1186160230
Cu      6.9869807220     4.9228581720    18.1188294380
Cu      6.9869802900     0.6666970300    18.1186522440
Cu      8.2156318920     2.7947839910    18.1188367610
Cu      9.4442885520     4.9228674280    18.1188401140
Cu      2.0477494240     0.7093612090    20.5305373300
Cu      3.2763990780     2.8374448350    20.5305290830
Cu      4.5050487700     4.9655285250    20.5303270790
Cu      4.5050488060     0.7093612090    20.5305312910
Cu      5.7336984610     2.8374448350    20.5302848030
Cu      6.9623481520     4.9655285250    20.5305290830
Cu      6.9623481150     0.7093612090    20.5303102470
Cu      8.1909977700     2.8374448350    20.5305312910
Cu      9.4196474610     4.9655285250    20.5305373300
Cu      0.1996576410    -0.3458171780    22.6496925520
Cu      8.8002014820     1.7822648550    22.6499310210
Cu     10.0288585330     3.9103492740    22.6499306530
Cu      2.6569559250    -0.3458206820    22.6499306530
Cu      3.8856048760     1.7822645930    22.6499270560
Cu      5.1142599260     3.9103438500    22.6496806750
Cu      5.1142596180    -0.3458146710    22.6499310210
Cu      6.3429051830     1.7822678380    22.6496760870
Cu      7.5715581480     3.9103507070    22.6499270560
Cu      2.0396454116     0.7217044850    24.7281226540
Cu      3.2618028338     2.8500992905    24.7233694399
Cu      4.4931194689     4.9858934510    24.7205901315
Cu      4.4947548313     0.7148453244    24.7240251277
Cu      5.7252113220     2.8577713419    24.6401294223
Cu      6.9594661564     4.9863955165    24.7199830743
Cu      6.9592714913     0.7145853031    24.7222897312
Cu      8.1923028099     2.8488415429    24.7222976223
Cu      9.4123981118     4.9784669663    24.7279821994
O       6.2384037761     1.6197145661    28.8244255817
O       5.7448120199     2.9778276959    26.5363220549
O       5.7509144457     2.9659259853    31.2716450580
C       5.7601224065     2.9673939003    28.8589896563
C       6.2287165683     3.6939726131    27.6106041401
C       6.2332959930     3.6639352731    30.1219675069
H       4.6456715504     2.8846972562    28.8563332688
H       7.3317076999     3.7029956377    27.5482124315
H       5.8559631250     4.7084651694    27.5459877215
H       5.8892155177     4.7030428318    30.1546612574
H       7.3423547142     3.6511790001    30.1547498969
H       7.2191066831     1.6775166956    28.8323335055
H       6.0978527587     2.0438845982    26.5264033757
H       6.0953160660     3.4427648460    32.0440154112
86
Step 2 | ATOMIC_POSITIONS (angstrom) | Cartesian Angstrom
Ni      0.0000000000     0.0000000000    10.0000000900
Ni      8.6005476670     2.1280836470    10.0000000900
Ni      9.8291973330     4.2561672950    10.0000000900
Ni      2.4572993330     0.0000000000    10.0000000900
Ni      3.6859490000     2.1280836470    10.0000000900
Ni      4.9145986670     4.2561672950    10.0000000900
Ni      4.9145986670     0.0000000000    10.0000000900
Ni      6.1432483330     2.1280836470    10.0000000900
Ni      7.3718980000     4.2561672950    10.0000000900
Ni      1.6381995390     1.4187224170    12.0063763950
Ni      2.8668492300     3.5468061070    12.0063763950
Ni      4.0954988850     5.6748897330    12.0063763950
Ni      4.0954988480     1.4187224170    12.0063763950
Ni      5.3241485390     3.5468061070    12.0063763950
Ni      6.5527981940     5.6748897330    12.0063763950
Ni      6.5527982300     1.4187224170    12.0063763950
Ni      7.7814479220     3.5468061070    12.0063763950
Ni      9.0100975760     5.6748897330    12.0063763950
Ni      2.0477494240     0.7093612090    14.0127530410
Ni      3.2763990780     2.8374448350    14.0127530410
Ni      4.5050487700     4.9655285250    14.0127530410
Ni      4.5050488060     0.7093612090    14.0127530410
Ni      5.7336984610     2.8374448350    14.0127530410
Ni      6.9623481520     4.9655285250    14.0127530410
Ni      6.9623481150     0.7093612090    14.0127530410
Ni      8.1909977700     2.8374448350    14.0127530410
Ni      9.4196474610     4.9655285250    14.0127530410
Ni      0.2219535440    -0.3844348150    16.0346322610
Ni      8.8225203380     1.7436790770    16.0347677870
Ni     10.0511134640     3.8717235960    16.0347600380
Ni      2.6792792770    -0.3844068560    16.0347600380
Ni      3.9079067200     1.7436614180    16.0347555120
Ni      5.1365311080     3.8717690310    16.0346226390
Ni      5.1365164550    -0.3844362570    16.0347677870
Ni      6.3652073280     1.7436393910    16.0346221070
Ni      7.5938385560     3.8717351570    16.0347555120
Cu      2.0723744710     0.6666908500    18.1188401140
Cu      3.3010364020     2.7947772280    18.1188294380
Cu      4.5296848840     4.9228575240    18.1186684400
Cu      4.5296771200     0.6666970110    18.1188367610
Cu      5.7583325920     2.7947772670    18.1186160230
Cu      6.9869807220     4.9228581720    18.1188294380
Cu      6.9869802900     0.6666970300    18.1186522440
Cu      8.2156318920     2.7947839910    18.1188367610
Cu      9.4442885520     4.9228674280    18.1188401140
Cu      2.0477494240     0.7093612090    20.5305373300
Cu      3.2763990780     2.8374448350    20.5305290830
Cu      4.5050487700     4.9655285250    20.5303270790
Cu      4.5050488060     0.7093612090    20.5305312910
Cu      5.7336984610     2.8374448350    20.5302848030
Cu      6.9623481520     4.9655285250    20.5305290830
Cu      6.9623481150     0.7093612090    20.5303102470
Cu      8.1909977700     2.8374448350    20.5305312910
Cu      9.4196474610     4.9655285250    20.5305373300
Cu      0.1996576410    -0.3458171780    22.6496925520
Cu      8.8002014820     1.7822648550    22.6499310210
Cu     10.0288585330     3.9103492740    22.6499306530
Cu      2.6569559250    -0.3458206820    22.6499306530
Cu      3.8856048760     1.7822645930    22.6499270560
Cu      5.1142599260     3.9103438500    22.6496806750
Cu      5.1142596180    -0.3458146710    22.6499310210
Cu      6.3429051830     1.7822678380    22.6496760870
Cu      7.5715581480     3.9103507070    22.6499270560
Cu      2.0389286002     0.7212344542    24.7317200012
Cu      3.2548756189     2.8497128507    24.7219679405
Cu      4.4885487148     4.9935705391    24.7163080313
Cu      4.4922009113     0.7081568569    24.7232726523
Cu      5.7263822630     2.8673572919    24.5996040342
Cu      6.9643616922     4.9944518676    24.7148065471
Cu      6.9630664134     0.7080692890    24.7200100814
Cu      8.2005493462     2.8474920181    24.7198872015
Cu      9.4124856316     4.9785539725    24.7314392829
O       6.2440144292     1.6123272902    28.8183269358
O       5.7179794256     2.9434214027    26.5484458212
O       5.7447922122     2.9626465902    31.2750890120
C       5.7601990671     2.9693150384    28.8759645853
C       6.2460877606     3.7035962202    27.6428598853
C       6.2370179054     3.6621861631    30.1307288943
H       4.6565643092     2.8862041292    28.8562448419
H       7.3364412946     3.7103696636    27.5539171937
H       5.8523350260     4.7200087935    27.5422479322
H       5.8886130095     4.7125010922    30.1482607628
H       7.3444170117     3.6557769645    30.1467418521
H       7.2136154959     1.6728095830    28.8336634729
H       6.0966021762     2.0396589341    26.5450783049
H       6.0931011816     3.4401225827    32.0458339080
86
Step 3 | ATOMIC_POSITIONS (angstrom) | Cartesian Angstrom
Ni      0.0000000000     0.0000000000    10.0000000900
Ni      8.6005476670     2.1280836470    10.0000000900
Ni      9.8291973330     4.2561672950    10.0000000900
Ni      2.4572993330     0.0000000000    10.0000000900
Ni      3.6859490000     2.1280836470    10.0000000900
Ni      4.9145986670     4.2561672950    10.0000000900
Ni      4.9145986670     0.0000000000    10.0000000900
Ni      6.1432483330     2.1280836470    10.0000000900
Ni      7.3718980000     4.2561672950    10.0000000900
Ni      1.6381995390     1.4187224170    12.0063763950
Ni      2.8668492300     3.5468061070    12.0063763950
Ni      4.0954988850     5.6748897330    12.0063763950
Ni      4.0954988480     1.4187224170    12.0063763950
Ni      5.3241485390     3.5468061070    12.0063763950
Ni      6.5527981940     5.6748897330    12.0063763950
Ni      6.5527982300     1.4187224170    12.0063763950
Ni      7.7814479220     3.5468061070    12.0063763950
Ni      9.0100975760     5.6748897330    12.0063763950
Ni      2.0477494240     0.7093612090    14.0127530410
Ni      3.2763990780     2.8374448350    14.0127530410
Ni      4.5050487700     4.9655285250    14.0127530410
Ni      4.5050488060     0.7093612090    14.0127530410
Ni      5.7336984610     2.8374448350    14.0127530410
Ni      6.9623481520     4.9655285250    14.0127530410
Ni      6.9623481150     0.7093612090    14.0127530410
Ni      8.1909977700     2.8374448350    14.0127530410
Ni      9.4196474610     4.9655285250    14.0127530410
Ni      0.2219535440    -0.3844348150    16.0346322610
Ni      8.8225203380     1.7436790770    16.0347677870
Ni     10.0511134640     3.8717235960    16.0347600380
Ni      2.6792792770    -0.3844068560    16.0347600380
Ni      3.9079067200     1.7436614180    16.0347555120
Ni      5.1365311080     3.8717690310    16.0346226390
Ni      5.1365164550    -0.3844362570    16.0347677870
Ni      6.3652073280     1.7436393910    16.0346221070
Ni      7.5938385560     3.8717351570    16.0347555120
Cu      2.0723744710     0.6666908500    18.1188401140
Cu      3.3010364020     2.7947772280    18.1188294380
Cu      4.5296848840     4.9228575240    18.1186684400
Cu      4.5296771200     0.6666970110    18.1188367610
Cu      5.7583325920     2.7947772670    18.1186160230
Cu      6.9869807220     4.9228581720    18.1188294380
Cu      6.9869802900     0.6666970300    18.1186522440
Cu      8.2156318920     2.7947839910    18.1188367610
Cu      9.4442885520     4.9228674280    18.1188401140
Cu      2.0477494240     0.7093612090    20.5305373300
Cu      3.2763990780     2.8374448350    20.5305290830
Cu      4.5050487700     4.9655285250    20.5303270790
Cu      4.5050488060     0.7093612090    20.5305312910
Cu      5.7336984610     2.8374448350    20.5302848030
Cu      6.9623481520     4.9655285250    20.5305290830
Cu      6.9623481150     0.7093612090    20.5303102470
Cu      8.1909977700     2.8374448350    20.5305312910
Cu      9.4196474610     4.9655285250    20.5305373300
Cu      0.1996576410    -0.3458171780    22.6496925520
Cu      8.8002014820     1.7822648550    22.6499310210
Cu     10.0288585330     3.9103492740    22.6499306530
Cu      2.6569559250    -0.3458206820    22.6499306530
Cu      3.8856048760     1.7822645930    22.6499270560
Cu      5.1142599260     3.9103438500    22.6496806750
Cu      5.1142596180    -0.3458146710    22.6499310210
Cu      6.3429051830     1.7822678380    22.6496760870
Cu      7.5715581480     3.9103507070    22.6499270560
Cu      2.0384351415     0.7207658241    24.7356006223
Cu      3.2497557513     2.8491538739    24.7208504444
Cu      4.4850123134     4.9997991789    24.7125731738
Cu      4.4905542863     0.7035934301    24.7223711485
Cu      5.7292182719     2.8763248841    24.5861714625
Cu      6.9687904677     5.0010476890    24.7103462050
Cu      6.9657158119     0.7037853396    24.7173703663
Cu      8.2067533864     2.8465969095    24.7180796285
Cu      9.4125833315     4.9784767810    24.7351632842
O       6.2395491583     1.6109761980    28.8144835250
O       5.6940121090     2.9315098748    26.5589863307
O       5.7415696391     2.9632949481    31.2794310183
C       5.7668096485     2.9682778023    28.8909437925
C       6.2421408957     3.7016273279    27.6516707571
C       6.2375895573     3.6640267259    30.1422878355
H       4.6662815791     2.8882124841    28.8571380888
H       7.3465747399     3.7183168991    27.5599164481
H       5.8513973455     4.7260296966    27.5399889217
H       5.8901544003     4.7155395003    30.1422656274
H       7.3463229626     3.6606016268    30.1406891903
H       7.2173538212     1.6668257874    28.8355545742
H       6.0994924320     2.0253870349    26.5671113984
H       6.0897177413     3.4359233821    32.0495893155
86
Step 4 | ATOMIC_POSITIONS (angstrom) | Cartesian Angstrom
Ni      0.0000000000     0.0000000000    10.0000000900
Ni      8.6005476670     2.1280836470    10.0000000900
Ni      9.8291973330     4.2561672950    10.0000000900
Ni      2.4572993330     0.0000000000    10.0000000900
Ni      3.6859490000     2.1280836470    10.0000000900
Ni      4.9145986670     4.2561672950    10.0000000900
Ni      4.9145986670     0.0000000000    10.0000000900
Ni      6.1432483330     2.1280836470    10.0000000900
Ni      7.3718980000     4.2561672950    10.0000000900
Ni      1.6381995390     1.4187224170    12.0063763950
Ni      2.8668492300     3.5468061070    12.0063763950
Ni      4.0954988850     5.6748897330    12.0063763950
Ni      4.0954988480     1.4187224170    12.0063763950
Ni      5.3241485390     3.5468061070    12.0063763950
Ni      6.5527981940     5.6748897330    12.0063763950
Ni      6.5527982300     1.4187224170    12.0063763950
Ni      7.7814479220     3.5468061070    12.0063763950
Ni      9.0100975760     5.6748897330    12.0063763950
Ni      2.0477494240     0.7093612090    14.0127530410
Ni      3.2763990780     2.8374448350    14.0127530410
Ni      4.5050487700     4.9655285250    14.0127530410
Ni      4.5050488060     0.7093612090    14.0127530410
Ni      5.7336984610     2.8374448350    14.0127530410
Ni      6.9623481520     4.9655285250    14.0127530410
Ni      6.9623481150     0.7093612090    14.0127530410
Ni      8.1909977700     2.8374448350    14.0127530410
Ni      9.4196474610     4.9655285250    14.0127530410
Ni      0.2219535440    -0.3844348150    16.0346322610
Ni      8.8225203380     1.7436790770    16.0347677870
Ni     10.0511134640     3.8717235960    16.0347600380
Ni      2.6792792770    -0.3844068560    16.0347600380
Ni      3.9079067200     1.7436614180    16.0347555120
Ni      5.1365311080     3.8717690310    16.0346226390
Ni      5.1365164550    -0.3844362570    16.0347677870
Ni      6.3652073280     1.7436393910    16.0346221070
Ni      7.5938385560     3.8717351570    16.0347555120
Cu      2.0723744710     0.6666908500    18.1188401140
Cu      3.3010364020     2.7947772280    18.1188294380
Cu      4.5296848840     4.9228575240    18.1186684400
Cu      4.5296771200     0.6666970110    18.1188367610
Cu      5.7583325920     2.7947772670    18.1186160230
Cu      6.9869807220     4.9228581720    18.1188294380
Cu      6.9869802900     0.6666970300    18.1186522440
Cu      8.2156318920     2.7947839910    18.1188367610
Cu      9.4442885520     4.9228674280    18.1188401140
Cu      2.0477494240     0.7093612090    20.5305373300
Cu      3.2763990780     2.8374448350    20.5305290830
Cu      4.5050487700     4.9655285250    20.5303270790
Cu      4.5050488060     0.7093612090    20.5305312910
Cu      5.7336984610     2.8374448350    20.5302848030
Cu      6.9623481520     4.9655285250    20.5305290830
Cu      6.9623481150     0.7093612090    20.5303102470
Cu      8.1909977700     2.8374448350    20.5305312910
Cu      9.4196474610     4.9655285250    20.5305373300
Cu      0.1996576410    -0.3458171780    22.6496925520
Cu      8.8002014820     1.7822648550    22.6499310210
Cu     10.0288585330     3.9103492740    22.6499306530
Cu      2.6569559250    -0.3458206820    22.6499306530
Cu      3.8856048760     1.7822645930    22.6499270560
Cu      5.1142599260     3.9103438500    22.6496806750
Cu      5.1142596180    -0.3458146710    22.6499310210
Cu      6.3429051830     1.7822678380    22.6496760870
Cu      7.5715581480     3.9103507070    22.6499270560
Cu      2.0380955453     0.7203095447    24.7406246878
Cu      3.2457466500     2.8482964476    24.7196063119
Cu      4.4819114117     5.0056139461    24.7085868081
Cu      4.4897684629     0.7006845532    24.7210764815
Cu      5.7340176001     2.8856662412    24.5873574663
Cu      6.9736836271     5.0074570652    24.7057717437
Cu      6.9674456041     0.7013803633    24.7142121802
Cu      8.2120899220     2.8459908330    24.7165753798
Cu      9.4128358720     4.9783093526    24.7399741649
O       6.2436997069     1.6110225406    28.8133948990
O       5.6748903829     2.9125244591    26.5746920694
O       5.7383049063     2.9652752482    31.2849111157
C       5.7737927970     2.9681505142    28.9017371102
C       6.2374989589     3.7004941267    27.6503782637
C       6.2396667397     3.6664562619    30.1533973495
H       4.6764421128     2.8910138113    28.8609176106
H       7.3494840216     3.7270364056    27.5667424196
H       5.8520538865     4.7261495217    27.5390657545
H       5.8925764885     4.7168718706    30.1361144157
H       7.3482633608     3.6670735627    30.1365646337
H       7.2150304405     1.6568984604    28.8381260552
H       6.0971121227     2.0166231624    26.5955409847
H       6.0857984205     3.4311091894    32.0595668313
86
Step 5 | ATOMIC_POSITIONS (angstrom) | Cartesian Angstrom
Ni      0.0000000000     0.0000000000    10.0000000900
Ni      8.6005476670     2.1280836470    10.0000000900
Ni      9.8291973330     4.2561672950    10.0000000900
Ni      2.4572993330     0.0000000000    10.0000000900
Ni      3.6859490000     2.1280836470    10.0000000900
Ni      4.9145986670     4.2561672950    10.0000000900
Ni      4.9145986670     0.0000000000    10.0000000900
Ni      6.1432483330     2.1280836470    10.0000000900
Ni      7.3718980000     4.2561672950    10.0000000900
Ni      1.6381995390     1.4187224170    12.0063763950
Ni      2.8668492300     3.5468061070    12.0063763950
Ni      4.0954988850     5.6748897330    12.0063763950
Ni      4.0954988480     1.4187224170    12.0063763950
Ni      5.3241485390     3.5468061070    12.0063763950
Ni      6.5527981940     5.6748897330    12.0063763950
Ni      6.5527982300     1.4187224170    12.0063763950
Ni      7.7814479220     3.5468061070    12.0063763950
Ni      9.0100975760     5.6748897330    12.0063763950
Ni      2.0477494240     0.7093612090    14.0127530410
Ni      3.2763990780     2.8374448350    14.0127530410
Ni      4.5050487700     4.9655285250    14.0127530410
Ni      4.5050488060     0.7093612090    14.0127530410
Ni      5.7336984610     2.8374448350    14.0127530410
Ni      6.9623481520     4.9655285250    14.0127530410
Ni      6.9623481150     0.7093612090    14.0127530410
Ni      8.1909977700     2.8374448350    14.0127530410
Ni      9.4196474610     4.9655285250    14.0127530410
Ni      0.2219535440    -0.3844348150    16.0346322610
Ni      8.8225203380     1.7436790770    16.0347677870
Ni     10.0511134640     3.8717235960    16.0347600380
Ni      2.6792792770    -0.3844068560    16.0347600380
Ni      3.9079067200     1.7436614180    16.0347555120
Ni      5.1365311080     3.8717690310    16.0346226390
Ni      5.1365164550    -0.3844362570    16.0347677870
Ni      6.3652073280     1.7436393910    16.0346221070
Ni      7.5938385560     3.8717351570    16.0347555120
Cu      2.0723744710     0.6666908500    18.1188401140
Cu      3.3010364020     2.7947772280    18.1188294380
Cu      4.5296848840     4.9228575240    18.1186684400
Cu      4.5296771200     0.6666970110    18.1188367610
Cu      5.7583325920     2.7947772670    18.1186160230
Cu      6.9869807220     4.9228581720    18.1188294380
Cu      6.9869802900     0.6666970300    18.1186522440
Cu      8.2156318920     2.7947839910    18.1188367610
Cu      9.4442885520     4.9228674280    18.1188401140
Cu      2.0477494240     0.7093612090    20.5305373300
Cu      3.2763990780     2.8374448350    20.5305290830
Cu      4.5050487700     4.9655285250    20.5303270790
Cu      4.5050488060     0.7093612090    20.5305312910
Cu      5.7336984610     2.8374448350    20.5302848030
Cu      6.9623481520     4.9655285250    20.5305290830
Cu      6.9623481150     0.7093612090    20.5303102470
Cu      8.1909977700     2.8374448350    20.5305312910
Cu      9.4196474610     4.9655285250    20.5305373300
Cu      0.1996576410    -0.3458171780    22.6496925520
Cu      8.8002014820     1.7822648550    22.6499310210
Cu     10.0288585330     3.9103492740    22.6499306530
Cu      2.6569559250    -0.3458206820    22.6499306530
Cu      3.8856048760     1.7822645930    22.6499270560
Cu      5.1142599260     3.9103438500    22.6496806750
Cu      5.1142596180    -0.3458146710    22.6499310210
Cu      6.3429051830     1.7822678380    22.6496760870
Cu      7.5715581480     3.9103507070    22.6499270560
Cu      2.0379006389     0.7197588273    24.7494778115
Cu      3.2424378554     2.8467756678    24.7176123999
Cu      4.4785497535     5.0127450567    24.7026203922
Cu      4.4902960984     0.6997352499    24.7186140536
Cu      5.7431566721     2.8993716243    24.6078807217
Cu      6.9812724184     5.0161430639    24.6991600787
Cu      6.9684011888     0.7011314755    24.7088814282
Cu      8.2182338778     2.8457413138    24.7148533102
Cu      9.4136014016     4.9780249454    24.7484626463
O       6.2427241899     1.6120054222    28.8153914302
O       5.6488586389     2.8845872310    26.5992993101
O       5.7347203976     2.9715938000    31.2968456715
C       5.7866853248     2.9713340151    28.9115304987
C       6.2330342503     3.6946977341    27.6478931269
C       6.2452495199     3.6689242028    30.1648075710
H       4.6912056794     2.8951985939    28.8710551112
H       7.3438264729     3.7403719121    27.5754119627
H       5.8518026327     4.7223177334    27.5370676809
H       5.8966098465     4.7184043401    30.1277866698
H       7.3519729978     3.6788894387    30.1349344577
H       7.2211208472     1.6383861636    28.8436554654
H       6.0899929433     2.0003165415    26.6480241689
H       6.0783533005     3.4219716579    32.0809572656
86
Step 6 | ATOMIC_POSITIONS (angstrom) | Cartesian Angstrom
Ni      0.0000000000     0.0000000000    10.0000000900
Ni      8.6005476670     2.1280836470    10.0000000900
Ni      9.8291973330     4.2561672950    10.0000000900
Ni      2.4572993330     0.0000000000    10.0000000900
Ni      3.6859490000     2.1280836470    10.0000000900
Ni      4.9145986670     4.2561672950    10.0000000900
Ni      4.9145986670     0.0000000000    10.0000000900
Ni      6.1432483330     2.1280836470    10.0000000900
Ni      7.3718980000     4.2561672950    10.0000000900
Ni      1.6381995390     1.4187224170    12.0063763950
Ni      2.8668492300     3.5468061070    12.0063763950
Ni      4.0954988850     5.6748897330    12.0063763950
Ni      4.0954988480     1.4187224170    12.0063763950
Ni      5.3241485390     3.5468061070    12.0063763950
Ni      6.5527981940     5.6748897330    12.0063763950
Ni      6.5527982300     1.4187224170    12.0063763950
Ni      7.7814479220     3.5468061070    12.0063763950
Ni      9.0100975760     5.6748897330    12.0063763950
Ni      2.0477494240     0.7093612090    14.0127530410
Ni      3.2763990780     2.8374448350    14.0127530410
Ni      4.5050487700     4.9655285250    14.0127530410
Ni      4.5050488060     0.7093612090    14.0127530410
Ni      5.7336984610     2.8374448350    14.0127530410
Ni      6.9623481520     4.9655285250    14.0127530410
Ni      6.9623481150     0.7093612090    14.0127530410
Ni      8.1909977700     2.8374448350    14.0127530410
Ni      9.4196474610     4.9655285250    14.0127530410
Ni      0.2219535440    -0.3844348150    16.0346322610
Ni      8.8225203380     1.7436790770    16.0347677870
Ni     10.0511134640     3.8717235960    16.0347600380
Ni      2.6792792770    -0.3844068560    16.0347600380
Ni      3.9079067200     1.7436614180    16.0347555120
Ni      5.1365311080     3.8717690310    16.0346226390
Ni      5.1365164550    -0.3844362570    16.0347677870
Ni      6.3652073280     1.7436393910    16.0346221070
Ni      7.5938385560     3.8717351570    16.0347555120
Cu      2.0723744710     0.6666908500    18.1188401140
Cu      3.3010364020     2.7947772280    18.1188294380
Cu      4.5296848840     4.9228575240    18.1186684400
Cu      4.5296771200     0.6666970110    18.1188367610
Cu      5.7583325920     2.7947772670    18.1186160230
Cu      6.9869807220     4.9228581720    18.1188294380
Cu      6.9869802900     0.6666970300    18.1186522440
Cu      8.2156318920     2.7947839910    18.1188367610
Cu      9.4442885520     4.9228674280    18.1188401140
Cu      2.0477494240     0.7093612090    20.5305373300
Cu      3.2763990780     2.8374448350    20.5305290830
Cu      4.5050487700     4.9655285250    20.5303270790
Cu      4.5050488060     0.7093612090    20.5305312910
Cu      5.7336984610     2.8374448350    20.5302848030
Cu      6.9623481520     4.9655285250    20.5305290830
Cu      6.9623481150     0.7093612090    20.5303102470
Cu      8.1909977700     2.8374448350    20.5305312910
Cu      9.4196474610     4.9655285250    20.5305373300
Cu      0.1996576410    -0.3458171780    22.6496925520
Cu      8.8002014820     1.7822648550    22.6499310210
Cu     10.0288585330     3.9103492740    22.6499306530
Cu      2.6569559250    -0.3458206820    22.6499306530
Cu      3.8856048760     1.7822645930    22.6499270560
Cu      5.1142599260     3.9103438500    22.6496806750
Cu      5.1142596180    -0.3458146710    22.6499310210
Cu      6.3429051830     1.7822678380    22.6496760870
Cu      7.5715581480     3.9103507070    22.6499270560
Cu      2.0382281708     0.7196619614    24.7579956972
Cu      3.2437357208     2.8455612123    24.7157561352
Cu      4.4779018293     5.0160262761    24.6981438919
Cu      4.4931331167     0.7037086310    24.7158972737
Cu      5.7521779726     2.9094296511    24.6420553865
Cu      6.9874728917     5.0217415918    24.6946456837
Cu      6.9672103474     0.7052435486    24.7040108287
Cu      8.2208004266     2.8465678951    24.7142521310
Cu      9.4150013261     4.9780262721    24.7566672001
O       6.2512324034     1.6120523865    28.8217064215
O       5.6339115329     2.8632798362    26.6213436828
O       5.7332590760     2.9796794026    31.3056604062
C       5.7958468422     2.9754495366    28.9167235721
C       6.2251371798     3.6900256762    27.6478859205
C       6.2515107365     3.6726870921    30.1712644465
H       4.7028684754     2.8994854759    28.8848574810
H       7.3336331783     3.7498924556    27.5778123405
H       5.8492228034     4.7130642724    27.5341636576
H       5.9007464385     4.7183702802    30.1225246722
H       7.3577523815     3.6905955827    30.1405196639
H       7.2217499653     1.6181596120    28.8501813136
H       6.0783454503     1.9809481929    26.7031519619
H       6.0717107461     3.4140714501    32.1064168966
86
Step 7 | ATOMIC_POSITIONS (angstrom) | Cartesian Angstrom
Ni      0.0000000000     0.0000000000    10.0000000900
Ni      8.6005476670     2.1280836470    10.0000000900
Ni      9.8291973330     4.2561672950    10.0000000900
Ni      2.4572993330     0.0000000000    10.0000000900
Ni      3.6859490000     2.1280836470    10.0000000900
Ni      4.9145986670     4.2561672950    10.0000000900
Ni      4.9145986670     0.0000000000    10.0000000900
Ni      6.1432483330     2.1280836470    10.0000000900
Ni      7.3718980000     4.2561672950    10.0000000900
Ni      1.6381995390     1.4187224170    12.0063763950
Ni      2.8668492300     3.5468061070    12.0063763950
Ni      4.0954988850     5.6748897330    12.0063763950
Ni      4.0954988480     1.4187224170    12.0063763950
Ni      5.3241485390     3.5468061070    12.0063763950
Ni      6.5527981940     5.6748897330    12.0063763950
Ni      6.5527982300     1.4187224170    12.0063763950
Ni      7.7814479220     3.5468061070    12.0063763950
Ni      9.0100975760     5.6748897330    12.0063763950
Ni      2.0477494240     0.7093612090    14.0127530410
Ni      3.2763990780     2.8374448350    14.0127530410
Ni      4.5050487700     4.9655285250    14.0127530410