86
Step 1 | ATOMIC_POSITIONS (angstrom) | Cartesian Angstrom
Ni      1.2286390390     0.7093535490     9.0128649340
Ni      0.0000019230    -0.0000011100    11.0189462060
Ni      2.4642244780     1.4227189880    13.0272881070
Ni      1.2387561530     0.7151941710    15.0209755470
Ni      2.4572760100     2.8374169220     9.0128649340
Ni      1.2286511800     2.1280835430    11.0189462060
Ni      3.6924327390     3.5506983320    13.0276201530
Ni      2.4677586240     2.8437215940    15.0204940710
Ni      3.6859498400     4.9655441370     9.0128649340
Ni      2.4573004370     4.2561681970    11.0189462060
Ni      4.9211289880     5.6792703610    13.0277505390
Ni      3.6967676190     4.9714536840    15.0198461330
Ni      3.6859144660     0.7093535490     9.0128649340
Ni      2.4573019230    -0.0000011100    11.0189462060
Ni      4.9212127460     1.4223897070    13.0276202510
Ni      3.6966160050     0.7152787130    15.0204940950
Ni      4.9145514370     2.8374169220     9.0128649340
Ni      3.6859511800     2.1280835430    11.0189462060
Ni      6.1494102800     3.5503628350    13.0279816350
Ni      4.9255624130     2.8437736980    15.0200052340
Ni      6.1432252670     4.9655441370     9.0128649340
Ni      4.9146004370     4.2561681970    11.0189462060
Ni      7.3781196110     5.6789367880    13.0280595390
Ni      6.1545735900     4.9715622540    15.0193609870
Ni      6.1432636120     0.7093535490     9.0128649340
Ni      4.9146019230    -0.0000011100    11.0189462060
Ni      7.3789582730     1.4221866730    13.0277506190
Ni      6.1537906650     0.7157666040    15.0198461880
Ni      7.3719005830     2.8374169220     9.0128649340
Ni      6.1432511800     2.1280835430    11.0189462060
Ni      8.6071640600     3.5501702390    13.0280595260
Ni      7.3827869000     2.8442350780    15.0193609080
Ni      8.6005744130     4.9655441370     9.0128649340
Ni      7.3719004370     4.2561681970    11.0189462060
Ni      9.8358884290     5.6787529240    13.0281948130
Ni      8.6117605830     4.9720020900    15.0186578060
Cu     -0.0016625323    -0.0007340317    23.3329756725
Cu      1.2201476040     2.1275151515    23.3290549224
Cu      2.4511395963     4.2625719756    23.3287222969
Cu      2.4526740964    -0.0081021677    23.3289763851
Cu      0.0125040740     0.0072168940    17.0980434560
Cu      2.4665281027     1.4242475122    19.1888638273
Cu      1.2327824943     0.7118670527    21.2810472225
Cu      3.6826461052     2.1372389588    23.2830156784
Cu      1.2411159100     2.1352155180    17.0978014380
Cu      3.6952573962     3.5515475014    19.1891012291
Cu      2.4612536451     2.8392626310    21.2814970531
Cu      4.9155259110     4.2618999229    23.3271146606
Cu      4.9177032779    -0.0099931791    23.3278151797
Cu      2.4697108070     0.0072275920    17.0978015350
Cu      4.9235494638     1.4244706181    19.1893842831
Cu      3.6893831364     0.7124469211    21.2813289502
Cu      6.1482775269     2.1256043907    23.3278267469
Cu      3.6983605790     2.1352480720    17.0975611220
Cu      6.1524988503     3.5520293060    19.1902002535
Cu      4.9173577139     2.8391261352    21.2804712144
Cu      7.3687031843     4.2547524839    23.3345786841
Cu      2.4699760600     4.2628774400    17.0985397210
Cu      4.9234404854     5.6798604915    19.1899739069
Cu      3.6891429927     4.9665684798    21.2805448580
Cu      4.9270970170     4.2630879460    17.0982970610
Cu      7.3807313778     5.6799262434    19.1902912617
Cu      6.1460076966     4.9668633162    21.2801995670
Cu      4.9267502260     0.0076215920    17.0985396480
Cu      7.3806517365     1.4240122022    19.1898454321
Cu      6.1459964948     0.7116514943    21.2802296680
Cu      6.1554922450     2.1354459510    17.0982970840
Cu      8.6093758380     3.5517326468    19.1898129383
Cu      7.3747819115     2.8392079099    21.2806688866
Cu      7.3842970870     4.2633253690    17.0989758590
Cu      9.8377643685     5.6798496920    19.1899997307
Cu      8.6033438459     4.9666080886    21.2797158027
O       4.2150562832     0.7628253983    27.5084398307
O       3.7218199821     2.1168308668    25.1849500484
O       3.7275117610     2.1093352066    29.9558533032
C       3.7368281110     2.1109340441    27.5432574990
C       4.2050331797     2.8368245947    26.2935297843
C       4.2097782902     2.8069924013    28.8062990476
H       2.6222007038     2.0279090204    27.5405600624
H       5.3081048374     2.8464088117    26.2327621769
H       3.8325355761     3.8514885145    26.2303789010
H       3.8657247356     3.8462955553    28.8389714668
H       5.3188933961     2.7944474550    28.8389866917
H       5.1955887451     0.8208568949    27.5165900735
H       4.0728772340     1.1908472267    25.2058796979
H       4.0717032399     2.5858812340    30.7281927647
86
Step 2 | ATOMIC_POSITIONS (angstrom) | Cartesian Angstrom
Ni      1.2286390390     0.7093535490     9.0128649340
Ni      0.0000019230    -0.0000011100    11.0189462060
Ni      2.4642244780     1.4227189880    13.0272881070
Ni      1.2387561530     0.7151941710    15.0209755470
Ni      2.4572760100     2.8374169220     9.0128649340
Ni      1.2286511800     2.1280835430    11.0189462060
Ni      3.6924327390     3.5506983320    13.0276201530
Ni      2.4677586240     2.8437215940    15.0204940710
Ni      3.6859498400     4.9655441370     9.0128649340
Ni      2.4573004370     4.2561681970    11.0189462060
Ni      4.9211289880     5.6792703610    13.0277505390
Ni      3.6967676190     4.9714536840    15.0198461330
Ni      3.6859144660     0.7093535490     9.0128649340
Ni      2.4573019230    -0.0000011100    11.0189462060
Ni      4.9212127460     1.4223897070    13.0276202510
Ni      3.6966160050     0.7152787130    15.0204940950
Ni      4.9145514370     2.8374169220     9.0128649340
Ni      3.6859511800     2.1280835430    11.0189462060
Ni      6.1494102800     3.5503628350    13.0279816350
Ni      4.9255624130     2.8437736980    15.0200052340
Ni      6.1432252670     4.9655441370     9.0128649340
Ni      4.9146004370     4.2561681970    11.0189462060
Ni      7.3781196110     5.6789367880    13.0280595390
Ni      6.1545735900     4.9715622540    15.0193609870
Ni      6.1432636120     0.7093535490     9.0128649340
Ni      4.9146019230    -0.0000011100    11.0189462060
Ni      7.3789582730     1.4221866730    13.0277506190
Ni      6.1537906650     0.7157666040    15.0198461880
Ni      7.3719005830     2.8374169220     9.0128649340
Ni      6.1432511800     2.1280835430    11.0189462060
Ni      8.6071640600     3.5501702390    13.0280595260
Ni      7.3827869000     2.8442350780    15.0193609080
Ni      8.6005744130     4.9655441370     9.0128649340
Ni      7.3719004370     4.2561681970    11.0189462060
Ni      9.8358884290     5.6787529240    13.0281948130
Ni      8.6117605830     4.9720020900    15.0186578060
Cu     -0.0029534146    -0.0011446495    23.3360105275
Cu      1.2110923911     2.1273709383    23.3265282867
Cu      2.4458720055     4.2728523848    23.3253579643
Cu      2.4487946718    -0.0167715168    23.3262811503
Cu      0.0125040740     0.0072168940    17.0980434560
Cu      2.4664526146     1.4245094617    19.1876788067
Cu      1.2333151731     0.7123070827    21.2798061319
Cu      3.6829652804     2.1513786639    23.2397297639
Cu      1.2411159100     2.1352155180    17.0978014380
Cu      3.6949736369     3.5508578170    19.1876776100
Cu      2.4602062931     2.8400761333    21.2785249480
Cu      4.9213235589     4.2724334919    23.3216451460
Cu      4.9240748584    -0.0203063532    23.3231934605
Cu      2.4697108070     0.0072275920    17.0978015350
Cu      4.9230780666     1.4246760564    19.1884152290
Cu      3.6894598420     0.7123194596    21.2787059728
Cu      6.1587548538     2.1244945167    23.3236004632
Cu      3.6983605790     2.1352480720    17.0975611220
Cu      6.1522365248     3.5516979195    19.1900282629
Cu      4.9187301876     2.8399626365    21.2762465474
Cu      7.3691049211     4.2555725862    23.3403389358
Cu      2.4699760600     4.2628774400    17.0985397210
Cu      4.9230941428     5.6802210840    19.1907923443
Cu      3.6890797896     4.9657468099    21.2788374550
Cu      4.9270970170     4.2630879460    17.0982970610
Cu      7.3805300274     5.6800621280    19.1911130492
Cu      6.1464494783     4.9662683859    21.2778841248
Cu      4.9267502260     0.0076215920    17.0985396480
Cu      7.3808475950     1.4237287398    19.1904590155
Cu      6.1455529866     0.7121100346    21.2780857519
Cu      6.1554922450     2.1354459510    17.0982970840
Cu      8.6094652351     3.5511730915    19.1898314714
Cu      7.3749425557     2.8399151772    21.2792056577
Cu      7.3842970870     4.2633253690    17.0989758590
Cu      9.8380619707     5.6800259961    19.1911422279
Cu      8.6034218670     4.9658519179    21.2769089745
O       4.2213108206     0.7522980857    27.5003659184
O       3.6966481517     2.0900148157    25.2146294516
O       3.7190490933     2.1043450054    29.9598547750
C       3.7369526420     2.1104685436    27.5585990413
C       4.2195841657     2.8432013567    26.3172498303
C       4.2143003233     2.8064381443    28.8177167336
H       2.6356923162     2.0296231159    27.5407919421
H       5.3129243551     2.8549078153    26.2388438254
H       3.8275856616     3.8649434450    26.2239958736
H       3.8651090557     3.8587875425    28.8304546712
H       5.3222110863     2.8004668538    28.8281419768
H       5.1890649185     0.8149192056    27.5184363840
H       4.0716077698     1.1802311173    25.2235506696
H       4.0688770371     2.5825316678    30.7305594066
86
Step 3 | ATOMIC_POSITIONS (angstrom) | Cartesian Angstrom
Ni      1.2286390390     0.7093535490     9.0128649340
Ni      0.0000019230    -0.0000011100    11.0189462060
Ni      2.4642244780     1.4227189880    13.0272881070
Ni      1.2387561530     0.7151941710    15.0209755470
Ni      2.4572760100     2.8374169220     9.0128649340
Ni      1.2286511800     2.1280835430    11.0189462060
Ni      3.6924327390     3.5506983320    13.0276201530
Ni      2.4677586240     2.8437215940    15.0204940710
Ni      3.6859498400     4.9655441370     9.0128649340
Ni      2.4573004370     4.2561681970    11.0189462060
Ni      4.9211289880     5.6792703610    13.0277505390
Ni      3.6967676190     4.9714536840    15.0198461330
Ni      3.6859144660     0.7093535490     9.0128649340
Ni      2.4573019230    -0.0000011100    11.0189462060
Ni      4.9212127460     1.4223897070    13.0276202510
Ni      3.6966160050     0.7152787130    15.0204940950
Ni      4.9145514370     2.8374169220     9.0128649340
Ni      3.6859511800     2.1280835430    11.0189462060
Ni      6.1494102800     3.5503628350    13.0279816350
Ni      4.9255624130     2.8437736980    15.0200052340
Ni      6.1432252670     4.9655441370     9.0128649340
Ni      4.9146004370     4.2561681970    11.0189462060
Ni      7.3781196110     5.6789367880    13.0280595390
Ni      6.1545735900     4.9715622540    15.0193609870
Ni      6.1432636120     0.7093535490     9.0128649340
Ni      4.9146019230    -0.0000011100    11.0189462060
Ni      7.3789582730     1.4221866730    13.0277506190
Ni      6.1537906650     0.7157666040    15.0198461880
Ni      7.3719005830     2.8374169220     9.0128649340
Ni      6.1432511800     2.1280835430    11.0189462060
Ni      8.6071640600     3.5501702390    13.0280595260
Ni      7.3827869000     2.8442350780    15.0193609080
Ni      8.6005744130     4.9655441370     9.0128649340
Ni      7.3719004370     4.2561681970    11.0189462060
Ni      9.8358884290     5.6787529240    13.0281948130
Ni      8.6117605830     4.9720020900    15.0186578060
Cu     -0.0036406886    -0.0013000447    23.3384034143
Cu      1.2062632031     2.1272910575    23.3244950211
Cu      2.4426953928     4.2794181313    23.3228237090
Cu      2.4473658194    -0.0207457641    23.3237579805
Cu      0.0125040740     0.0072168940    17.0980434560
Cu      2.4663469037     1.4245975978    19.1863351112
Cu      1.2336218085     0.7124905218    21.2789921838
Cu      3.6845504396     2.1601091332    23.2267684008
Cu      1.2411159100     2.1352155180    17.0978014380
Cu      3.6947073619     3.5505015744    19.1860737907
Cu      2.4575418524     2.8416729765    21.2732678324
Cu      4.9251748929     4.2791675222    23.3175380379
Cu      4.9273952954    -0.0251996817    23.3190546777
Cu      2.4697108070     0.0072275920    17.0978015350
Cu      4.9227574971     1.4246857474    19.1871665537
Cu      3.6895276627     0.7105442232    21.2746833707
Cu      6.1643344946     2.1238002874    23.3204545037
Cu      3.6983605790     2.1352480720    17.0975611220
Cu      6.1521091447     3.5515165678    19.1894570437
Cu      4.9215222780     2.8414971609    21.2701678807
Cu      7.3694362562     4.2560583721    23.3451680701
Cu      2.4699760600     4.2628774400    17.0985397210
Cu      4.9228478560     5.6804162793    19.1911264615
Cu      3.6890360810     4.9654546129    21.2772387073
Cu      4.9270970170     4.2630879460    17.0982970610
Cu      7.3803767677     5.6801037314    19.1913095250
Cu      6.1473423517     4.9658958067    21.2754299105
Cu      4.9267502260     0.0076215920    17.0985396480
Cu      7.3809415594     1.4235413280    19.1906361467
Cu      6.1454071936     0.7123103534    21.2762349876
Cu      6.1554922450     2.1354459510    17.0982970840
Cu      8.6094362557     3.5508421418    19.1893969041
Cu      7.3751937745     2.8408104143    21.2775411344
Cu      7.3842970870     4.2633253690    17.0989758590
Cu      9.8382174120     5.6801010863    19.1916594565
Cu      8.6030089701     4.9651663882    21.2740152347
O       4.2147299031     0.7509880032    27.4957972580
O       3.6770142009     2.0769774370    25.2257476341
O       3.7165620252     2.1062906960    29.9641302475
C       3.7453649473     2.1095897711    27.5707828149
C       4.2155136334     2.8440144626    26.3258895981
C       4.2139095376     2.8080455398    28.8257152030
H       2.6443349522     2.0309949704    27.5419204048
H       5.3212319417     2.8627481542    26.2440218626
H       3.8268740438     3.8684150660    26.2205331103
H       3.8670393504     3.8612045953    28.8242789963
H       5.3241869681     2.8056476226    28.8220959377
H       5.1945748380     0.8084907719    27.5206400017
H       4.0715006931     1.1697805999    25.2415428973
H       4.0647347635     2.5773247982    30.7341798579
86
Step 4 | ATOMIC_POSITIONS (angstrom) | Cartesian Angstrom
Ni      1.2286390390     0.7093535490     9.0128649340
Ni      0.0000019230    -0.0000011100    11.0189462060
Ni      2.4642244780     1.4227189880    13.0272881070
Ni      1.2387561530     0.7151941710    15.0209755470
Ni      2.4572760100     2.8374169220     9.0128649340
Ni      1.2286511800     2.1280835430    11.0189462060
Ni      3.6924327390     3.5506983320    13.0276201530
Ni      2.4677586240     2.8437215940    15.0204940710
Ni      3.6859498400     4.9655441370     9.0128649340
Ni      2.4573004370     4.2561681970    11.0189462060
Ni      4.9211289880     5.6792703610    13.0277505390
Ni      3.6967676190     4.9714536840    15.0198461330
Ni      3.6859144660     0.7093535490     9.0128649340
Ni      2.4573019230    -0.0000011100    11.0189462060
Ni      4.9212127460     1.4223897070    13.0276202510
Ni      3.6966160050     0.7152787130    15.0204940950
Ni      4.9145514370     2.8374169220     9.0128649340
Ni      3.6859511800     2.1280835430    11.0189462060
Ni      6.1494102800     3.5503628350    13.0279816350
Ni      4.9255624130     2.8437736980    15.0200052340
Ni      6.1432252670     4.9655441370     9.0128649340
Ni      4.9146004370     4.2561681970    11.0189462060
Ni      7.3781196110     5.6789367880    13.0280595390
Ni      6.1545735900     4.9715622540    15.0193609870
Ni      6.1432636120     0.7093535490     9.0128649340
Ni      4.9146019230    -0.0000011100    11.0189462060
Ni      7.3789582730     1.4221866730    13.0277506190
Ni      6.1537906650     0.7157666040    15.0198461880
Ni      7.3719005830     2.8374169220     9.0128649340
Ni      6.1432511800     2.1280835430    11.0189462060
Ni      8.6071640600     3.5501702390    13.0280595260
Ni      7.3827869000     2.8442350780    15.0193609080
Ni      8.6005744130     4.9655441370     9.0128649340
Ni      7.3719004370     4.2561681970    11.0189462060
Ni      9.8358884290     5.6787529240    13.0281948130
Ni      8.6117605830     4.9720020900    15.0186578060
Cu     -0.0039761992    -0.0012239376    23.3409026260
Cu      1.2036434123     2.1273727241    23.3220093777
Cu      2.4404460769     4.2845271627    23.3199575893
Cu      2.4475140663    -0.0220536847    23.3204720285
Cu      0.0125040740     0.0072168940    17.0980434560
Cu      2.4661604169     1.4245299707    19.1844602399
Cu      1.2338462619     0.7125498439    21.2782876090
Cu      3.6870036804     2.1673005760    23.2253624536
Cu      1.2411159100     2.1352155180    17.0978014380
Cu      3.6943991714     3.5503507116    19.1838279764
Cu      2.4541867130     2.8436363704    21.2661715051
Cu      4.9284380318     4.2845454961    23.3131480395
Cu      4.9291173111    -0.0270904768    23.3140994778
Cu      2.4697108070     0.0072275920    17.0978015350
Cu      4.9225017475     1.4245166044    19.1852901665
Cu      3.6896016025     0.7083756897    21.2695480433
Cu      6.1675749066     2.1233968880    23.3170891298
Cu      3.6983605790     2.1352480720    17.0975611220
Cu      6.1521441702     3.5514532090    19.1882096277
Cu      4.9249842055     2.8433853735    21.2622372478
Cu      7.3698316184     4.2564462076    23.3504411336
Cu      2.4699760600     4.2628774400    17.0985397210
Cu      4.9226061840     5.6805491053    19.1911385021
Cu      3.6890091828     4.9654232759    21.2753644544
Cu      4.9270970170     4.2630879460    17.0982970610
Cu      7.3802208480     5.6800166405    19.1908312073
Cu      6.1487395640     4.9656627635    21.2723567594
Cu      4.9267502260     0.0076215920    17.0985396480
Cu      7.3809821057     1.4233598289    19.1905069128
Cu      6.1454644097     0.7123940578    21.2741374401
Cu      6.1554922450     2.1354459510    17.0982970840
Cu      8.6092030337     3.5506562957    19.1882442455
Cu      7.3755510633     2.8419733407    21.2754179898
Cu      7.3842970870     4.2633253690    17.0989758590
Cu      9.8383089627     5.6801311579    19.1917617032
Cu      8.6021913920     4.9644550666    21.2704629841
O       4.2196539167     0.7523584971    27.4939510721
O       3.6609828980     2.0647916017    25.2365473448
O       3.7141788278     2.1091710761    29.9661946954
C       3.7517025689     2.1102641378    27.5785315641
C       4.2118335504     2.8427968412    26.3258129695
C       4.2154943004     2.8101190016    28.8327103653
H       2.6527433456     2.0329230117    27.5453187138
H       5.3229741010     2.8709860844    26.2491108423
H       3.8270001072     3.8669698853    26.2181313073
H       3.8697609883     3.8606872062    28.8183516622
H       5.3252938393     2.8118031964    28.8186896614
H       5.1916646218     0.7983624432    27.5232149539
H       4.0687395769     1.1615204843    25.2635026841
H       4.0610451550     2.5728117360    30.7442467801
86
Step 5 | ATOMIC_POSITIONS (angstrom) | Cartesian Angstrom
Ni      1.2286390390     0.7093535490     9.0128649340
Ni      0.0000019230    -0.0000011100    11.0189462060
Ni      2.4642244780     1.4227189880    13.0272881070
Ni      1.2387561530     0.7151941710    15.0209755470
Ni      2.4572760100     2.8374169220     9.0128649340
Ni      1.2286511800     2.1280835430    11.0189462060
Ni      3.6924327390     3.5506983320    13.0276201530
Ni      2.4677586240     2.8437215940    15.0204940710
Ni      3.6859498400     4.9655441370     9.0128649340
Ni      2.4573004370     4.2561681970    11.0189462060
Ni      4.9211289880     5.6792703610    13.0277505390
Ni      3.6967676190     4.9714536840    15.0198461330
Ni      3.6859144660     0.7093535490     9.0128649340
Ni      2.4573019230    -0.0000011100    11.0189462060
Ni      4.9212127460     1.4223897070    13.0276202510
Ni      3.6966160050     0.7152787130    15.0204940950
Ni      4.9145514370     2.8374169220     9.0128649340
Ni      3.6859511800     2.1280835430    11.0189462060
Ni      6.1494102800     3.5503628350    13.0279816350
Ni      4.9255624130     2.8437736980    15.0200052340
Ni      6.1432252670     4.9655441370     9.0128649340
Ni      4.9146004370     4.2561681970    11.0189462060
Ni      7.3781196110     5.6789367880    13.0280595390
Ni      6.1545735900     4.9715622540    15.0193609870
Ni      6.1432636120     0.7093535490     9.0128649340
Ni      4.9146019230    -0.0000011100    11.0189462060
Ni      7.3789582730     1.4221866730    13.0277506190
Ni      6.1537906650     0.7157666040    15.0198461880
Ni      7.3719005830     2.8374169220     9.0128649340
Ni      6.1432511800     2.1280835430    11.0189462060
Ni      8.6071640600     3.5501702390    13.0280595260
Ni      7.3827869000     2.8442350780    15.0193609080
Ni      8.6005744130     4.9655441370     9.0128649340
Ni      7.3719004370     4.2561681970    11.0189462060
Ni      9.8358884290     5.6787529240    13.0281948130
Ni      8.6117605830     4.9720020900    15.0186578060
Cu     -0.0039213373    -0.0006562724    23.3447070570
Cu      1.2029158595     2.1279116107    23.3172796185
Cu      2.4384631841     4.2900168216    23.3147578228
Cu      2.4499611792    -0.0202586125    23.3141585398
Cu      0.0125040740     0.0072168940    17.0980434560
Cu      2.4657299639     1.4241707364    19.1808057258
Cu      1.2340582748     0.7124960096    21.2773040449
Cu      3.6915602142     2.1761416672    23.2359330028
Cu      1.2411159100     2.1352155180    17.0978014380
Cu      3.6938874745     3.5504474690    19.1794024614
Cu      2.4496589628     2.8463729151    21.2544692511
Cu      4.9325260969     4.2907057303    23.3057625419
Cu      4.9294678492    -0.0257294143    23.3052454195
Cu      2.4697108070     0.0072275920    17.0978015350
Cu      4.9222372477     1.4239885912    19.1814485889
Cu      3.6897247500     0.7060344943    21.2612181046
Cu      6.1693177656     2.1234236542    23.3113613268
Cu      3.6983605790     2.1352480720    17.0975611220
Cu      6.1524766607     3.5515496761    19.1850916844
Cu      4.9297854960     2.8460901454    21.2491264822
Cu      7.3705603139     4.2569849459    23.3588313682
Cu      2.4699760600     4.2628774400    17.0985397210
Cu      4.9222368810     5.6806786383    19.1906365445
Cu      3.6890125546     4.9656948961    21.2722041432
Cu      4.9270970170     4.2630879460    17.0982970610
Cu      7.3799802645     5.6796972100    19.1888451497
Cu      6.1514510436     4.9656055054    21.2670265090
Cu      4.9267502260     0.0076215920    17.0985396480
Cu      7.3809726531     1.4230747139    19.1898403974
Cu      6.1458846449     0.7123907741    21.2706158936
Cu      6.1554922450     2.1354459510    17.0982970840
Cu      8.6085002740     3.5506078402    19.1851774145
Cu      7.3762017848     2.8439578931    21.2717396922
Cu      7.3842970870     4.2633253690    17.0989758590
Cu      9.8383621380     5.6801239426    19.1912094053
Cu      8.6005152546     4.9635028341    21.2644202144
O       4.2204323984     0.7557270161    27.4941337859
O       3.6418544381     2.0447352706    25.2503842595
O       3.7125617538     2.1172896918    29.9738774550
C       3.7604356630     2.1134941792    27.5840814727
C       4.2092158311     2.8376864476    26.3225123316
C       4.2217993455     2.8120824612    28.8390107181
H       2.6651255460     2.0356677180    27.5539322994
H       5.3168461691     2.8833755097    26.2549738383
H       3.8259667911     3.8615204108    26.2146318091
H       3.8737937037     3.8596195027    28.8100712770
H       5.3270490366     2.8225927315    28.8179023922
H       5.1963340221     0.7801001081    27.5285533539
H       4.0596179420     1.1516806960    25.3026112582
H       4.0534679898     2.5634819132    30.7620430874
86
Step 6 | ATOMIC_POSITIONS (angstrom) | Cartesian Angstrom
Ni      1.2286390390     0.7093535490     9.0128649340
Ni      0.0000019230    -0.0000011100    11.0189462060
Ni      2.4642244780     1.4227189880    13.0272881070
Ni      1.2387561530     0.7151941710    15.0209755470
Ni      2.4572760100     2.8374169220     9.0128649340
Ni      1.2286511800     2.1280835430    11.0189462060
Ni      3.6924327390     3.5506983320    13.0276201530
Ni      2.4677586240     2.8437215940    15.0204940710
Ni      3.6859498400     4.9655441370     9.0128649340
Ni      2.4573004370     4.2561681970    11.0189462060
Ni      4.9211289880     5.6792703610    13.0277505390
Ni      3.6967676190     4.9714536840    15.0198461330
Ni      3.6859144660     0.7093535490     9.0128649340
Ni      2.4573019230    -0.0000011100    11.0189462060
Ni      4.9212127460     1.4223897070    13.0276202510
Ni      3.6966160050     0.7152787130    15.0204940950
Ni      4.9145514370     2.8374169220     9.0128649340
Ni      3.6859511800     2.1280835430    11.0189462060
Ni      6.1494102800     3.5503628350    13.0279816350
Ni      4.9255624130     2.8437736980    15.0200052340
Ni      6.1432252670     4.9655441370     9.0128649340
Ni      4.9146004370     4.2561681970    11.0189462060
Ni      7.3781196110     5.6789367880    13.0280595390
Ni      6.1545735900     4.9715622540    15.0193609870
Ni      6.1432636120     0.7093535490     9.0128649340
Ni      4.9146019230    -0.0000011100    11.0189462060
Ni      7.3789582730     1.4221866730    13.0277506190
Ni      6.1537906650     0.7157666040    15.0198461880
Ni      7.3719005830     2.8374169220     9.0128649340
Ni      6.1432511800     2.1280835430    11.0189462060
Ni      8.6071640600     3.5501702390    13.0280595260
Ni      7.3827869000     2.8442350780    15.0193609080
Ni      8.6005744130     4.9655441370     9.0128649340
Ni      7.3719004370     4.2561681970    11.0189462060
Ni      9.8358884290     5.6787529240    13.0281948130
Ni      8.6117605830     4.9720020900    15.0186578060
Cu     -0.0031696983     0.0004248811    23.3471058115
Cu      1.2060471556     2.1290301750    23.3125775479
Cu      2.4387967612     4.2911991586    23.3098056093
Cu      2.4539918944    -0.0149306800    23.3079924561
Cu      0.0125040740     0.0072168940    17.0980434560
Cu      2.4652443968     1.4236199777    19.1774060061
Cu      1.2340156321     0.7123397165    21.2765442129
Cu      3.6952128635     2.1797595580    23.2541447163
Cu      1.2411159100     2.1352155180    17.0978014380
Cu      3.6935074671     3.5508987860    19.1751835102
Cu      2.4488477903     2.8472154349    21.2473049984
Cu      4.9343658652     4.2927257314    23.2995619157
Cu      4.9273530425    -0.0202905569    23.2973450220
Cu      2.4697108070     0.0072275920    17.0978015350
Cu      4.9222227314     1.4233283989    19.1776411898
Cu      3.6898480994     0.7070448899    21.2559234120
Cu      6.1673119055     2.1245006031    23.3063575820
Cu      3.6983605790     2.1352480720    17.0975611220
Cu      6.1530097170     3.5518324662    19.1813599089
Cu      4.9310800932     2.8471017422    21.2407716284
Cu      7.3712749376     4.2574804479    23.3646578948
Cu      2.4699760600     4.2628774400    17.0985397210
Cu      4.9219786586     5.6806998902    19.1896477524
Cu      3.6890933211     4.9662292549    21.2697092804
Cu      4.9270970170     4.2630879460    17.0982970610
Cu      7.3798119126     5.6793409068    19.1857671738
Cu      6.1538025371     4.9660202586    21.2628827439
Cu      4.9267502260     0.0076215920    17.0985396480
Cu      7.3808935715     1.4228568797    19.1888317529
Cu      6.1466275186     0.7122940292    21.2677885942
Cu      6.1554922450     2.1354459510    17.0982970840
Cu      8.6076335061     3.5508371052    19.1813611776
Cu      7.3767129964     2.8453827468    21.2689166651
Cu      7.3842970870     4.2633253690    17.0989758590
Cu      9.8383008619     5.6800649368    19.1898954436
Cu      8.5990785357     4.9632181665    21.2599175052
O       4.2253914414     0.7564942765    27.4974589018
O       3.6342990013     2.0343893314    25.2571922220
O       3.7119106937     2.1237039585    29.9770365296
C       3.7667577961     2.1169393828    27.5849691584
C       4.2037611983     2.8340702699    26.3203215508
C       4.2266989330     2.8144273065    28.8410885982
H       2.6716374045     2.0379079399    27.5637512439
H       5.3087602691     2.8905663014    26.2546840422
H       3.8228418947     3.8539654325    26.2114313358
H       3.8767413201     3.8590395709    28.8052957171
H       5.3317979769     2.8312391958    28.8229450069
H       5.1984847942     0.7642056207    27.5339268275
H       4.0488030762     1.1411033800    25.3367281013
H       4.0485344910     2.5576976840    30.7801744692
86
Step 7 | ATOMIC_POSITIONS (angstrom) | Cartesian Angstrom
Ni      1.2286390390     0.7093535490     9.0128649340
Ni      0.0000019230    -0.0000011100    11.0189462060
Ni      2.4642244780     1.4227189880    13.0272881070
Ni      1.2387561530     0.7151941710    15.0209755470
Ni      2.4572760100     2.8374169220     9.0128649340
Ni      1.2286511800     2.1280835430    11.0189462060
Ni      3.6924327390     3.5506983320    13.0276201530
Ni      2.4677586240     2.8437215940    15.0204940710
Ni      3.6859498400     4.9655441370     9.0128649340
Ni      2.4573004370     4.2561681970    11.0189462060
Ni      4.9211289880     5.6792703610    13.0277505390
Ni      3.6967676190     4.9714536840    15.0198461330
Ni      3.6859144660     0.7093535490     9.0128649340
Ni      2.4573019230    -0.0000011100    11.0189462060
Ni      4.9212127460     1.4223897070    13.0276202510
Ni      3.6966160050     0.7152787130    15.0204940950
Ni      4.9145514370     2.8374169220     9.0128649340
Ni      3.6859511800     2.1280835430    11.0189462060
Ni      6.1494102800     3.5503628350    13.0279816350
Ni      4.9255624130     2.8437736980    15.0200052340
Ni      6.1432252670     4.9655441370     9.0128649340