86
Step 1 | ATOMIC_POSITIONS (angstrom) | Cartesian Angstrom
Ni      1.2286390390     0.7093535490     9.0128649340
Ni      2.4572760100     2.8374169220     9.0128649340
Ni      3.6859498400     4.9655441370     9.0128649340
Ni      3.6859144660     0.7093535490     9.0128649340
Ni      4.9145514370     2.8374169220     9.0128649340
Ni      6.1432252670     4.9655441370     9.0128649340
Ni      6.1432636120     0.7093535490     9.0128649340
Ni      7.3719005830     2.8374169220     9.0128649340
Ni      8.6005744130     4.9655441370     9.0128649340
Ni      0.0000019230    -0.0000011100    11.0189462060
Ni      1.2286511800     2.1280835430    11.0189462060
Ni      2.4573004370     4.2561681970    11.0189462060
Ni      2.4573019230    -0.0000011100    11.0189462060
Ni      3.6859511800     2.1280835430    11.0189462060
Ni      4.9146004370     4.2561681970    11.0189462060
Ni      4.9146019230    -0.0000011100    11.0189462060
Ni      6.1432511800     2.1280835430    11.0189462060
Ni      7.3719004370     4.2561681970    11.0189462060
Ni      2.4642244782     1.4227189882    13.0272881072
Ni      3.6924327393     3.5506983324    13.0276201532
Ni      4.9212127461     1.4223897069    13.0276202514
Ni      4.9211289880     5.6792703608    13.0277505394
Ni      7.3789582732     1.4221866725    13.0277506192
Ni      6.1494102798     3.5503628349    13.0279816354
Ni      8.6071640595     3.5501702385    13.0280595263
Ni      7.3781196108     5.6789367884    13.0280595385
Ni      9.8358884293     5.6787529236    13.0281948131
Ni      8.6117605827     4.9720020900    15.0186578056
Ni      7.3827868999     2.8442350783    15.0193609084
Ni      6.1545735898     4.9715622543    15.0193609873
Ni      3.6967676188     4.9714536843    15.0198461328
Ni      6.1537906646     0.7157666041    15.0198461884
Ni      4.9255624128     2.8437736982    15.0200052342
Ni      2.4677586241     2.8437215937    15.0204940708
Ni      3.6966160048     0.7152787127    15.0204940954
Ni      1.2387561528     0.7151941711    15.0209755470
Cu      3.6983605789     2.1352480718    17.0975611217
Cu      1.2411159095     2.1352155180    17.0978014381
Cu      2.4697108068     0.0072275923    17.0978015346
Cu      0.0125040744     0.0072168935    17.0980434563
Cu      4.9270970174     4.2630879459    17.0982970605
Cu      6.1554922454     2.1354459509    17.0982970841
Cu      4.9267502258     0.0076215920    17.0985396479
Cu      2.4699760595     4.2628774404    17.0985397214
Cu      7.3842970869     4.2633253686    17.0989758589
Cu      9.8377594045     5.6798268698    19.1898797963
Cu      7.3806449649     1.4240215132    19.1897590985
Cu      4.9234248934     5.6798585412    19.1898807858
Cu      2.4665125725     1.4242669846    19.1888500966
Cu      8.6094796080     3.5517033125    19.1897168453
Cu      7.3807577776     5.6800162933    19.1902343259
Cu      4.9235764749     1.4244394148    19.1893768653
Cu      3.6952111189     3.5515895223    19.1891108745
Cu      6.1524383215     3.5519755042    19.1901818619
Cu      8.6033387037     4.9666459166    21.2799982480
Cu      7.3748388125     2.8391846691    21.2808117630
Cu      6.1459950161     4.9669236448    21.2803193919
Cu      6.1460620843     0.7115827906    21.2805541870
Cu      3.6891304207     4.9666555192    21.2808290057
Cu      4.9173184616     2.8390953255    21.2810824364
Cu      2.4611268176     2.8393075249    21.2818039129
Cu      3.6893847110     0.7123643175    21.2818212718
Cu      1.2327378452     0.7118482477    21.2812849634
Cu      3.6846339586     2.1346611481    23.3156674598
Cu      6.1466023863     2.1256159079    23.3289745302
Cu      4.9149954159     4.2606211010    23.3281660836
Cu      2.4533036333    -0.0071090313    23.3294304268
Cu      1.2210103649     2.1274015248    23.3292211915
Cu      4.9167488175    -0.0080819894    23.3289816921
Cu      2.4517418361     4.2617989024    23.3288950003
Cu     -0.0015175118    -0.0007519625    23.3325992428
Cu      7.3686530487     4.2547298848    23.3341984309
O       3.6591843232     2.1327193035    25.2841800891
H       4.0093462503     1.2095149424    25.3367620200
H       5.2458163035     2.8621163444    26.3672155566
H       3.7700946360     3.8669112267    26.3643484772
C       4.1428014644     2.8504224535    26.4239179221
O       4.1527950002     0.7781873917    27.6422897326
H       5.1331537144     0.8365658333    27.6504950939
C       3.6748884270     2.1270897512    27.6772337315
H       2.5598304761     2.0434447102    27.6741900573
C       4.1473114283     2.8222540348    28.9401043084
H       3.8033481544     3.8618356734    28.9726602684
H       5.2565469969     2.8099895164    28.9726968485
O       3.6651670923     2.1249190573    30.0897817233
H       4.0093210959     2.6014096057    30.8619126653
86
Step 2 | ATOMIC_POSITIONS (angstrom) | Cartesian Angstrom
Ni      1.2286390390     0.7093535490     9.0128649340
Ni      2.4572760100     2.8374169220     9.0128649340
Ni      3.6859498400     4.9655441370     9.0128649340
Ni      3.6859144660     0.7093535490     9.0128649340
Ni      4.9145514370     2.8374169220     9.0128649340
Ni      6.1432252670     4.9655441370     9.0128649340
Ni      6.1432636120     0.7093535490     9.0128649340
Ni      7.3719005830     2.8374169220     9.0128649340
Ni      8.6005744130     4.9655441370     9.0128649340
Ni      0.0000019230    -0.0000011100    11.0189462060
Ni      1.2286511800     2.1280835430    11.0189462060
Ni      2.4573004370     4.2561681970    11.0189462060
Ni      2.4573019230    -0.0000011100    11.0189462060
Ni      3.6859511800     2.1280835430    11.0189462060
Ni      4.9146004370     4.2561681970    11.0189462060
Ni      4.9146019230    -0.0000011100    11.0189462060
Ni      6.1432511800     2.1280835430    11.0189462060
Ni      7.3719004370     4.2561681970    11.0189462060
Ni      2.4642244782     1.4227189882    13.0272881072
Ni      3.6924327393     3.5506983324    13.0276201532
Ni      4.9212127461     1.4223897069    13.0276202514
Ni      4.9211289880     5.6792703608    13.0277505394
Ni      7.3789582732     1.4221866725    13.0277506192
Ni      6.1494102798     3.5503628349    13.0279816354
Ni      8.6071640595     3.5501702385    13.0280595263
Ni      7.3781196108     5.6789367884    13.0280595385
Ni      9.8358884293     5.6787529236    13.0281948131
Ni      8.6117605827     4.9720020900    15.0186578056
Ni      7.3827868999     2.8442350783    15.0193609084
Ni      6.1545735898     4.9715622543    15.0193609873
Ni      3.6967676188     4.9714536843    15.0198461328
Ni      6.1537906646     0.7157666041    15.0198461884
Ni      4.9255624128     2.8437736982    15.0200052342
Ni      2.4677586241     2.8437215937    15.0204940708
Ni      3.6966160048     0.7152787127    15.0204940954
Ni      1.2387561528     0.7151941711    15.0209755470
Cu      3.6983605789     2.1352480718    17.0975611217
Cu      1.2411159095     2.1352155180    17.0978014381
Cu      2.4697108068     0.0072275923    17.0978015346
Cu      0.0125040744     0.0072168935    17.0980434563
Cu      4.9270970174     4.2630879459    17.0982970605
Cu      6.1554922454     2.1354459509    17.0982970841
Cu      4.9267502258     0.0076215920    17.0985396479
Cu      2.4699760595     4.2628774404    17.0985397214
Cu      7.3842970869     4.2633253686    17.0989758589
Cu      9.8381361262     5.6800278111    19.1912147726
Cu      7.3808781052     1.4236558674    19.1904963364
Cu      4.9229634286     5.6803257175    19.1908655304
Cu      2.4664389919     1.4246277243    19.1875486513
Cu      8.6097376635     3.5509861301    19.1897124859
Cu      7.3805548456     5.6803199164    19.1912747760
Cu      4.9230076830     1.4246682621    19.1883618422
Cu      3.6948077258     3.5507501423    19.1875750003
Cu      6.1520242705     3.5514813176    19.1900892291
Cu      8.6035368030     4.9658951675    21.2772374131
Cu      7.3750431708     2.8399068437    21.2793718319
Cu      6.1463580576     4.9662792112    21.2778114521
Cu      6.1455079699     0.7121217462    21.2784852673
Cu      3.6890611888     4.9656026891    21.2792102650
Cu      4.9174064748     2.8392423073    21.2792288815
Cu      2.4613000565     2.8394596700    21.2811795215
Cu      3.6894682650     0.7137732507    21.2815949563
Cu      1.2334131587     0.7124275276    21.2800434573
Cu      3.6869912680     2.1493904574    23.2917769312
Cu      6.1576413890     2.1243593841    23.3255447450
Cu      4.9214120534     4.2718687014    23.3230944348
Cu      2.4490615487    -0.0170003300    23.3267179400
Cu      1.2107341826     2.1270973736    23.3261415618
Cu      4.9234894462    -0.0186767810    23.3251520722
Cu      2.4460682853     4.2734527958    23.3248119078
Cu     -0.0028796076    -0.0013263511    23.3358453377
Cu      7.3690643237     4.2557299817    23.3407412525
O       3.6378698513     2.1125520890    25.3076729739
H       4.0060070463     1.1956518193    25.3508390981
H       5.2521775802     2.8707183866    26.3740222031
H       3.7651122532     3.8791083627    26.3557298375
C       4.1509662970     2.8579749885    26.4350613703
O       4.1565060597     0.7627965846    27.6329107865
H       5.1275653807     0.8306274765    27.6530014782
C       3.6810133213     2.1239156265    27.6886664892
H       2.5726977963     2.0450544049    27.6746866850
C       4.1498979301     2.8244492237    28.9536876846
H       3.8029594681     3.8770820244    28.9622565427
H       5.2627644572     2.8170136909    28.9589063328
O       3.6542714412     2.1175375413    30.0955825586
H       4.0059538234     2.5974384268    30.8641910709
86
Step 3 | ATOMIC_POSITIONS (angstrom) | Cartesian Angstrom
Ni      1.2286390390     0.7093535490     9.0128649340
Ni      2.4572760100     2.8374169220     9.0128649340
Ni      3.6859498400     4.9655441370     9.0128649340
Ni      3.6859144660     0.7093535490     9.0128649340
Ni      4.9145514370     2.8374169220     9.0128649340
Ni      6.1432252670     4.9655441370     9.0128649340
Ni      6.1432636120     0.7093535490     9.0128649340
Ni      7.3719005830     2.8374169220     9.0128649340
Ni      8.6005744130     4.9655441370     9.0128649340
Ni      0.0000019230    -0.0000011100    11.0189462060
Ni      1.2286511800     2.1280835430    11.0189462060
Ni      2.4573004370     4.2561681970    11.0189462060
Ni      2.4573019230    -0.0000011100    11.0189462060
Ni      3.6859511800     2.1280835430    11.0189462060
Ni      4.9146004370     4.2561681970    11.0189462060
Ni      4.9146019230    -0.0000011100    11.0189462060
Ni      6.1432511800     2.1280835430    11.0189462060
Ni      7.3719004370     4.2561681970    11.0189462060
Ni      2.4642244782     1.4227189882    13.0272881072
Ni      3.6924327393     3.5506983324    13.0276201532
Ni      4.9212127461     1.4223897069    13.0276202514
Ni      4.9211289880     5.6792703608    13.0277505394
Ni      7.3789582732     1.4221866725    13.0277506192
Ni      6.1494102798     3.5503628349    13.0279816354
Ni      8.6071640595     3.5501702385    13.0280595263
Ni      7.3781196108     5.6789367884    13.0280595385
Ni      9.8358884293     5.6787529236    13.0281948131
Ni      8.6117605827     4.9720020900    15.0186578056
Ni      7.3827868999     2.8442350783    15.0193609084
Ni      6.1545735898     4.9715622543    15.0193609873
Ni      3.6967676188     4.9714536843    15.0198461328
Ni      6.1537906646     0.7157666041    15.0198461884
Ni      4.9255624128     2.8437736982    15.0200052342
Ni      2.4677586241     2.8437215937    15.0204940708
Ni      3.6966160048     0.7152787127    15.0204940954
Ni      1.2387561528     0.7151941711    15.0209755470
Cu      3.6983605789     2.1352480718    17.0975611217
Cu      1.2411159095     2.1352155180    17.0978014381
Cu      2.4697108068     0.0072275923    17.0978015346
Cu      0.0125040744     0.0072168935    17.0980434563
Cu      4.9270970174     4.2630879459    17.0982970605
Cu      6.1554922454     2.1354459509    17.0982970841
Cu      4.9267502258     0.0076215920    17.0985396479
Cu      2.4699760595     4.2628774404    17.0985397214
Cu      7.3842970869     4.2633253686    17.0989758589
Cu      9.8382777993     5.6800897856    19.1917951231
Cu      7.3809507346     1.4234736415    19.1907462112
Cu      4.9227029435     5.6805159074    19.1912771557
Cu      2.4663872949     1.4247468653    19.1864723044
Cu      8.6098156279     3.5506095864    19.1894329032
Cu      7.3804206298     5.6804878869    19.1917009961
Cu      4.9226422813     1.4246861662    19.1873954463
Cu      3.6945203844     3.5503350616    19.1862595253
Cu      6.1517836395     3.5512092583    19.1897534709
Cu      8.6030997878     4.9653356467    21.2746155419
Cu      7.3752397251     2.8407981050    21.2778568545
Cu      6.1472027270     4.9659049746    21.2754236190
Cu      6.1453181800     0.7123591992    21.2769242099
Cu      3.6890769729     4.9652551221    21.2777603816
Cu      4.9184774765     2.8398211452    21.2767154907
Cu      2.4604407816     2.8400219497    21.2795423057
Cu      3.6895186576     0.7138571281    21.2809549068
Cu      1.2337839214     0.7126384866    21.2793133330
Cu      3.6888232327     2.1578444553    23.2841454309
Cu      6.1626992308     2.1237170318    23.3232349887
Cu      4.9251138279     4.2780572156    23.3196784302
Cu      2.4479367896    -0.0206010469    23.3244776140
Cu      1.2063400889     2.1269179358    23.3239171463
Cu      4.9261879844    -0.0225625676    23.3222229824
Cu      2.4431974385     4.2796609904    23.3220388706
Cu     -0.0034234895    -0.0015079836    23.3381510274
Cu      7.3693957394     4.2562254131    23.3456206616
O       3.6263770309     2.0997644332    25.3217744890
H       4.0017292874     1.1887925607    25.3639798974
H       5.2564293236     2.8782285560    26.3775640075
H       3.7631463758     3.8830123750    26.3502469033
C       4.1503413929     2.8559055331    26.4391008236
O       4.1529674200     0.7623958445    27.6277866281
H       5.1310822797     0.8230357748    27.6553281403
C       3.6831322310     2.1225164042    27.6948605412
H       2.5837406005     2.0460631548    27.6759921823
C       4.1519717590     2.8246294183    28.9579676219
H       3.8047041439     3.8798088329    28.9559841047
H       5.2633199615     2.8227372123    28.9531326303
O       3.6520765256     2.1206212988    30.0983240080
H       4.0014169755     2.5917154282    30.8680572996
86
Step 4 | ATOMIC_POSITIONS (angstrom) | Cartesian Angstrom
Ni      1.2286390390     0.7093535490     9.0128649340
Ni      2.4572760100     2.8374169220     9.0128649340
Ni      3.6859498400     4.9655441370     9.0128649340
Ni      3.6859144660     0.7093535490     9.0128649340
Ni      4.9145514370     2.8374169220     9.0128649340
Ni      6.1432252670     4.9655441370     9.0128649340
Ni      6.1432636120     0.7093535490     9.0128649340
Ni      7.3719005830     2.8374169220     9.0128649340
Ni      8.6005744130     4.9655441370     9.0128649340
Ni      0.0000019230    -0.0000011100    11.0189462060
Ni      1.2286511800     2.1280835430    11.0189462060
Ni      2.4573004370     4.2561681970    11.0189462060
Ni      2.4573019230    -0.0000011100    11.0189462060
Ni      3.6859511800     2.1280835430    11.0189462060
Ni      4.9146004370     4.2561681970    11.0189462060
Ni      4.9146019230    -0.0000011100    11.0189462060
Ni      6.1432511800     2.1280835430    11.0189462060
Ni      7.3719004370     4.2561681970    11.0189462060
Ni      2.4642244782     1.4227189882    13.0272881072
Ni      3.6924327393     3.5506983324    13.0276201532
Ni      4.9212127461     1.4223897069    13.0276202514
Ni      4.9211289880     5.6792703608    13.0277505394
Ni      7.3789582732     1.4221866725    13.0277506192
Ni      6.1494102798     3.5503628349    13.0279816354
Ni      8.6071640595     3.5501702385    13.0280595263
Ni      7.3781196108     5.6789367884    13.0280595385
Ni      9.8358884293     5.6787529236    13.0281948131
Ni      8.6117605827     4.9720020900    15.0186578056
Ni      7.3827868999     2.8442350783    15.0193609084
Ni      6.1545735898     4.9715622543    15.0193609873
Ni      3.6967676188     4.9714536843    15.0198461328
Ni      6.1537906646     0.7157666041    15.0198461884
Ni      4.9255624128     2.8437736982    15.0200052342
Ni      2.4677586241     2.8437215937    15.0204940708
Ni      3.6966160048     0.7152787127    15.0204940954
Ni      1.2387561528     0.7151941711    15.0209755470
Cu      3.6983605789     2.1352480718    17.0975611217
Cu      1.2411159095     2.1352155180    17.0978014381
Cu      2.4697108068     0.0072275923    17.0978015346
Cu      0.0125040744     0.0072168935    17.0980434563
Cu      4.9270970174     4.2630879459    17.0982970605
Cu      6.1554922454     2.1354459509    17.0982970841
Cu      4.9267502258     0.0076215920    17.0985396479
Cu      2.4699760595     4.2628774404    17.0985397214
Cu      7.3842970869     4.2633253686    17.0989758589
Cu      9.8383452151     5.6801028146    19.1920984637
Cu      7.3809613366     1.4232911103    19.1907634012
Cu      4.9224188185     5.6806456313    19.1914618467
Cu      2.4663090844     1.4247495726    19.1849199298
Cu      8.6097923167     3.5502484104    19.1886197949
Cu      7.3802475197     5.6806759205    19.1917628953
Cu      4.9221982336     1.4245556843    19.1858664272
Cu      3.6941426295     3.5499725478    19.1842834685
Cu      6.1515359494     3.5509372133    19.1888792585
Cu      8.6020578051     4.9646716184    21.2706948069
Cu      7.3755439355     2.8422312700    21.2755023234
Cu      6.1488171258     4.9655675385    21.2718231713
Cu      6.1453143374     0.7125261309    21.2748048981
Cu      3.6891650164     4.9651759836    21.2756040681
Cu      4.9204317943     2.8408648327    21.2725299125
Cu      2.4588312452     2.8410083292    21.2765042027
Cu      3.6895917809     0.7136086603    21.2797884912
Cu      1.2341288873     0.7127213624    21.2784658063
Cu      3.6912302222     2.1670872021    23.2820671808
Cu      6.1666489299     2.1232489478    23.3201683561
Cu      4.9290993115     4.2843948334    23.3152209038
Cu      2.4482836461    -0.0219526107    23.3210792627
Cu      1.2034775503     2.1268320488    23.3208197086
Cu      4.9277340880    -0.0241071957    23.3179802570
Cu      2.4406398502     4.2857194799    23.3183520992
Cu     -0.0036760987    -0.0014517778    23.3411218008
Cu      7.3699125124     4.2567121910    23.3521807953
O       3.6128542722     2.0859306625    25.3367864886
H       3.9950350190     1.1786481870    25.3848671865
H       5.2572968983     2.8883957222    26.3812004060
H       3.7619077465     3.8812790293    26.3435048726
C       4.1487605703     2.8536163310    26.4417595872
O       4.1577881726     0.7654314523    27.6231298958
H       5.1286836979     0.8096342007    27.6587555263
C       3.6885819611     2.1238888715    27.7008326757
H       2.5943427595     2.0472843894    27.6791095935
C       4.1544818945     2.8255326363    28.9601481854
H       3.8082466126     3.8783675068    28.9481859596
H       5.2630340828     2.8307247630    28.9486744513
O       3.6500445592     2.1260761856    30.0965296035
H       3.9963627295     2.5855174896    30.8798346525
86
Step 5 | ATOMIC_POSITIONS (angstrom) | Cartesian Angstrom
Ni      1.2286390390     0.7093535490     9.0128649340
Ni      2.4572760100     2.8374169220     9.0128649340
Ni      3.6859498400     4.9655441370     9.0128649340
Ni      3.6859144660     0.7093535490     9.0128649340
Ni      4.9145514370     2.8374169220     9.0128649340
Ni      6.1432252670     4.9655441370     9.0128649340
Ni      6.1432636120     0.7093535490     9.0128649340
Ni      7.3719005830     2.8374169220     9.0128649340
Ni      8.6005744130     4.9655441370     9.0128649340
Ni      0.0000019230    -0.0000011100    11.0189462060
Ni      1.2286511800     2.1280835430    11.0189462060
Ni      2.4573004370     4.2561681970    11.0189462060
Ni      2.4573019230    -0.0000011100    11.0189462060
Ni      3.6859511800     2.1280835430    11.0189462060
Ni      4.9146004370     4.2561681970    11.0189462060
Ni      4.9146019230    -0.0000011100    11.0189462060
Ni      6.1432511800     2.1280835430    11.0189462060
Ni      7.3719004370     4.2561681970    11.0189462060
Ni      2.4642244782     1.4227189882    13.0272881072
Ni      3.6924327393     3.5506983324    13.0276201532
Ni      4.9212127461     1.4223897069    13.0276202514
Ni      4.9211289880     5.6792703608    13.0277505394
Ni      7.3789582732     1.4221866725    13.0277506192
Ni      6.1494102798     3.5503628349    13.0279816354
Ni      8.6071640595     3.5501702385    13.0280595263
Ni      7.3781196108     5.6789367884    13.0280595385
Ni      9.8358884293     5.6787529236    13.0281948131
Ni      8.6117605827     4.9720020900    15.0186578056
Ni      7.3827868999     2.8442350783    15.0193609084
Ni      6.1545735898     4.9715622543    15.0193609873
Ni      3.6967676188     4.9714536843    15.0198461328
Ni      6.1537906646     0.7157666041    15.0198461884
Ni      4.9255624128     2.8437736982    15.0200052342
Ni      2.4677586241     2.8437215937    15.0204940708
Ni      3.6966160048     0.7152787127    15.0204940954
Ni      1.2387561528     0.7151941711    15.0209755470
Cu      3.6983605789     2.1352480718    17.0975611217
Cu      1.2411159095     2.1352155180    17.0978014381
Cu      2.4697108068     0.0072275923    17.0978015346
Cu      0.0125040744     0.0072168935    17.0980434563
Cu      4.9270970174     4.2630879459    17.0982970605
Cu      6.1554922454     2.1354459509    17.0982970841
Cu      4.9267502258     0.0076215920    17.0985396479
Cu      2.4699760595     4.2628774404    17.0985397214
Cu      7.3842970869     4.2633253686    17.0989758589
Cu      9.8382729623     5.6800459072    19.1917184375
Cu      7.3808742709     1.4231499128    19.1903412541
Cu      4.9221851277     5.6806541157    19.1911205047
Cu      2.4661923456     1.4245423451    19.1831536725
Cu      8.6095867175     3.5500367944    19.1870179678
Cu      7.3800636907     5.6808529165    19.1909796701
Cu      4.9217879101     1.4242205323    19.1839343720
Cu      3.6937515404     3.5498272348    19.1818896183
Cu      6.1513809706     3.5507658734    19.1872309887
Cu      8.6005292366     4.9642016254    21.2662576662
Cu      7.3759149236     2.8439184834    21.2727669088
Cu      6.1510339427     4.9655078747    21.2676835706
Cu      6.1456806606     0.7125253872    21.2725208741
Cu      3.6893477958     4.9655626126    21.2730792309
Cu      4.9225832678     2.8420831392    21.2675039337
Cu      2.4571784191     2.8421063295    21.2726416982
Cu      3.6897019737     0.7135821945    21.2783114238
Cu      1.2342674654     0.7125776990    21.2776569975
Cu      3.6936906280     2.1744331770    23.2889872047
Cu      6.1675191548     2.1234210234    23.3167341857
Cu      4.9321894734     4.2888326458    23.3103872497
Cu      2.4508957710    -0.0191657360    23.3167848806
Cu      1.2041151069     2.1271006986    23.3171797469
Cu      4.9269372820    -0.0212990618    23.3129057797
Cu      2.4395213593     4.2894923866    23.3142038495
Cu     -0.0033191690    -0.0009182263    23.3440607002
Cu      7.3706160226     4.2571271738    23.3591031089
O       3.6019406945     2.0720633520    25.3485595343
H       3.9850309963     1.1681499075    25.4118071084
H       5.2524474524     2.8990379817    26.3829438463
H       3.7602023335     3.8743833204    26.3365913240
C       4.1481368629     2.8506069524    26.4417670608
O       4.1584269456     0.7702511619    27.6203357193
H       5.1327485658     0.7928842559    27.6636577571
C       3.6951892488     2.1272529416    27.7031544849
H       2.6025810736     2.0481955104    27.6844458165
C       4.1598182800     2.8273540322    28.9595611644
H       3.8121914828     3.8747844589    28.9400496569
H       5.2629722190     2.8398713543    28.9478326882
O       3.6505301913     2.1356634720    30.0982571407
H       3.9889397401     2.5763867371    30.8917538027
86
Step 6 | ATOMIC_POSITIONS (angstrom) | Cartesian Angstrom
Ni      1.2286390390     0.7093535490     9.0128649340
Ni      2.4572760100     2.8374169220     9.0128649340
Ni      3.6859498400     4.9655441370     9.0128649340
Ni      3.6859144660     0.7093535490     9.0128649340
Ni      4.9145514370     2.8374169220     9.0128649340
Ni      6.1432252670     4.9655441370     9.0128649340
Ni      6.1432636120     0.7093535490     9.0128649340
Ni      7.3719005830     2.8374169220     9.0128649340
Ni      8.6005744130     4.9655441370     9.0128649340
Ni      0.0000019230    -0.0000011100    11.0189462060
Ni      1.2286511800     2.1280835430    11.0189462060
Ni      2.4573004370     4.2561681970    11.0189462060
Ni      2.4573019230    -0.0000011100    11.0189462060
Ni      3.6859511800     2.1280835430    11.0189462060
Ni      4.9146004370     4.2561681970    11.0189462060
Ni      4.9146019230    -0.0000011100    11.0189462060
Ni      6.1432511800     2.1280835430    11.0189462060
Ni      7.3719004370     4.2561681970    11.0189462060
Ni      2.4642244782     1.4227189882    13.0272881072
Ni      3.6924327393     3.5506983324    13.0276201532
Ni      4.9212127461     1.4223897069    13.0276202514
Ni      4.9211289880     5.6792703608    13.0277505394
Ni      7.3789582732     1.4221866725    13.0277506192
Ni      6.1494102798     3.5503628349    13.0279816354
Ni      8.6071640595     3.5501702385    13.0280595263
Ni      7.3781196108     5.6789367884    13.0280595385
Ni      9.8358884293     5.6787529236    13.0281948131
Ni      8.6117605827     4.9720020900    15.0186578056
Ni      7.3827868999     2.8442350783    15.0193609084
Ni      6.1545735898     4.9715622543    15.0193609873
Ni      3.6967676188     4.9714536843    15.0198461328
Ni      6.1537906646     0.7157666041    15.0198461884
Ni      4.9255624128     2.8437736982    15.0200052342
Ni      2.4677586241     2.8437215937    15.0204940708
Ni      3.6966160048     0.7152787127    15.0204940954
Ni      1.2387561528     0.7151941711    15.0209755470
Cu      3.6983605789     2.1352480718    17.0975611217
Cu      1.2411159095     2.1352155180    17.0978014381
Cu      2.4697108068     0.0072275923    17.0978015346
Cu      0.0125040744     0.0072168935    17.0980434563
Cu      4.9270970174     4.2630879459    17.0982970605
Cu      6.1554922454     2.1354459509    17.0982970841
Cu      4.9267502258     0.0076215920    17.0985396479
Cu      2.4699760595     4.2628774404    17.0985397214
Cu      7.3842970869     4.2633253686    17.0989758589
Cu      9.8380623927     5.6799363426    19.1904560069
Cu      7.3807031016     1.4230391189    19.1894155220
Cu      4.9220176594     5.6805626266    19.1901134047
Cu      2.4660123635     1.4241250183    19.1813939768
Cu      8.6091985468     3.5499973124    19.1844984713
Cu      7.3798784650     5.6810516683    19.1890504458
Cu      4.9214700046     1.4237114681    19.1817650839
Cu      3.6933929739     3.5499255292    19.1792766253
Cu      6.1513443715     3.5507211856    19.1846773079
Cu      8.5988810220     4.9642126195    21.2621181989
Cu      7.3763194217     2.8455098832    21.2701557092
Cu      6.1535062403     4.9659156329    21.2636966492
Cu      6.1465004976     0.7123779176    21.2702740156
Cu      3.6896274875     4.9664198143    21.2704302846
Cu      4.9238775054     2.8430599343    21.2628362345
Cu      2.4565881984     2.8428920830    21.2689460152
Cu      3.6898909771     0.7147807113    21.2767479366
Cu      1.2341110438     0.7122495061    21.2767990652
Cu      3.6958926882     2.1789581264    23.3040523359
Cu      6.1654515052     2.1246124488    23.3129203503
Cu      4.9341483450     4.2910970371    23.3052960126
Cu      2.4554684078    -0.0124890270    23.3116651443
Cu      1.2081986062     2.1280422497    23.3130399518
Cu      4.9240795797    -0.0144270537    23.3071514588
Cu      2.4400249225     4.2908127859    23.3096060707
Cu     -0.0023026932     0.0002742068    23.3464854394
Cu      7.3715546843     4.2576723546    23.3654793084
O       3.5956943069     2.0611206526    25.3561265664
H       3.9718144565     1.1549440838    25.4442067874
H       5.2465520076     2.9085168898    26.3809464496
H       3.7562355484     3.8649191625    26.3293840411
C       4.1437079157     2.8472510143    26.4390697936
O       4.1618048480     0.7726643899    27.6198779178
H       5.1365563885     0.7742220717    27.6699792190
C       3.7019629610     2.1309673541    27.7034774852
H       2.6080292405     2.0493831842    27.6919903739
C       4.1652424607     2.8303245044    28.9599304260
H       3.8155767474     3.8728402481    28.9317357886
H       5.2676394222     2.8494357245    28.9511582176
O       3.6502557849     2.1436684100    30.0969602131
H       3.9826467826     2.5689948807    30.9066677433
86
Step 7 | ATOMIC_POSITIONS (angstrom) | Cartesian Angstrom
Ni      1.2286390390     0.7093535490     9.0128649340
Ni      2.4572760100     2.8374169220     9.0128649340
Ni      3.6859498400     4.9655441370     9.0128649340
Ni      3.6859144660     0.7093535490     9.0128649340
Ni      4.9145514370     2.8374169220     9.0128649340
Ni      6.1432252670     4.9655441370     9.0128649340
Ni      6.1432636120     0.7093535490     9.0128649340
Ni      7.3719005830     2.8374169220     9.0128649340
Ni      8.6005744130     4.9655441370     9.0128649340
Ni      0.0000019230    -0.0000011100    11.0189462060
Ni      1.2286511800     2.1280835430    11.0189462060
Ni      2.4573004370     4.2561681970    11.0189462060
Ni      2.4573019230    -0.0000011100    11.0189462060
Ni      3.6859511800     2.1280835430    11.0189462060
Ni      4.9146004370     4.2561681970    11.0189462060
Ni      4.9146019230    -0.0000011100    11.0189462060
Ni      6.1432511800     2.1280835430    11.0189462060
Ni      7.3719004370     4.2561681970    11.0189462060
Ni      2.4642244782     1.4227189882    13.0272881072
Ni      3.6924327393     3.5506983324    13.0276201532
Ni      4.9212127461     1.4223897069    13.0276202514