86
Step 1 | ATOMIC_POSITIONS (angstrom) | Cartesian Angstrom
Ni      1.2286390390     0.7093535490     9.0128649340
Ni      2.4572760100     2.8374169220     9.0128649340
Ni      3.6859498400     4.9655441370     9.0128649340
Ni      3.6859144660     0.7093535490     9.0128649340
Ni      4.9145514370     2.8374169220     9.0128649340
Ni      6.1432252670     4.9655441370     9.0128649340
Ni      6.1432636120     0.7093535490     9.0128649340
Ni      7.3719005830     2.8374169220     9.0128649340
Ni      8.6005744130     4.9655441370     9.0128649340
Ni      0.0000019230    -0.0000011100    11.0189462060
Ni      1.2286511800     2.1280835430    11.0189462060
Ni      2.4573004370     4.2561681970    11.0189462060
Ni      2.4573019230    -0.0000011100    11.0189462060
Ni      3.6859511800     2.1280835430    11.0189462060
Ni      4.9146004370     4.2561681970    11.0189462060
Ni      4.9146019230    -0.0000011100    11.0189462060
Ni      6.1432511800     2.1280835430    11.0189462060
Ni      7.3719004370     4.2561681970    11.0189462060
Ni      2.4642244782     1.4227189882    13.0272881072
Ni      3.6924327393     3.5506983324    13.0276201532
Ni      4.9212127461     1.4223897069    13.0276202514
Ni      4.9211289880     5.6792703608    13.0277505394
Ni      7.3789582732     1.4221866725    13.0277506192
Ni      6.1494102798     3.5503628349    13.0279816354
Ni      8.6071640595     3.5501702385    13.0280595263
Ni      7.3781196108     5.6789367884    13.0280595385
Ni      9.8358884293     5.6787529236    13.0281948131
Ni      8.6117605827     4.9720020900    15.0186578056
Ni      7.3827868999     2.8442350783    15.0193609084
Ni      6.1545735898     4.9715622543    15.0193609873
Ni      3.6967676188     4.9714536843    15.0198461328
Ni      6.1537906646     0.7157666041    15.0198461884
Ni      4.9255624128     2.8437736982    15.0200052342
Ni      2.4677586241     2.8437215937    15.0204940708
Ni      3.6966160048     0.7152787127    15.0204940954
Ni      1.2387561528     0.7151941711    15.0209755470
Cu      3.6983605789     2.1352480718    17.0975611217
Cu      1.2411159095     2.1352155180    17.0978014381
Cu      2.4697108068     0.0072275923    17.0978015346
Cu      0.0125040744     0.0072168935    17.0980434563
Cu      4.9270970174     4.2630879459    17.0982970605
Cu      6.1554922454     2.1354459509    17.0982970841
Cu      4.9267502258     0.0076215920    17.0985396479
Cu      2.4699760595     4.2628774404    17.0985397214
Cu      7.3842970869     4.2633253686    17.0989758589
Cu      9.8377594045     5.6798268698    19.1898797963
Cu      7.3806449649     1.4240215132    19.1897590985
Cu      4.9234248934     5.6798585412    19.1898807858
Cu      2.4665125725     1.4242669846    19.1888500966
Cu      8.6094796080     3.5517033125    19.1897168453
Cu      7.3807577776     5.6800162933    19.1902343259
Cu      4.9235764749     1.4244394148    19.1893768653
Cu      3.6952111189     3.5515895223    19.1891108745
Cu      6.1524383215     3.5519755042    19.1901818619
Cu      8.6033387037     4.9666459166    21.2799982480
Cu      7.3748388125     2.8391846691    21.2808117630
Cu      6.1459950161     4.9669236448    21.2803193919
Cu      6.1460620843     0.7115827906    21.2805541870
Cu      3.6891304207     4.9666555192    21.2808290057
Cu      4.9173184616     2.8390953255    21.2810824364
Cu      2.4611268176     2.8393075249    21.2818039129
Cu      3.6893847110     0.7123643175    21.2818212718
Cu      1.2327378452     0.7118482477    21.2812849634
Cu      3.6846339586     2.1346611481    23.3156674598
Cu      6.1466023863     2.1256159079    23.3289745302
Cu      4.9149954159     4.2606211010    23.3281660836
Cu      2.4533036333    -0.0071090313    23.3294304268
Cu      1.2210103649     2.1274015248    23.3292211915
Cu      4.9167488175    -0.0080819894    23.3289816921
Cu      2.4517418361     4.2617989024    23.3288950003
Cu     -0.0015175118    -0.0007519625    23.3325992428
Cu      7.3686530487     4.2547298848    23.3341984309
O       3.6591843232     2.1327193035    25.2841800891
H       4.0093462503     1.2095149424    25.3367620200
H       5.2458163035     2.8621163444    26.3672155566
H       3.7700946360     3.8669112267    26.3643484772
C       4.1428014644     2.8504224535    26.4239179221
O       4.1527950002     0.7781873917    27.6422897326
H       5.1331537144     0.8365658333    27.6504950939
C       3.6748884270     2.1270897512    27.6772337315
H       2.5598304761     2.0434447102    27.6741900573
C       4.1473114283     2.8222540348    28.9401043084
H       3.8033481544     3.8618356734    28.9726602684
H       5.2565469969     2.8099895164    28.9726968485
O       3.6651670923     2.1249190573    30.0897817233
H       4.0093210959     2.6014096057    30.8619126653
