86
Step 1 | ATOMIC_POSITIONS (angstrom) | Cartesian Angstrom
Ni      1.2286390390     0.7093535490     9.0128649340
Ni      0.0000019230    -0.0000011100    11.0189462060
Ni      2.4642244780     1.4227189880    13.0272881070
Ni      1.2387561530     0.7151941710    15.0209755470
Ni      2.4572760100     2.8374169220     9.0128649340
Ni      1.2286511800     2.1280835430    11.0189462060
Ni      3.6924327390     3.5506983320    13.0276201530
Ni      2.4677586240     2.8437215940    15.0204940710
Ni      3.6859498400     4.9655441370     9.0128649340
Ni      2.4573004370     4.2561681970    11.0189462060
Ni      4.9211289880     5.6792703610    13.0277505390
Ni      3.6967676190     4.9714536840    15.0198461330
Ni      3.6859144660     0.7093535490     9.0128649340
Ni      2.4573019230    -0.0000011100    11.0189462060
Ni      4.9212127460     1.4223897070    13.0276202510
Ni      3.6966160050     0.7152787130    15.0204940950
Ni      4.9145514370     2.8374169220     9.0128649340
Ni      3.6859511800     2.1280835430    11.0189462060
Ni      6.1494102800     3.5503628350    13.0279816350
Ni      4.9255624130     2.8437736980    15.0200052340
Ni      6.1432252670     4.9655441370     9.0128649340
Ni      4.9146004370     4.2561681970    11.0189462060
Ni      7.3781196110     5.6789367880    13.0280595390
Ni      6.1545735900     4.9715622540    15.0193609870
Ni      6.1432636120     0.7093535490     9.0128649340
Ni      4.9146019230    -0.0000011100    11.0189462060
Ni      7.3789582730     1.4221866730    13.0277506190
Ni      6.1537906650     0.7157666040    15.0198461880
Ni      7.3719005830     2.8374169220     9.0128649340
Ni      6.1432511800     2.1280835430    11.0189462060
Ni      8.6071640600     3.5501702390    13.0280595260
Ni      7.3827869000     2.8442350780    15.0193609080
Ni      8.6005744130     4.9655441370     9.0128649340
Ni      7.3719004370     4.2561681970    11.0189462060
Ni      9.8358884290     5.6787529240    13.0281948130
Ni      8.6117605830     4.9720020900    15.0186578060
Cu     -0.0016625323    -0.0007340317    23.3329756725
Cu      1.2201476040     2.1275151515    23.3290549224
Cu      2.4511395963     4.2625719756    23.3287222969
Cu      2.4526740964    -0.0081021677    23.3289763851
Cu      0.0125040740     0.0072168940    17.0980434560
Cu      2.4665281027     1.4242475122    19.1888638273
Cu      1.2327824943     0.7118670527    21.2810472225
Cu      3.6826461052     2.1372389588    23.2830156784
Cu      1.2411159100     2.1352155180    17.0978014380
Cu      3.6952573962     3.5515475014    19.1891012291
Cu      2.4612536451     2.8392626310    21.2814970531
Cu      4.9155259110     4.2618999229    23.3271146606
Cu      4.9177032779    -0.0099931791    23.3278151797
Cu      2.4697108070     0.0072275920    17.0978015350
Cu      4.9235494638     1.4244706181    19.1893842831
Cu      3.6893831364     0.7124469211    21.2813289502
Cu      6.1482775269     2.1256043907    23.3278267469
Cu      3.6983605790     2.1352480720    17.0975611220
Cu      6.1524988503     3.5520293060    19.1902002535
Cu      4.9173577139     2.8391261352    21.2804712144
Cu      7.3687031843     4.2547524839    23.3345786841
Cu      2.4699760600     4.2628774400    17.0985397210
Cu      4.9234404854     5.6798604915    19.1899739069
Cu      3.6891429927     4.9665684798    21.2805448580
Cu      4.9270970170     4.2630879460    17.0982970610
Cu      7.3807313778     5.6799262434    19.1902912617
Cu      6.1460076966     4.9668633162    21.2801995670
Cu      4.9267502260     0.0076215920    17.0985396480
Cu      7.3806517365     1.4240122022    19.1898454321
Cu      6.1459964948     0.7116514943    21.2802296680
Cu      6.1554922450     2.1354459510    17.0982970840
Cu      8.6093758380     3.5517326468    19.1898129383
Cu      7.3747819115     2.8392079099    21.2806688866
Cu      7.3842970870     4.2633253690    17.0989758590
Cu      9.8377643685     5.6798496920    19.1899997307
Cu      8.6033438459     4.9666080886    21.2797158027
O       4.2150562832     0.7628253983    27.5084398307
O       3.7218199821     2.1168308668    25.1849500484
O       3.7275117610     2.1093352066    29.9558533032
C       3.7368281110     2.1109340441    27.5432574990
C       4.2050331797     2.8368245947    26.2935297843
C       4.2097782902     2.8069924013    28.8062990476
H       2.6222007038     2.0279090204    27.5405600624
H       5.3081048374     2.8464088117    26.2327621769
H       3.8325355761     3.8514885145    26.2303789010
H       3.8657247356     3.8462955553    28.8389714668
H       5.3188933961     2.7944474550    28.8389866917
H       5.1955887451     0.8208568949    27.5165900735
H       4.0728772340     1.1908472267    25.2058796979
H       4.0717032399     2.5858812340    30.7281927647
86
Step 2 | ATOMIC_POSITIONS (angstrom) | Cartesian Angstrom
Ni      1.2286390390     0.7093535490     9.0128649340
Ni      0.0000019230    -0.0000011100    11.0189462060
Ni      2.4642244780     1.4227189880    13.0272881070
Ni      1.2387561530     0.7151941710    15.0209755470
Ni      2.4572760100     2.8374169220     9.0128649340
Ni      1.2286511800     2.1280835430    11.0189462060
Ni      3.6924327390     3.5506983320    13.0276201530
Ni      2.4677586240     2.8437215940    15.0204940710
Ni      3.6859498400     4.9655441370     9.0128649340
Ni      2.4573004370     4.2561681970    11.0189462060
Ni      4.9211289880     5.6792703610    13.0277505390
Ni      3.6967676190     4.9714536840    15.0198461330
Ni      3.6859144660     0.7093535490     9.0128649340
Ni      2.4573019230    -0.0000011100    11.0189462060
Ni      4.9212127460     1.4223897070    13.0276202510
Ni      3.6966160050     0.7152787130    15.0204940950
Ni      4.9145514370     2.8374169220     9.0128649340
Ni      3.6859511800     2.1280835430    11.0189462060
Ni      6.1494102800     3.5503628350    13.0279816350
Ni      4.9255624130     2.8437736980    15.0200052340
Ni      6.1432252670     4.9655441370     9.0128649340
Ni      4.9146004370     4.2561681970    11.0189462060
Ni      7.3781196110     5.6789367880    13.0280595390
Ni      6.1545735900     4.9715622540    15.0193609870
Ni      6.1432636120     0.7093535490     9.0128649340
Ni      4.9146019230    -0.0000011100    11.0189462060
Ni      7.3789582730     1.4221866730    13.0277506190
Ni      6.1537906650     0.7157666040    15.0198461880
Ni      7.3719005830     2.8374169220     9.0128649340
Ni      6.1432511800     2.1280835430    11.0189462060
Ni      8.6071640600     3.5501702390    13.0280595260
Ni      7.3827869000     2.8442350780    15.0193609080
Ni      8.6005744130     4.9655441370     9.0128649340
Ni      7.3719004370     4.2561681970    11.0189462060
Ni      9.8358884290     5.6787529240    13.0281948130
Ni      8.6117605830     4.9720020900    15.0186578060
Cu     -0.0029534146    -0.0011446495    23.3360105275
Cu      1.2110923911     2.1273709383    23.3265282867
Cu      2.4458720055     4.2728523848    23.3253579643
Cu      2.4487946718    -0.0167715168    23.3262811503
Cu      0.0125040740     0.0072168940    17.0980434560
Cu      2.4664526146     1.4245094617    19.1876788067
Cu      1.2333151731     0.7123070827    21.2798061319
Cu      3.6829652804     2.1513786639    23.2397297639
Cu      1.2411159100     2.1352155180    17.0978014380
Cu      3.6949736369     3.5508578170    19.1876776100
Cu      2.4602062931     2.8400761333    21.2785249480
Cu      4.9213235589     4.2724334919    23.3216451460
Cu      4.9240748584    -0.0203063532    23.3231934605
Cu      2.4697108070     0.0072275920    17.0978015350
Cu      4.9230780666     1.4246760564    19.1884152290
Cu      3.6894598420     0.7123194596    21.2787059728
Cu      6.1587548538     2.1244945167    23.3236004632
Cu      3.6983605790     2.1352480720    17.0975611220
Cu      6.1522365248     3.5516979195    19.1900282629
Cu      4.9187301876     2.8399626365    21.2762465474
Cu      7.3691049211     4.2555725862    23.3403389358
Cu      2.4699760600     4.2628774400    17.0985397210
Cu      4.9230941428     5.6802210840    19.1907923443
Cu      3.6890797896     4.9657468099    21.2788374550
Cu      4.9270970170     4.2630879460    17.0982970610
Cu      7.3805300274     5.6800621280    19.1911130492
Cu      6.1464494783     4.9662683859    21.2778841248
Cu      4.9267502260     0.0076215920    17.0985396480
Cu      7.3808475950     1.4237287398    19.1904590155
Cu      6.1455529866     0.7121100346    21.2780857519
Cu      6.1554922450     2.1354459510    17.0982970840
Cu      8.6094652351     3.5511730915    19.1898314714
Cu      7.3749425557     2.8399151772    21.2792056577
Cu      7.3842970870     4.2633253690    17.0989758590
Cu      9.8380619707     5.6800259961    19.1911422279
Cu      8.6034218670     4.9658519179    21.2769089745
O       4.2213108206     0.7522980857    27.5003659184
O       3.6966481517     2.0900148157    25.2146294516
O       3.7190490933     2.1043450054    29.9598547750
C       3.7369526420     2.1104685436    27.5585990413
C       4.2195841657     2.8432013567    26.3172498303
C       4.2143003233     2.8064381443    28.8177167336
H       2.6356923162     2.0296231159    27.5407919421
H       5.3129243551     2.8549078153    26.2388438254
H       3.8275856616     3.8649434450    26.2239958736
H       3.8651090557     3.8587875425    28.8304546712
H       5.3222110863     2.8004668538    28.8281419768
H       5.1890649185     0.8149192056    27.5184363840
H       4.0716077698     1.1802311173    25.2235506696
H       4.0688770371     2.5825316678    30.7305594066
