72
Step 1 | ATOMIC_POSITIONS (angstrom) | Cartesian Angstrom
Ni      0.0000000000     0.0000000000    10.0000000900
Ni      8.6005476670     2.1280836470    10.0000000900
Ni      9.8291973330     4.2561672950    10.0000000900
Ni      2.4572993330     0.0000000000    10.0000000900
Ni      3.6859490000     2.1280836470    10.0000000900
Ni      4.9145986670     4.2561672950    10.0000000900
Ni      4.9145986670     0.0000000000    10.0000000900
Ni      6.1432483330     2.1280836470    10.0000000900
Ni      7.3718980000     4.2561672950    10.0000000900
Ni      1.6381995390     1.4187224170    12.0063763950
Ni      2.8668492300     3.5468061070    12.0063763950
Ni      4.0954988850     5.6748897330    12.0063763950
Ni      4.0954988480     1.4187224170    12.0063763950
Ni      5.3241485390     3.5468061070    12.0063763950
Ni      6.5527981940     5.6748897330    12.0063763950
Ni      6.5527982300     1.4187224170    12.0063763950
Ni      7.7814479220     3.5468061070    12.0063763950
Ni      9.0100975760     5.6748897330    12.0063763950
Ni      2.0477494240     0.7093612090    14.0127530410
Ni      3.2763990780     2.8374448350    14.0127530410
Ni      4.5050487700     4.9655285250    14.0127530410
Ni      4.5050488060     0.7093612090    14.0127530410
Ni      5.7336984610     2.8374448350    14.0127530410
Ni      6.9623481520     4.9655285250    14.0127530410
Ni      6.9623481150     0.7093612090    14.0127530410
Ni      8.1909977700     2.8374448350    14.0127530410
Ni      9.4196474610     4.9655285250    14.0127530410
Ni     -0.0005705122     0.0009881560    16.0125569542
Ni      8.5999711280     2.1290713783    16.0125629961
Ni      9.8286327563     4.2571562727    16.0125627954
Ni      2.4567251415     0.0009834267    16.0125627954
Ni      3.6853866365     2.1290769955    16.0125624290
Ni      4.9140303554     4.2571516396    16.0125546667
Ni      4.9140315360     0.0009931631    16.0125629961
Ni      6.1426751452     2.1290764373    16.0125554157
Ni      7.3713189167     4.2571509903    16.0125624290
Cu      1.6386985344     1.4178563820    18.0219215530
Cu      2.8673524044     3.5459401721    18.0219204353
Cu      4.0959999073     5.6740219370    18.0219178739
Cu      4.0960012389     1.4178591640    18.0219190348
Cu      5.3246488432     3.5459395548    18.0219134311
Cu      6.5532965284     5.6740210038    18.0219204353
Cu      6.5532966115     1.4178591949    18.0219154932
Cu      7.7819443256     3.5459393972    18.0219190348
Cu      9.0105980866     5.6740245728    18.0219215530
Cu      2.0477494240     0.7093612090    20.0323427102
Cu      3.2763990780     2.8374448350    20.0323419228
Cu      4.5050487700     4.9655285250    20.0323417096
Cu      4.5050488060     0.7093612090    20.0323422363
Cu      5.7336984610     2.8374448350    20.0323408774
Cu      6.9623481520     4.9655285250    20.0323419228
Cu      6.9623481150     0.7093612090    20.0323418784
Cu      8.1909977700     2.8374448350    20.0323422363
Cu      9.4196474610     4.9655285250    20.0323427102
Cu      0.0007210646    -0.0012489205    22.0397797007
Cu      8.6012687566     2.1268351686    22.0397795066
Cu      9.8299181127     4.2549187201    22.0397796241
Cu      2.4580202407    -0.0012485010    22.0397796241
Cu      3.6866698810     2.1268351031    22.0397796715
Cu      4.9153195833     4.2549186313    22.0397798547
Cu      4.9153193362    -0.0012487211    22.0397795066
Cu      6.1439690366     2.1268353517    22.0397793032
Cu      7.3726188303     4.2549187218    22.0397796715
Cu      1.6472614134     1.4030274781    24.0800362778
Cu      2.8759107910     3.5311110502    24.0800360566
Cu      4.1045606836     5.6591942373    24.0800361438
Cu      4.1045601817     1.4030271122    24.0800360161
Cu      5.3332103332     3.5311106191    24.0800357743
Cu      6.5618597314     5.6591946626    24.0800360566
Cu      6.5618597691     1.4030273709    24.0800364301
Cu      7.7905097878     3.5311111094    24.0800360161
Cu      9.0191588546     5.6591944501    24.0800362778
72
Step 2 | ATOMIC_POSITIONS (angstrom) | Cartesian Angstrom
Ni      0.0000000000     0.0000000000    10.0000000900
Ni      8.6005476670     2.1280836470    10.0000000900
Ni      9.8291973330     4.2561672950    10.0000000900
Ni      2.4572993330     0.0000000000    10.0000000900
Ni      3.6859490000     2.1280836470    10.0000000900
Ni      4.9145986670     4.2561672950    10.0000000900
Ni      4.9145986670     0.0000000000    10.0000000900
Ni      6.1432483330     2.1280836470    10.0000000900
Ni      7.3718980000     4.2561672950    10.0000000900
Ni      1.6381995390     1.4187224170    12.0063763950
Ni      2.8668492300     3.5468061070    12.0063763950
Ni      4.0954988850     5.6748897330    12.0063763950
Ni      4.0954988480     1.4187224170    12.0063763950
Ni      5.3241485390     3.5468061070    12.0063763950
Ni      6.5527981940     5.6748897330    12.0063763950
Ni      6.5527982300     1.4187224170    12.0063763950
Ni      7.7814479220     3.5468061070    12.0063763950
Ni      9.0100975760     5.6748897330    12.0063763950
Ni      2.0477494240     0.7093612090    14.0127530410
Ni      3.2763990780     2.8374448350    14.0127530410
Ni      4.5050487700     4.9655285250    14.0127530410
Ni      4.5050488060     0.7093612090    14.0127530410
Ni      5.7336984610     2.8374448350    14.0127530410
Ni      6.9623481520     4.9655285250    14.0127530410
Ni      6.9623481150     0.7093612090    14.0127530410
Ni      8.1909977700     2.8374448350    14.0127530410
Ni      9.4196474610     4.9655285250    14.0127530410
Ni     -0.0008871090     0.0015365179    16.0064042726
Ni      8.5996542027     2.1296189204    16.0064099934
Ni      9.8283157522     4.2577066232    16.0064092356
Ni      2.4564070261     0.0015331355    16.0064092356
Ni      3.6850689427     2.1296254408    16.0064096615
Ni      4.9137125596     4.2577020780    16.0064029406
Ni      4.9137158133     0.0015413995    16.0064099934
Ni      6.1423598485     2.1296225474    16.0064045574
Ni      7.3710027961     4.2577003438    16.0064096615
Cu      1.6393727291     1.4166878206    18.0172567011
Cu      2.8680263398     3.5447725166    18.0172561051
Cu      4.0966740718     5.6728542497    18.0172514307
Cu      4.0966755228     1.4166900400    18.0172555999
Cu      5.3253233559     3.5447712645    18.0172495104
Cu      6.5539707801     5.6728535308    18.0172561051
Cu      6.5539718637     1.4166896238    18.0172503610
Cu      7.7826196747     3.5447708882    18.0172555999
Cu      9.0112729931     5.6728564224    18.0172567011
Cu      2.0477494240     0.7093612090    20.0326944087
Cu      3.2763990780     2.8374448350    20.0326939912
Cu      4.5050487700     4.9655285250    20.0326931365
Cu      4.5050488060     0.7093612090    20.0326935774
Cu      5.7336984610     2.8374448350    20.0326914212
Cu      6.9623481520     4.9655285250    20.0326939912
Cu      6.9623481150     0.7093612090    20.0326921916
Cu      8.1909977700     2.8374448350    20.0326935774
Cu      9.4196474610     4.9655285250    20.0326944087
Cu      0.0031326065    -0.0054258335    22.0500739561
Cu      8.6036801429     2.1226581235    22.0500743187
Cu      9.8323298315     4.2507418354    22.0500744953
Cu      2.4604316696    -0.0054255531    22.0500744953
Cu      3.6890815677     2.1226580987    22.0500745027
Cu      4.9177310835     4.2507417905    22.0500740435
Cu      4.9177310702    -0.0054255654    22.0500743187
Cu      6.1463805807     2.1226584349    22.0500738665
Cu      7.3750303788     4.2507416376    22.0500745027
Cu      1.6577645003     1.3848353973    24.1184105269
Cu      2.8864139214     3.5129191546    24.1184105794
Cu      4.1150636193     5.6410026192    24.1184109638
Cu      4.1150632754     1.3848353834    24.1184105792
Cu      5.3437133054     3.5129189375    24.1184101331
Cu      6.5723628100     5.6410027371    24.1184105794
Cu      6.5723626748     1.3848358045    24.1184106160
Cu      7.8010127402     3.5129192990    24.1184105792
Cu      9.0296621153     5.6410024696    24.1184105269
72
Step 3 | ATOMIC_POSITIONS (angstrom) | Cartesian Angstrom
Ni      0.0000000000     0.0000000000    10.0000000900
Ni      8.6005476670     2.1280836470    10.0000000900
Ni      9.8291973330     4.2561672950    10.0000000900
Ni      2.4572993330     0.0000000000    10.0000000900
Ni      3.6859490000     2.1280836470    10.0000000900
Ni      4.9145986670     4.2561672950    10.0000000900
Ni      4.9145986670     0.0000000000    10.0000000900
Ni      6.1432483330     2.1280836470    10.0000000900
Ni      7.3718980000     4.2561672950    10.0000000900
Ni      1.6381995390     1.4187224170    12.0063763950
Ni      2.8668492300     3.5468061070    12.0063763950
Ni      4.0954988850     5.6748897330    12.0063763950
Ni      4.0954988480     1.4187224170    12.0063763950
Ni      5.3241485390     3.5468061070    12.0063763950
Ni      6.5527981940     5.6748897330    12.0063763950
Ni      6.5527982300     1.4187224170    12.0063763950
Ni      7.7814479220     3.5468061070    12.0063763950
Ni      9.0100975760     5.6748897330    12.0063763950
Ni      2.0477494240     0.7093612090    14.0127530410
Ni      3.2763990780     2.8374448350    14.0127530410
Ni      4.5050487700     4.9655285250    14.0127530410
Ni      4.5050488060     0.7093612090    14.0127530410
Ni      5.7336984610     2.8374448350    14.0127530410
Ni      6.9623481520     4.9655285250    14.0127530410
Ni      6.9623481150     0.7093612090    14.0127530410
Ni      8.1909977700     2.8374448350    14.0127530410
Ni      9.4196474610     4.9655285250    14.0127530410
Ni     -0.0009402502     0.0016285611    15.9987168898
Ni      8.5995954402     2.1297075946    15.9987294985
Ni      9.8282683209     4.2578022816    15.9987281755
Ni      2.4563478991     0.0016220413    15.9987281755
Ni      3.6850213975     2.1297211617    15.9987287870
Ni      4.9136590425     4.2577947724    15.9987144095
Ni      4.9136684006     0.0016366264    15.9987294985
Ni      6.1423067226     2.1297145640    15.9987166278
Ni      7.3709436720     4.2577893797    15.9987287870
Cu      1.6406917624     1.4143983709    18.0102099781
Cu      2.8693491607     3.5424857174    18.0102093275
Cu      4.0979950479     5.6705662521    18.0101997170
Cu      4.0979984360     1.4144026985    18.0102089742
Cu      5.3266444505     3.5424830614    18.0101982356
Cu      6.5552897958     5.6705645347    18.0102093275
Cu      6.5552933614     1.4144007226    18.0101991282
Cu      7.7839391139     3.5424815410    18.0102089742
Cu      9.0125961981     5.6705693811    18.0102099781
Cu      2.0477494240     0.7093612090    20.0360356567
Cu      3.2763990780     2.8374448350    20.0360353332
Cu      4.5050487700     4.9655285250    20.0360324386
Cu      4.5050488060     0.7093612090    20.0360348830
Cu      5.7336984610     2.8374448350    20.0360306954
Cu      6.9623481520     4.9655285250    20.0360353332
Cu      6.9623481150     0.7093612090    20.0360310952
Cu      8.1909977700     2.8374448350    20.0360348830
Cu      9.4196474610     4.9655285250    20.0360356567
Cu      0.0079958312    -0.0138491859    22.0719055393
Cu      8.6085435944     2.1142346772    22.0719061285
Cu      9.8371931911     4.2423180806    22.0719066615
Cu      2.4652951755    -0.0138492235    22.0719066615
Cu      3.6939446939     2.1142347199    22.0719064186
Cu      4.9225943606     4.2423183475    22.0719056762
Cu      4.9225942630    -0.0138491612    22.0719061285
Cu      6.1512438981     2.1142349220    22.0719052842
Cu      7.3798936757     4.2423183575    22.0719064186
Cu      1.6741637299     1.3564312262    24.1752477744
Cu      2.9028132473     3.4845148411    24.1752477479
Cu      4.1314629275     5.6125981841    24.1752481524
Cu      4.1314623646     1.3564306977    24.1752476814
Cu      5.3601125456     3.4845146204    24.1752470649
Cu      6.5887620041     5.6125983475    24.1752477479
Cu      6.5887619824     1.3564313706    24.1752475499
Cu      7.8174123751     3.4845149284    24.1752476814
Cu      9.0460612342     5.6125982347    24.1752477744
72
Step 4 | ATOMIC_POSITIONS (angstrom) | Cartesian Angstrom
Ni      0.0000000000     0.0000000000    10.0000000900
Ni      8.6005476670     2.1280836470    10.0000000900
Ni      9.8291973330     4.2561672950    10.0000000900
Ni      2.4572993330     0.0000000000    10.0000000900
Ni      3.6859490000     2.1280836470    10.0000000900
Ni      4.9145986670     4.2561672950    10.0000000900
Ni      4.9145986670     0.0000000000    10.0000000900
Ni      6.1432483330     2.1280836470    10.0000000900
Ni      7.3718980000     4.2561672950    10.0000000900
Ni      1.6381995390     1.4187224170    12.0063763950
Ni      2.8668492300     3.5468061070    12.0063763950
Ni      4.0954988850     5.6748897330    12.0063763950
Ni      4.0954988480     1.4187224170    12.0063763950
Ni      5.3241485390     3.5468061070    12.0063763950
Ni      6.5527981940     5.6748897330    12.0063763950
Ni      6.5527982300     1.4187224170    12.0063763950
Ni      7.7814479220     3.5468061070    12.0063763950
Ni      9.0100975760     5.6748897330    12.0063763950
Ni      2.0477494240     0.7093612090    14.0127530410
Ni      3.2763990780     2.8374448350    14.0127530410
Ni      4.5050487700     4.9655285250    14.0127530410
Ni      4.5050488060     0.7093612090    14.0127530410
Ni      5.7336984610     2.8374448350    14.0127530410
Ni      6.9623481520     4.9655285250    14.0127530410
Ni      6.9623481150     0.7093612090    14.0127530410
Ni      8.1909977700     2.8374448350    14.0127530410
Ni      9.4196474610     4.9655285250    14.0127530410
Ni     -0.0004276538     0.0007407182    15.9892784638
Ni      8.6000908562     2.1288123546    15.9893099999
Ni      9.8287969967     4.2569309875    15.9893063334
Ni      2.4568381241     0.0007285477    15.9893063334
Ni      3.6855452446     2.1288484479    15.9893097436
Ni      4.9141664899     4.2569158476    15.9892764137
Ni      4.9141959931     0.0007599636    15.9893099999
Ni      6.1428183863     2.1288283366    15.9892834055
Ni      7.3714375407     4.2568993579    15.9893097436
Cu      1.6434333313     1.4096355905    18.0016441689
Cu      2.8721021874     3.5377320617    18.0016429595
Cu      4.1007422768     5.6658079120    18.0016164921
Cu      4.1007502847     1.4096470208    18.0016443390
Cu      5.3293904378     3.5377268719    18.0016177315
Cu      6.5580300690     5.6658035158    18.0016429595
Cu      6.5580417690     1.4096403410    18.0016196665
Cu      7.7866817273     3.5377205313    18.0016443390
Cu      9.0153501024     5.6658137226    18.0016441689
Cu      2.0477494240     0.7093612090    20.0463874593
Cu      3.2763990780     2.8374448350    20.0463872346
Cu      4.5050487700     4.9655285250    20.0463788802
Cu      4.5050488060     0.7093612090    20.0463870519
Cu      5.7336984610     2.8374448350    20.0463779236
Cu      6.9623481520     4.9655285250    20.0463872346
Cu      6.9623481150     0.7093612090    20.0463778514
Cu      8.1909977700     2.8374448350    20.0463870519
Cu      9.4196474610     4.9655285250    20.0463874593
Cu      0.0165610225    -0.0286845323    22.1108210805
Cu      8.6171091852     2.0993987600    22.1108226790
Cu      9.8457586298     4.2274825520    22.1108233313
Cu      2.4738604008    -0.0286848752    22.1108233313
Cu      3.7025099821     2.0993991776    22.1108230539
Cu      4.9311597792     4.2274826072    22.1108213559
Cu      4.9311597488    -0.0286851390    22.1108226790
Cu      6.1598090876     2.0993995786    22.1108204429
Cu      7.3884589881     4.2274828290    22.1108230539
Cu      1.6996477022     1.3122920204    24.2594570288
Cu      2.9282971045     3.4403752200    24.2594568811
Cu      4.1569465957     5.5684591761    24.2594562613
Cu      4.1569459564     1.3122909035    24.2594572380
Cu      5.3855964827     3.4403751465    24.2594547858
Cu      6.6142461086     5.5684588692    24.2594568811
Cu      6.6142458037     1.3122920973    24.2594552795
Cu      7.8428967622     3.4403755934    24.2594572380
Cu      9.0715449216     5.5684588643    24.2594570288
