2
Step 1 | ATOMIC_POSITIONS (angstrom) | Cartesian Angstrom
O       5.2049700424     3.0950966995     5.1689345234
H       6.1933071376     3.0604464615     5.1838846606
2
Step 2 | ATOMIC_POSITIONS (angstrom) | Cartesian Angstrom
O       5.2065417129     3.0950420101     5.1689607046
H       6.1917354671     3.0605011509     5.1838584794
2
Step 3 | ATOMIC_POSITIONS (angstrom) | Cartesian Angstrom
O       5.2065417129     3.0950420101     5.1689607046
H       6.1917354671     3.0605011509     5.1838584794
