2
Step 1 | ATOMIC_POSITIONS (angstrom) | Cartesian Angstrom
O       5.2049848108     3.0951318968     5.1688929277
H       6.1932923692     3.0604112642     5.1839262563
2
Step 2 | ATOMIC_POSITIONS (angstrom) | Cartesian Angstrom
O       5.2065671739     3.0950757509     5.1689214273
H       6.1917100061     3.0604674101     5.1838977567
2
Step 3 | ATOMIC_POSITIONS (angstrom) | Cartesian Angstrom
O       5.2065671739     3.0950757509     5.1689214273
H       6.1917100061     3.0604674101     5.1838977567
