2
Step 1 | ATOMIC_POSITIONS (angstrom) | Cartesian Angstrom
O       5.2050604556     3.0951381853     5.1688988008
H       6.1932167244     3.0604049757     5.1839203832
2
Step 2 | ATOMIC_POSITIONS (angstrom) | Cartesian Angstrom
O       5.2066026959     3.0950780706     5.1689260300
H       6.1916744841     3.0604650904     5.1838931540
2
Step 3 | ATOMIC_POSITIONS (angstrom) | Cartesian Angstrom
O       5.2066026959     3.0950780706     5.1689260300
H       6.1916744841     3.0604650904     5.1838931540
