74
Step 1 | ATOMIC_POSITIONS (angstrom) | Cartesian Angstrom
Ni      0.0000000000     0.0000000000    10.0000000900
Ni      8.6005476670     2.1280836470    10.0000000900
Ni      9.8291973330     4.2561672950    10.0000000900
Ni      2.4572993330     0.0000000000    10.0000000900
Ni      3.6859490000     2.1280836470    10.0000000900
Ni      4.9145986670     4.2561672950    10.0000000900
Ni      4.9145986670     0.0000000000    10.0000000900
Ni      6.1432483330     2.1280836470    10.0000000900
Ni      7.3718980000     4.2561672950    10.0000000900
Ni      1.6381995390     1.4187224170    12.0063763950
Ni      2.8668492300     3.5468061070    12.0063763950
Ni      4.0954988850     5.6748897330    12.0063763950
Ni      4.0954988480     1.4187224170    12.0063763950
Ni      5.3241485390     3.5468061070    12.0063763950
Ni      6.5527981940     5.6748897330    12.0063763950
Ni      6.5527982300     1.4187224170    12.0063763950
Ni      7.7814479220     3.5468061070    12.0063763950
Ni      9.0100975760     5.6748897330    12.0063763950
Ni      2.0477494240     0.7093612090    14.0127530410
Ni      3.2763990780     2.8374448350    14.0127530410
Ni      4.5050487700     4.9655285250    14.0127530410
Ni      4.5050488060     0.7093612090    14.0127530410
Ni      5.7336984610     2.8374448350    14.0127530410
Ni      6.9623481520     4.9655285250    14.0127530410
Ni      6.9623481150     0.7093612090    14.0127530410
Ni      8.1909977700     2.8374448350    14.0127530410
Ni      9.4196474610     4.9655285250    14.0127530410
Ni      0.2219535440    -0.3844348150    16.0346322610
Ni      8.8225203380     1.7436790770    16.0347677870
Ni     10.0511134640     3.8717235960    16.0347600380
Ni      2.6792792770    -0.3844068560    16.0347600380
Ni      3.9079067200     1.7436614180    16.0347555120
Ni      5.1365311080     3.8717690310    16.0346226390
Ni      5.1365164550    -0.3844362570    16.0347677870
Ni      6.3652073280     1.7436393910    16.0346221070
Ni      7.5938385560     3.8717351570    16.0347555120
Cu      2.0723744710     0.6666908500    18.1188401140
Cu      3.3010364020     2.7947772280    18.1188294380
Cu      4.5296848840     4.9228575240    18.1186684400
Cu      4.5296771200     0.6666970110    18.1188367610
Cu      5.7583325920     2.7947772670    18.1186160230
Cu      6.9869807220     4.9228581720    18.1188294380
Cu      6.9869802900     0.6666970300    18.1186522440
Cu      8.2156318920     2.7947839910    18.1188367610
Cu      9.4442885520     4.9228674280    18.1188401140
Cu      2.0477494240     0.7093612090    20.5305373300
Cu      3.2763990780     2.8374448350    20.5305290830
Cu      4.5050487700     4.9655285250    20.5303270790
Cu      4.5050488060     0.7093612090    20.5305312910
Cu      5.7336984610     2.8374448350    20.5302848030
Cu      6.9623481520     4.9655285250    20.5305290830
Cu      6.9623481150     0.7093612090    20.5303102470
Cu      8.1909977700     2.8374448350    20.5305312910
Cu      9.4196474610     4.9655285250    20.5305373300
Cu      0.1996576410    -0.3458171780    22.6496925520
Cu      8.8002014820     1.7822648550    22.6499310210
Cu     10.0288585330     3.9103492740    22.6499306530
Cu      2.6569559250    -0.3458206820    22.6499306530
Cu      3.8856048760     1.7822645930    22.6499270560
Cu      5.1142599260     3.9103438500    22.6496806750
Cu      5.1142596180    -0.3458146710    22.6499310210
Cu      6.3429051830     1.7822678380    22.6496760870
Cu      7.5715581480     3.9103507070    22.6499270560
Cu      2.0403454041     0.7221080656    24.7272766134
Cu      3.2633536616     2.8503773987    24.7237245205
Cu      4.4949539318     4.9832173245    24.7227801763
Cu      4.4955759391     0.7166202121    24.7236915649
Cu      5.7352142556     2.8398744772    24.5673428020
Cu      6.9578049113     4.9833802092    24.7235932757
Cu      6.9579708370     0.7171028806    24.7228567607
Cu      8.1895099789     2.8493622150    24.7237072569
Cu      9.4122676149     4.9783109470    24.7272965227
O       5.6382167007     2.9348689046    26.5207364886
H       5.5592220300     2.9412888428    27.4803056789
74
Step 2 | ATOMIC_POSITIONS (angstrom) | Cartesian Angstrom
Ni      0.0000000000     0.0000000000    10.0000000900
Ni      8.6005476670     2.1280836470    10.0000000900
Ni      9.8291973330     4.2561672950    10.0000000900
Ni      2.4572993330     0.0000000000    10.0000000900
Ni      3.6859490000     2.1280836470    10.0000000900
Ni      4.9145986670     4.2561672950    10.0000000900
Ni      4.9145986670     0.0000000000    10.0000000900
Ni      6.1432483330     2.1280836470    10.0000000900
Ni      7.3718980000     4.2561672950    10.0000000900
Ni      1.6381995390     1.4187224170    12.0063763950
Ni      2.8668492300     3.5468061070    12.0063763950
Ni      4.0954988850     5.6748897330    12.0063763950
Ni      4.0954988480     1.4187224170    12.0063763950
Ni      5.3241485390     3.5468061070    12.0063763950
Ni      6.5527981940     5.6748897330    12.0063763950
Ni      6.5527982300     1.4187224170    12.0063763950
Ni      7.7814479220     3.5468061070    12.0063763950
Ni      9.0100975760     5.6748897330    12.0063763950
Ni      2.0477494240     0.7093612090    14.0127530410
Ni      3.2763990780     2.8374448350    14.0127530410
Ni      4.5050487700     4.9655285250    14.0127530410
Ni      4.5050488060     0.7093612090    14.0127530410
Ni      5.7336984610     2.8374448350    14.0127530410
Ni      6.9623481520     4.9655285250    14.0127530410
Ni      6.9623481150     0.7093612090    14.0127530410
Ni      8.1909977700     2.8374448350    14.0127530410
Ni      9.4196474610     4.9655285250    14.0127530410
Ni      0.2219535440    -0.3844348150    16.0346322610
Ni      8.8225203380     1.7436790770    16.0347677870
Ni     10.0511134640     3.8717235960    16.0347600380
Ni      2.6792792770    -0.3844068560    16.0347600380
Ni      3.9079067200     1.7436614180    16.0347555120
Ni      5.1365311080     3.8717690310    16.0346226390
Ni      5.1365164550    -0.3844362570    16.0347677870
Ni      6.3652073280     1.7436393910    16.0346221070
Ni      7.5938385560     3.8717351570    16.0347555120
Cu      2.0723744710     0.6666908500    18.1188401140
Cu      3.3010364020     2.7947772280    18.1188294380
Cu      4.5296848840     4.9228575240    18.1186684400
Cu      4.5296771200     0.6666970110    18.1188367610
Cu      5.7583325920     2.7947772670    18.1186160230
Cu      6.9869807220     4.9228581720    18.1188294380
Cu      6.9869802900     0.6666970300    18.1186522440
Cu      8.2156318920     2.7947839910    18.1188367610
Cu      9.4442885520     4.9228674280    18.1188401140
Cu      2.0477494240     0.7093612090    20.5305373300
Cu      3.2763990780     2.8374448350    20.5305290830
Cu      4.5050487700     4.9655285250    20.5303270790
Cu      4.5050488060     0.7093612090    20.5305312910
Cu      5.7336984610     2.8374448350    20.5302848030
Cu      6.9623481520     4.9655285250    20.5305290830
Cu      6.9623481150     0.7093612090    20.5303102470
Cu      8.1909977700     2.8374448350    20.5305312910
Cu      9.4196474610     4.9655285250    20.5305373300
Cu      0.1996576410    -0.3458171780    22.6496925520
Cu      8.8002014820     1.7822648550    22.6499310210
Cu     10.0288585330     3.9103492740    22.6499306530
Cu      2.6569559250    -0.3458206820    22.6499306530
Cu      3.8856048760     1.7822645930    22.6499270560
Cu      5.1142599260     3.9103438500    22.6496806750
Cu      5.1142596180    -0.3458146710    22.6499310210
Cu      6.3429051830     1.7822678380    22.6496760870
Cu      7.5715581480     3.9103507070    22.6499270560
Cu      2.0404200500     0.7221077942    24.7289448846
Cu      3.2621087610     2.8505543048    24.7250210416
Cu      4.4944951069     4.9841103854    24.7234026171
Cu      4.4949065971     0.7141624530    24.7244503030
Cu      5.7340582202     2.8402740664    24.6032333215
Cu      6.9586528084     4.9850328767    24.7243652619
Cu      6.9595968725     0.7143938306    24.7225445724
Cu      8.1924595929     2.8487825199    24.7241600544
Cu      9.4121894927     4.9782428881    24.7289834682
O       5.6381986994     2.9377157505    26.5039187643
H       5.5576781311     2.9406334000    27.4799059807
74
Step 3 | ATOMIC_POSITIONS (angstrom) | Cartesian Angstrom
Ni      0.0000000000     0.0000000000    10.0000000900
Ni      8.6005476670     2.1280836470    10.0000000900
Ni      9.8291973330     4.2561672950    10.0000000900
Ni      2.4572993330     0.0000000000    10.0000000900
Ni      3.6859490000     2.1280836470    10.0000000900
Ni      4.9145986670     4.2561672950    10.0000000900
Ni      4.9145986670     0.0000000000    10.0000000900
Ni      6.1432483330     2.1280836470    10.0000000900
Ni      7.3718980000     4.2561672950    10.0000000900
Ni      1.6381995390     1.4187224170    12.0063763950
Ni      2.8668492300     3.5468061070    12.0063763950
Ni      4.0954988850     5.6748897330    12.0063763950
Ni      4.0954988480     1.4187224170    12.0063763950
Ni      5.3241485390     3.5468061070    12.0063763950
Ni      6.5527981940     5.6748897330    12.0063763950
Ni      6.5527982300     1.4187224170    12.0063763950
Ni      7.7814479220     3.5468061070    12.0063763950
Ni      9.0100975760     5.6748897330    12.0063763950
Ni      2.0477494240     0.7093612090    14.0127530410
Ni      3.2763990780     2.8374448350    14.0127530410
Ni      4.5050487700     4.9655285250    14.0127530410
Ni      4.5050488060     0.7093612090    14.0127530410
Ni      5.7336984610     2.8374448350    14.0127530410
Ni      6.9623481520     4.9655285250    14.0127530410
Ni      6.9623481150     0.7093612090    14.0127530410
Ni      8.1909977700     2.8374448350    14.0127530410
Ni      9.4196474610     4.9655285250    14.0127530410
Ni      0.2219535440    -0.3844348150    16.0346322610
Ni      8.8225203380     1.7436790770    16.0347677870
Ni     10.0511134640     3.8717235960    16.0347600380
Ni      2.6792792770    -0.3844068560    16.0347600380
Ni      3.9079067200     1.7436614180    16.0347555120
Ni      5.1365311080     3.8717690310    16.0346226390
Ni      5.1365164550    -0.3844362570    16.0347677870
Ni      6.3652073280     1.7436393910    16.0346221070
Ni      7.5938385560     3.8717351570    16.0347555120
Cu      2.0723744710     0.6666908500    18.1188401140
Cu      3.3010364020     2.7947772280    18.1188294380
Cu      4.5296848840     4.9228575240    18.1186684400
Cu      4.5296771200     0.6666970110    18.1188367610
Cu      5.7583325920     2.7947772670    18.1186160230
Cu      6.9869807220     4.9228581720    18.1188294380
Cu      6.9869802900     0.6666970300    18.1186522440
Cu      8.2156318920     2.7947839910    18.1188367610
Cu      9.4442885520     4.9228674280    18.1188401140
Cu      2.0477494240     0.7093612090    20.5305373300
Cu      3.2763990780     2.8374448350    20.5305290830
Cu      4.5050487700     4.9655285250    20.5303270790
Cu      4.5050488060     0.7093612090    20.5305312910
Cu      5.7336984610     2.8374448350    20.5302848030
Cu      6.9623481520     4.9655285250    20.5305290830
Cu      6.9623481150     0.7093612090    20.5303102470
Cu      8.1909977700     2.8374448350    20.5305312910
Cu      9.4196474610     4.9655285250    20.5305373300
Cu      0.1996576410    -0.3458171780    22.6496925520
Cu      8.8002014820     1.7822648550    22.6499310210
Cu     10.0288585330     3.9103492740    22.6499306530
Cu      2.6569559250    -0.3458206820    22.6499306530
Cu      3.8856048760     1.7822645930    22.6499270560
Cu      5.1142599260     3.9103438500    22.6496806750
Cu      5.1142596180    -0.3458146710    22.6499310210
Cu      6.3429051830     1.7822678380    22.6496760870
Cu      7.5715581480     3.9103507070    22.6499270560
Cu      2.0405607149     0.7220744332    24.7310517850
Cu      3.2606301363     2.8506823387    24.7262198765
Cu      4.4939884501     4.9851393437    24.7237639255
Cu      4.4941317671     0.7112810832    24.7250390481
Cu      5.7329796146     2.8402823985    24.6427210839
Cu      6.9597098395     4.9868954150    24.7249605053
Cu      6.9614532224     0.7113284965    24.7218702391
Cu      8.1958596307     2.8481092380    24.7244128713
Cu      9.4121327152     4.9781142378    24.7311159095
O       5.6369975532     2.9418938123    26.4986183519
H       5.5567332672     2.9395740994    27.4667586318
