74
Step 1 | ATOMIC_POSITIONS (angstrom) | Cartesian Angstrom
Ni      1.2286397982     0.7093549161     8.0126887546
Ni      0.0000026230     0.0000001010    10.0192268867
Ni      2.4638419149     1.4224972223    12.0714011586
Ni      1.2395995760     0.7156920844    14.1224152261
Ni      2.4572811586     2.8374258063     8.0126887546
Ni      1.2286439834     2.1280709912    10.0192268867
Ni      3.6926889892     3.5506731643    12.0708437261
Ni      2.4683109761     2.8435872622    14.1212924057
Ni      3.6859593785     4.9655605392     8.0126887546
Ni      2.4573185174     4.2561993398    10.0192268867
Ni      4.9217299606     5.6791039266    12.0712868594
Ni      3.6968809261     4.9716079287    14.1219263611
Ni      3.6859225971     0.7093549161     8.0126887546
Ni      2.4572854219     0.0000001010    10.0192268867
Ni      4.9213131966     1.4226264560    12.0708452668
Ni      3.6967698525     0.7158219497    14.1212828811
Ni      4.9145639575     2.8374258063     8.0126887546
Ni      3.6859267823     2.1280709912    10.0192268867
Ni      6.1503222198     3.5508884295    12.0701564859
Ni      4.9256765855     2.8438385272    14.1203471881
Ni      6.1432421774     4.9655605392     8.0126887546
Ni      4.9146013163     4.2561993398    10.0192268867
Ni      7.3793509716     5.6793033661    12.0705475894
Ni      6.1541691867     4.9717481329    14.1211294668
Ni      6.1432717431     0.7093549161     8.0126887546
Ni      4.9146345679     0.0000001010    10.0192268867
Ni      7.3791083648     1.4227969404    12.0712791593
Ni      6.1539841241     0.7157930102    14.1219367102
Ni      7.3719131035     2.8374258063     8.0126887546
Ni      6.1432759283     2.1280709912    10.0192268867
Ni      8.6080948081     3.5510577880    12.0705508849
Ni      7.3827357142     2.8437836460    14.1210995943
Ni      8.6005913234     4.9655605392     8.0126887546
Ni      7.3719504623     4.2561993398    10.0192268867
Ni      9.8370904883     5.6794509856    12.0711881908
Ni      8.6114421755     4.9718269452    14.1216800162
Cu     11.0363120866     6.3742212181    22.6380110380
Cu      8.5638573851     2.1179285762    22.6102815230
Cu      9.8047112167     4.2592432453    22.6163335258
Cu      6.1136379456     6.3558690002    22.5881286483
Cu      0.0126372421     0.0072885600    16.2329238489
Cu      2.4699092808     1.4261581124    18.3879529165
Cu      1.2210197716     0.7071590268    20.4986447662
Cu      3.6648210906     2.1172411678    22.7275656842
Cu      1.2416377509     2.1360104249    16.2318106830
Cu      3.6973215410     3.5530533730    18.3885449770
Cu      2.4574668278     2.8298674322    20.5302589509
Cu      4.8970251292     4.2520177577    22.6250820342
Cu      8.5873890541     6.3647813250    22.6127632481
Cu      2.4706419339     0.0073014817    16.2318010936
Cu      4.9257413025     1.4255830630    18.3882960914
Cu      3.6793233328     0.7144066485    20.5224878303
Cu      6.1292219717     2.1177910605    22.6229924637
Cu      3.6998064554     2.1360895206    16.2302165218
Cu      6.1534486029     3.5525462455    18.3890978606
Cu      4.8975986012     2.8287758584    20.5299534323
Cu      7.3512747489     4.2461314938    22.6321653740
Cu      2.4703206777     4.2638462941    16.2321251084
Cu      4.9253942198     5.6819925538    18.3888127025
Cu      3.6791352801     4.9618769638    20.5034322326
Cu      4.9283233037     4.2640407630    16.2309817412
Cu      7.3826589457     5.6826961903    18.3896890854
Cu      6.1358319248     4.9577713025    20.4897346256
Cu      4.9277631008     0.0074397299    16.2321527238
Cu      7.3834676618     1.4246892871    18.3889161612
Cu      6.1355975043     0.7068985873    20.5017077680
Cu      6.1569409390     2.1360568535    16.2310139467
Cu      8.6127212142     3.5521158844    18.3901701835
Cu      7.3634296861     2.8346709294    20.4964249140
Cu      7.3854765950     4.2639883102    16.2316737671
Cu      9.8399433600     5.6810423217    18.3902105441
Cu      8.5923177552     4.9612256039    20.4954422025
O       3.4699194216     1.9978346678    24.5774795338
H       3.5598431348     1.9680079322    25.5291901741
74
Step 2 | ATOMIC_POSITIONS (angstrom) | Cartesian Angstrom
Ni      1.2286397982     0.7093549161     8.0126887546
Ni      0.0000026230     0.0000001010    10.0192268867
Ni      2.4639442813     1.4225523764    12.0717705316
Ni      1.2393607557     0.7155589119    14.1223844931
Ni      2.4572811586     2.8374258063     8.0126887546
Ni      1.2286439834     2.1280709912    10.0192268867
Ni      3.6926850007     3.5505807879    12.0713056675
Ni      2.4680851887     2.8437124746    14.1213903786
Ni      3.6859593785     4.9655605392     8.0126887546
Ni      2.4573185174     4.2561993398    10.0192268867
Ni      4.9216699548     5.6789104038    12.0717517938
Ni      3.6967714297     4.9717091876    14.1218379845
Ni      3.6859225971     0.7093549161     8.0126887546
Ni      2.4572854219     0.0000001010    10.0192268867
Ni      4.9212320155     1.4226706982    12.0713076502
Ni      3.6967667601     0.7155581746    14.1213662090
Ni      4.9145639575     2.8374258063     8.0126887546
Ni      3.6859267823     2.1280709912    10.0192268867
Ni      6.1502573462     3.5508528767    12.0704029769
Ni      4.9256888127     2.8438463863    14.1204894612
Ni      6.1432421774     4.9655605392     8.0126887546
Ni      4.9146013163     4.2561993398    10.0192268867
Ni      7.3791895654     5.6790679867    12.0708617943
Ni      6.1541288855     4.9717857585    14.1212832509
Ni      6.1432717431     0.7093549161     8.0126887546
Ni      4.9146345679     0.0000001010    10.0192268867
Ni      7.3789050366     1.4228363139    12.0717303199
Ni      6.1540251902     0.7156501254    14.1218665962
Ni      7.3719131035     2.8374258063     8.0126887546
Ni      6.1432759283     2.1280709912    10.0192268867
Ni      8.6078139234     3.5510412768    12.0708694182
Ni      7.3827381826     2.8437201705    14.1212143023
Ni      8.6005913234     4.9655605392     8.0126887546
Ni      7.3719504623     4.2561993398    10.0192268867
Ni      9.8367089551     5.6792300226    12.0717088908
Ni      8.6114508511     4.9718412516    14.1217299603
Cu     11.0365072895     6.3743762826    22.6363239546
Cu      8.5628361512     2.1177180367    22.6120084538
Cu      9.8040655597     4.2603864184    22.6166229848
Cu      6.1134686890     6.3564506339    22.5920525248
Cu      0.0126616918     0.0072909259    16.2322955696
Cu      2.4701729919     1.4265015206    18.3827060243
Cu      1.2216974751     0.7075192993    20.4983151205
Cu      3.6703495910     2.1184125811    22.7316610890
Cu      1.2415741617     2.1358694720    16.2312741924
Cu      3.6968913452     3.5518546031    18.3838638387
Cu      2.4590964097     2.8288708439    20.5306075698
Cu      4.8979466759     4.2537245308    22.6239142648
Cu      8.5881176269     6.3641647194    22.6135091335
Cu      2.4704659053     0.0073376185    16.2312463558
Cu      4.9245340650     1.4259736363    18.3832657779
Cu      3.6793070042     0.7162037406    20.5229759519
Cu      6.1314904567     2.1176462110    22.6223222993
Cu      3.6996203258     2.1359882804    16.2295062574
Cu      6.1518548763     3.5514461865    18.3845673890
Cu      4.8963387545     2.8279456476    20.5302059652
Cu      7.3513638329     4.2456476635    22.6293856643
Cu      2.4702552539     4.2637622651    16.2315617215
Cu      4.9247638953     5.6817343118    18.3830704099
Cu      3.6793028304     4.9612162268    20.5031307021
Cu      4.9281466056     4.2639354193    16.2305795627
Cu      7.3824493264     5.6837848501    18.3846137021
Cu      6.1355678038     4.9584499882    20.4907498131
Cu      4.9276629070     0.0074214850    16.2316202132
Cu      7.3829471140     1.4244717141    18.3833147424
Cu      6.1351295693     0.7073527961    20.5016241312
Cu      6.1567761421     2.1359817676    16.2306521485
Cu      8.6136047969     3.5512638382    18.3857707262
Cu      7.3635556813     2.8341095812    20.4969362908
Cu      7.3852851092     4.2638464774    16.2314934793
Cu      9.8397671733     5.6808790289    18.3848015211
Cu      8.5927759231     4.9616265214    20.4962932890
O       3.4591208456     1.9953815773    24.5693156432
H       3.5657073312     1.9687025208    25.5249944233
74
Step 3 | ATOMIC_POSITIONS (angstrom) | Cartesian Angstrom
Ni      1.2286397982     0.7093549161     8.0126887546
Ni      0.0000026230     0.0000001010    10.0192268867
Ni      2.4640211097     1.4225940087    12.0721442669
Ni      1.2391285501     0.7154311397    14.1223223101
Ni      2.4572811586     2.8374258063     8.0126887546
Ni      1.2286439834     2.1280709912    10.0192268867
Ni      3.6926585705     3.5504839233    12.0717712376
Ni      2.4678544653     2.8438170709    14.1214661597
Ni      3.6859593785     4.9655605392     8.0126887546
Ni      2.4573185174     4.2561993398    10.0192268867
Ni      4.9215837496     5.6787297972    12.0722077566
Ni      3.6966583012     4.9717912481    14.1217391892
Ni      3.6859225971     0.7093549161     8.0126887546
Ni      2.4572854219     0.0000001010    10.0192268867
Ni      4.9211378090     1.4226969776    12.0717732184
Ni      3.6967453526     0.7153015662    14.1214257875
Ni      4.9145639575     2.8374258063     8.0126887546
Ni      3.6859267823     2.1280709912    10.0192268867
Ni      6.1501753139     3.5508059863    12.0706547494
Ni      4.9256893274     2.8438457820    14.1206227975
Ni      6.1432421774     4.9655605392     8.0126887546
Ni      4.9146013163     4.2561993398    10.0192268867
Ni      7.3790018684     5.6788373327    12.0711733541
Ni      6.1540787093     4.9718031962    14.1214367651
Ni      6.1432717431     0.7093549161     8.0126887546
Ni      4.9146345679     0.0000001010    10.0192268867
Ni      7.3786988410     1.4228474775    12.0721703234
Ni      6.1540470131     0.7155149220    14.1217877563
Ni      7.3719131035     2.8374258063     8.0126887546
Ni      6.1432759283     2.1280709912    10.0192268867
Ni      8.6075229435     3.5509977293    12.0711857410
Ni      7.3827184759     2.8436570958    14.1213259334
Ni      8.6005913234     4.9655605392     8.0126887546
Ni      7.3719504623     4.2561993398    10.0192268867
Ni      9.8363189291     5.6790060195    12.0722150978
Ni      8.6114327744     4.9718405387    14.1217845558
Cu     11.0367448055     6.3745192913    22.6343857050
Cu      8.5620911272     2.1175463152    22.6138044044
Cu      9.8035021728     4.2614621592    22.6168332909
Cu      6.1134406492     6.3572013562    22.5962741067
Cu      0.0126531857     0.0072789944    16.2313248736
Cu      2.4702988683     1.4267438748    18.3772102668
Cu      1.2224095929     0.7078626007    20.4977052241
Cu      3.6766465142     2.1199130192    22.7348124389
Cu      1.2414846326     2.1357339351    16.2304375725
Cu      3.6964058595     3.5507215768    18.3789625495
Cu      2.4606073099     2.8279274945    20.5309410888
Cu      4.8989822604     4.2555781778    22.6225341298
Cu      8.5889034658     6.3635368923    22.6142301257
Cu      2.4702777895     0.0073550351    16.2303825589
Cu      4.9233399344     1.4262646393    18.3780038821
Cu      3.6792642275     0.7178493199    20.5234139211
Cu      6.1339471520     2.1175204609    22.6214989854
Cu      3.6994143915     2.1358788222    16.2284486441
Cu      6.1503412135     3.5504264114    18.3799694896
Cu      4.8952286735     2.8271953160    20.5302704923
Cu      7.3514765992     4.2452400241    22.6262885078
Cu      2.4701650170     4.2636677754    16.2307097186
Cu      4.9241336990     5.6814299588    18.3771313831
Cu      3.6794499921     4.9605956539    20.5024121985
Cu      4.9279409240     4.2638088342    16.2298909789
Cu      7.3821797398     5.6847023272    18.3794352416
Cu      6.1353538039     4.9592071269    20.4914489154
Cu      4.9275482218     0.0073888894    16.2307847418
Cu      7.3823805852     1.4242447743    18.3775156148
Cu      6.1346836071     0.7077612798    20.5011232046
Cu      6.1565835037     2.1358908194    16.2299958414
Cu      8.6143106230     3.5504711934    18.3812918244
Cu      7.3637316823     2.8335805153    20.4970650109
Cu      7.3850772463     4.2636875438    16.2311122932
Cu      9.8395150895     5.6806852898    18.3792112015
Cu      8.5932254721     4.9620342219    20.4967914005
O       3.4457407378     1.9922013849    24.5630003400
H       3.5728738465     1.9696591099    25.5184980978
