74
Step 1 | ATOMIC_POSITIONS (angstrom) | Cartesian Angstrom
Ni      0.0000000000     0.0000000000    10.0000000900
Ni      8.6005476670     2.1280836470    10.0000000900
Ni      9.8291973330     4.2561672950    10.0000000900
Ni      2.4572993330     0.0000000000    10.0000000900
Ni      3.6859490000     2.1280836470    10.0000000900
Ni      4.9145986670     4.2561672950    10.0000000900
Ni      4.9145986670     0.0000000000    10.0000000900
Ni      6.1432483330     2.1280836470    10.0000000900
Ni      7.3718980000     4.2561672950    10.0000000900
Ni      1.6381995390     1.4187224170    12.0063763950
Ni      2.8668492300     3.5468061070    12.0063763950
Ni      4.0954988850     5.6748897330    12.0063763950
Ni      4.0954988480     1.4187224170    12.0063763950
Ni      5.3241485390     3.5468061070    12.0063763950
Ni      6.5527981940     5.6748897330    12.0063763950
Ni      6.5527982300     1.4187224170    12.0063763950
Ni      7.7814479220     3.5468061070    12.0063763950
Ni      9.0100975760     5.6748897330    12.0063763950
Ni      2.0477494240     0.7093612090    14.0127530410
Ni      3.2763990780     2.8374448350    14.0127530410
Ni      4.5050487700     4.9655285250    14.0127530410
Ni      4.5050488060     0.7093612090    14.0127530410
Ni      5.7336984610     2.8374448350    14.0127530410
Ni      6.9623481520     4.9655285250    14.0127530410
Ni      6.9623481150     0.7093612090    14.0127530410
Ni      8.1909977700     2.8374448350    14.0127530410
Ni      9.4196474610     4.9655285250    14.0127530410
Ni      0.2219535440    -0.3844348150    16.0346322610
Ni      8.8225203380     1.7436790770    16.0347677870
Ni     10.0511134640     3.8717235960    16.0347600380
Ni      2.6792792770    -0.3844068560    16.0347600380
Ni      3.9079067200     1.7436614180    16.0347555120
Ni      5.1365311080     3.8717690310    16.0346226390
Ni      5.1365164550    -0.3844362570    16.0347677870
Ni      6.3652073280     1.7436393910    16.0346221070
Ni      7.5938385560     3.8717351570    16.0347555120
Cu      2.0723744710     0.6666908500    18.1188401140
Cu      3.3010364020     2.7947772280    18.1188294380
Cu      4.5296848840     4.9228575240    18.1186684400
Cu      4.5296771200     0.6666970110    18.1188367610
Cu      5.7583325920     2.7947772670    18.1186160230
Cu      6.9869807220     4.9228581720    18.1188294380
Cu      6.9869802900     0.6666970300    18.1186522440
Cu      8.2156318920     2.7947839910    18.1188367610
Cu      9.4442885520     4.9228674280    18.1188401140
Cu      2.0477494240     0.7093612090    20.5305373300
Cu      3.2763990780     2.8374448350    20.5305290830
Cu      4.5050487700     4.9655285250    20.5303270790
Cu      4.5050488060     0.7093612090    20.5305312910
Cu      5.7336984610     2.8374448350    20.5302848030
Cu      6.9623481520     4.9655285250    20.5305290830
Cu      6.9623481150     0.7093612090    20.5303102470
Cu      8.1909977700     2.8374448350    20.5305312910
Cu      9.4196474610     4.9655285250    20.5305373300
Cu      0.1996576410    -0.3458171780    22.6496925520
Cu      8.8002014820     1.7822648550    22.6499310210
Cu     10.0288585330     3.9103492740    22.6499306530
Cu      2.6569559250    -0.3458206820    22.6499306530
Cu      3.8856048760     1.7822645930    22.6499270560
Cu      5.1142599260     3.9103438500    22.6496806750
Cu      5.1142596180    -0.3458146710    22.6499310210
Cu      6.3429051830     1.7822678380    22.6496760870
Cu      7.5715581480     3.9103507070    22.6499270560
Cu      2.0403454041     0.7221080656    24.7272766134
Cu      3.2633536616     2.8503773987    24.7237245205
Cu      4.4949539318     4.9832173245    24.7227801763
Cu      4.4955759391     0.7166202121    24.7236915649
Cu      5.7352142556     2.8398744772    24.5673428020
Cu      6.9578049113     4.9833802092    24.7235932757
Cu      6.9579708370     0.7171028806    24.7228567607
Cu      8.1895099789     2.8493622150    24.7237072569
Cu      9.4122676149     4.9783109470    24.7272965227
O       5.6382167007     2.9348689046    26.5207364886
H       5.5592220300     2.9412888428    27.4803056789
74
Step 2 | ATOMIC_POSITIONS (angstrom) | Cartesian Angstrom
Ni      0.0000000000     0.0000000000    10.0000000900
Ni      8.6005476670     2.1280836470    10.0000000900
Ni      9.8291973330     4.2561672950    10.0000000900
Ni      2.4572993330     0.0000000000    10.0000000900
Ni      3.6859490000     2.1280836470    10.0000000900
Ni      4.9145986670     4.2561672950    10.0000000900
Ni      4.9145986670     0.0000000000    10.0000000900
Ni      6.1432483330     2.1280836470    10.0000000900
Ni      7.3718980000     4.2561672950    10.0000000900
Ni      1.6381995390     1.4187224170    12.0063763950
Ni      2.8668492300     3.5468061070    12.0063763950
Ni      4.0954988850     5.6748897330    12.0063763950
Ni      4.0954988480     1.4187224170    12.0063763950
Ni      5.3241485390     3.5468061070    12.0063763950
Ni      6.5527981940     5.6748897330    12.0063763950
Ni      6.5527982300     1.4187224170    12.0063763950
Ni      7.7814479220     3.5468061070    12.0063763950
Ni      9.0100975760     5.6748897330    12.0063763950
Ni      2.0477494240     0.7093612090    14.0127530410
Ni      3.2763990780     2.8374448350    14.0127530410
Ni      4.5050487700     4.9655285250    14.0127530410
Ni      4.5050488060     0.7093612090    14.0127530410
Ni      5.7336984610     2.8374448350    14.0127530410
Ni      6.9623481520     4.9655285250    14.0127530410
Ni      6.9623481150     0.7093612090    14.0127530410
Ni      8.1909977700     2.8374448350    14.0127530410
Ni      9.4196474610     4.9655285250    14.0127530410
Ni      0.2219535440    -0.3844348150    16.0346322610
Ni      8.8225203380     1.7436790770    16.0347677870
Ni     10.0511134640     3.8717235960    16.0347600380
Ni      2.6792792770    -0.3844068560    16.0347600380
Ni      3.9079067200     1.7436614180    16.0347555120
Ni      5.1365311080     3.8717690310    16.0346226390
Ni      5.1365164550    -0.3844362570    16.0347677870
Ni      6.3652073280     1.7436393910    16.0346221070
Ni      7.5938385560     3.8717351570    16.0347555120
Cu      2.0723744710     0.6666908500    18.1188401140
Cu      3.3010364020     2.7947772280    18.1188294380
Cu      4.5296848840     4.9228575240    18.1186684400
Cu      4.5296771200     0.6666970110    18.1188367610
Cu      5.7583325920     2.7947772670    18.1186160230
Cu      6.9869807220     4.9228581720    18.1188294380
Cu      6.9869802900     0.6666970300    18.1186522440
Cu      8.2156318920     2.7947839910    18.1188367610
Cu      9.4442885520     4.9228674280    18.1188401140
Cu      2.0477494240     0.7093612090    20.5305373300
Cu      3.2763990780     2.8374448350    20.5305290830
Cu      4.5050487700     4.9655285250    20.5303270790
Cu      4.5050488060     0.7093612090    20.5305312910
Cu      5.7336984610     2.8374448350    20.5302848030
Cu      6.9623481520     4.9655285250    20.5305290830
Cu      6.9623481150     0.7093612090    20.5303102470
Cu      8.1909977700     2.8374448350    20.5305312910
Cu      9.4196474610     4.9655285250    20.5305373300
Cu      0.1996576410    -0.3458171780    22.6496925520
Cu      8.8002014820     1.7822648550    22.6499310210
Cu     10.0288585330     3.9103492740    22.6499306530
Cu      2.6569559250    -0.3458206820    22.6499306530
Cu      3.8856048760     1.7822645930    22.6499270560
Cu      5.1142599260     3.9103438500    22.6496806750
Cu      5.1142596180    -0.3458146710    22.6499310210
Cu      6.3429051830     1.7822678380    22.6496760870
Cu      7.5715581480     3.9103507070    22.6499270560
Cu      2.0404200500     0.7221077942    24.7289448846
Cu      3.2621087610     2.8505543048    24.7250210416
Cu      4.4944951069     4.9841103854    24.7234026171
Cu      4.4949065971     0.7141624530    24.7244503030
Cu      5.7340582202     2.8402740664    24.6032333215
Cu      6.9586528084     4.9850328767    24.7243652619
Cu      6.9595968725     0.7143938306    24.7225445724
Cu      8.1924595929     2.8487825199    24.7241600544
Cu      9.4121894927     4.9782428881    24.7289834682
O       5.6381986994     2.9377157505    26.5039187643
H       5.5576781311     2.9406334000    27.4799059807
74
Step 3 | ATOMIC_POSITIONS (angstrom) | Cartesian Angstrom
Ni      0.0000000000     0.0000000000    10.0000000900
Ni      8.6005476670     2.1280836470    10.0000000900
Ni      9.8291973330     4.2561672950    10.0000000900
Ni      2.4572993330     0.0000000000    10.0000000900
Ni      3.6859490000     2.1280836470    10.0000000900
Ni      4.9145986670     4.2561672950    10.0000000900
Ni      4.9145986670     0.0000000000    10.0000000900
Ni      6.1432483330     2.1280836470    10.0000000900
Ni      7.3718980000     4.2561672950    10.0000000900
Ni      1.6381995390     1.4187224170    12.0063763950
Ni      2.8668492300     3.5468061070    12.0063763950
Ni      4.0954988850     5.6748897330    12.0063763950
Ni      4.0954988480     1.4187224170    12.0063763950
Ni      5.3241485390     3.5468061070    12.0063763950
Ni      6.5527981940     5.6748897330    12.0063763950
Ni      6.5527982300     1.4187224170    12.0063763950
Ni      7.7814479220     3.5468061070    12.0063763950
Ni      9.0100975760     5.6748897330    12.0063763950
Ni      2.0477494240     0.7093612090    14.0127530410
Ni      3.2763990780     2.8374448350    14.0127530410
Ni      4.5050487700     4.9655285250    14.0127530410
Ni      4.5050488060     0.7093612090    14.0127530410
Ni      5.7336984610     2.8374448350    14.0127530410
Ni      6.9623481520     4.9655285250    14.0127530410
Ni      6.9623481150     0.7093612090    14.0127530410
Ni      8.1909977700     2.8374448350    14.0127530410
Ni      9.4196474610     4.9655285250    14.0127530410
Ni      0.2219535440    -0.3844348150    16.0346322610
Ni      8.8225203380     1.7436790770    16.0347677870
Ni     10.0511134640     3.8717235960    16.0347600380
Ni      2.6792792770    -0.3844068560    16.0347600380
Ni      3.9079067200     1.7436614180    16.0347555120
Ni      5.1365311080     3.8717690310    16.0346226390
Ni      5.1365164550    -0.3844362570    16.0347677870
Ni      6.3652073280     1.7436393910    16.0346221070
Ni      7.5938385560     3.8717351570    16.0347555120
Cu      2.0723744710     0.6666908500    18.1188401140
Cu      3.3010364020     2.7947772280    18.1188294380
Cu      4.5296848840     4.9228575240    18.1186684400
Cu      4.5296771200     0.6666970110    18.1188367610
Cu      5.7583325920     2.7947772670    18.1186160230
Cu      6.9869807220     4.9228581720    18.1188294380
Cu      6.9869802900     0.6666970300    18.1186522440
Cu      8.2156318920     2.7947839910    18.1188367610
Cu      9.4442885520     4.9228674280    18.1188401140
Cu      2.0477494240     0.7093612090    20.5305373300
Cu      3.2763990780     2.8374448350    20.5305290830
Cu      4.5050487700     4.9655285250    20.5303270790
Cu      4.5050488060     0.7093612090    20.5305312910
Cu      5.7336984610     2.8374448350    20.5302848030
Cu      6.9623481520     4.9655285250    20.5305290830
Cu      6.9623481150     0.7093612090    20.5303102470
Cu      8.1909977700     2.8374448350    20.5305312910
Cu      9.4196474610     4.9655285250    20.5305373300
Cu      0.1996576410    -0.3458171780    22.6496925520
Cu      8.8002014820     1.7822648550    22.6499310210
Cu     10.0288585330     3.9103492740    22.6499306530
Cu      2.6569559250    -0.3458206820    22.6499306530
Cu      3.8856048760     1.7822645930    22.6499270560
Cu      5.1142599260     3.9103438500    22.6496806750
Cu      5.1142596180    -0.3458146710    22.6499310210
Cu      6.3429051830     1.7822678380    22.6496760870
Cu      7.5715581480     3.9103507070    22.6499270560
Cu      2.0405607149     0.7220744332    24.7310517850
Cu      3.2606301363     2.8506823387    24.7262198765
Cu      4.4939884501     4.9851393437    24.7237639255
Cu      4.4941317671     0.7112810832    24.7250390481
Cu      5.7329796146     2.8402823985    24.6427210839
Cu      6.9597098395     4.9868954150    24.7249605053
Cu      6.9614532224     0.7113284965    24.7218702391
Cu      8.1958596307     2.8481092380    24.7244128713
Cu      9.4121327152     4.9781142378    24.7311159095
O       5.6369975532     2.9418938123    26.4986183519
H       5.5567332672     2.9395740994    27.4667586318
74
Step 4 | ATOMIC_POSITIONS (angstrom) | Cartesian Angstrom
Ni      0.0000000000     0.0000000000    10.0000000900
Ni      8.6005476670     2.1280836470    10.0000000900
Ni      9.8291973330     4.2561672950    10.0000000900
Ni      2.4572993330     0.0000000000    10.0000000900
Ni      3.6859490000     2.1280836470    10.0000000900
Ni      4.9145986670     4.2561672950    10.0000000900
Ni      4.9145986670     0.0000000000    10.0000000900
Ni      6.1432483330     2.1280836470    10.0000000900
Ni      7.3718980000     4.2561672950    10.0000000900
Ni      1.6381995390     1.4187224170    12.0063763950
Ni      2.8668492300     3.5468061070    12.0063763950
Ni      4.0954988850     5.6748897330    12.0063763950
Ni      4.0954988480     1.4187224170    12.0063763950
Ni      5.3241485390     3.5468061070    12.0063763950
Ni      6.5527981940     5.6748897330    12.0063763950
Ni      6.5527982300     1.4187224170    12.0063763950
Ni      7.7814479220     3.5468061070    12.0063763950
Ni      9.0100975760     5.6748897330    12.0063763950
Ni      2.0477494240     0.7093612090    14.0127530410
Ni      3.2763990780     2.8374448350    14.0127530410
Ni      4.5050487700     4.9655285250    14.0127530410
Ni      4.5050488060     0.7093612090    14.0127530410
Ni      5.7336984610     2.8374448350    14.0127530410
Ni      6.9623481520     4.9655285250    14.0127530410
Ni      6.9623481150     0.7093612090    14.0127530410
Ni      8.1909977700     2.8374448350    14.0127530410
Ni      9.4196474610     4.9655285250    14.0127530410
Ni      0.2219535440    -0.3844348150    16.0346322610
Ni      8.8225203380     1.7436790770    16.0347677870
Ni     10.0511134640     3.8717235960    16.0347600380
Ni      2.6792792770    -0.3844068560    16.0347600380
Ni      3.9079067200     1.7436614180    16.0347555120
Ni      5.1365311080     3.8717690310    16.0346226390
Ni      5.1365164550    -0.3844362570    16.0347677870
Ni      6.3652073280     1.7436393910    16.0346221070
Ni      7.5938385560     3.8717351570    16.0347555120
Cu      2.0723744710     0.6666908500    18.1188401140
Cu      3.3010364020     2.7947772280    18.1188294380
Cu      4.5296848840     4.9228575240    18.1186684400
Cu      4.5296771200     0.6666970110    18.1188367610
Cu      5.7583325920     2.7947772670    18.1186160230
Cu      6.9869807220     4.9228581720    18.1188294380
Cu      6.9869802900     0.6666970300    18.1186522440
Cu      8.2156318920     2.7947839910    18.1188367610
Cu      9.4442885520     4.9228674280    18.1188401140
Cu      2.0477494240     0.7093612090    20.5305373300
Cu      3.2763990780     2.8374448350    20.5305290830
Cu      4.5050487700     4.9655285250    20.5303270790
Cu      4.5050488060     0.7093612090    20.5305312910
Cu      5.7336984610     2.8374448350    20.5302848030
Cu      6.9623481520     4.9655285250    20.5305290830
Cu      6.9623481150     0.7093612090    20.5303102470
Cu      8.1909977700     2.8374448350    20.5305312910
Cu      9.4196474610     4.9655285250    20.5305373300
Cu      0.1996576410    -0.3458171780    22.6496925520
Cu      8.8002014820     1.7822648550    22.6499310210
Cu     10.0288585330     3.9103492740    22.6499306530
Cu      2.6569559250    -0.3458206820    22.6499306530
Cu      3.8856048760     1.7822645930    22.6499270560
Cu      5.1142599260     3.9103438500    22.6496806750
Cu      5.1142596180    -0.3458146710    22.6499310210
Cu      6.3429051830     1.7822678380    22.6496760870
Cu      7.5715581480     3.9103507070    22.6499270560
Cu      2.0410252564     0.7218708845    24.7354563562
Cu      3.2580461208     2.8505923794    24.7272242019
Cu      4.4932537228     4.9868198757    24.7230891088
Cu      4.4928501693     0.7062160786    24.7250507469
Cu      5.7322868432     2.8383309859    24.7019386272
Cu      6.9617874693     4.9898146296    24.7248946482
Cu      6.9645483355     0.7063249344    24.7196125264
Cu      8.2016129613     2.8469162863    24.7238868016
Cu      9.4121881983     4.9776849707    24.7355817484
O       5.6346753804     2.9529748000    26.4927632504
H       5.5536719944     2.9366363715    27.4492338024
74
Step 5 | ATOMIC_POSITIONS (angstrom) | Cartesian Angstrom
Ni      0.0000000000     0.0000000000    10.0000000900
Ni      8.6005476670     2.1280836470    10.0000000900
Ni      9.8291973330     4.2561672950    10.0000000900
Ni      2.4572993330     0.0000000000    10.0000000900
Ni      3.6859490000     2.1280836470    10.0000000900
Ni      4.9145986670     4.2561672950    10.0000000900
Ni      4.9145986670     0.0000000000    10.0000000900
Ni      6.1432483330     2.1280836470    10.0000000900
Ni      7.3718980000     4.2561672950    10.0000000900
Ni      1.6381995390     1.4187224170    12.0063763950
Ni      2.8668492300     3.5468061070    12.0063763950
Ni      4.0954988850     5.6748897330    12.0063763950
Ni      4.0954988480     1.4187224170    12.0063763950
Ni      5.3241485390     3.5468061070    12.0063763950
Ni      6.5527981940     5.6748897330    12.0063763950
Ni      6.5527982300     1.4187224170    12.0063763950
Ni      7.7814479220     3.5468061070    12.0063763950
Ni      9.0100975760     5.6748897330    12.0063763950
Ni      2.0477494240     0.7093612090    14.0127530410
Ni      3.2763990780     2.8374448350    14.0127530410
Ni      4.5050487700     4.9655285250    14.0127530410
Ni      4.5050488060     0.7093612090    14.0127530410
Ni      5.7336984610     2.8374448350    14.0127530410
Ni      6.9623481520     4.9655285250    14.0127530410
Ni      6.9623481150     0.7093612090    14.0127530410
Ni      8.1909977700     2.8374448350    14.0127530410
Ni      9.4196474610     4.9655285250    14.0127530410
Ni      0.2219535440    -0.3844348150    16.0346322610
Ni      8.8225203380     1.7436790770    16.0347677870
Ni     10.0511134640     3.8717235960    16.0347600380
Ni      2.6792792770    -0.3844068560    16.0347600380
Ni      3.9079067200     1.7436614180    16.0347555120
Ni      5.1365311080     3.8717690310    16.0346226390
Ni      5.1365164550    -0.3844362570    16.0347677870
Ni      6.3652073280     1.7436393910    16.0346221070
Ni      7.5938385560     3.8717351570    16.0347555120
Cu      2.0723744710     0.6666908500    18.1188401140
Cu      3.3010364020     2.7947772280    18.1188294380
Cu      4.5296848840     4.9228575240    18.1186684400
Cu      4.5296771200     0.6666970110    18.1188367610
Cu      5.7583325920     2.7947772670    18.1186160230
Cu      6.9869807220     4.9228581720    18.1188294380
Cu      6.9869802900     0.6666970300    18.1186522440
Cu      8.2156318920     2.7947839910    18.1188367610
Cu      9.4442885520     4.9228674280    18.1188401140
Cu      2.0477494240     0.7093612090    20.5305373300
Cu      3.2763990780     2.8374448350    20.5305290830
Cu      4.5050487700     4.9655285250    20.5303270790
Cu      4.5050488060     0.7093612090    20.5305312910
Cu      5.7336984610     2.8374448350    20.5302848030
Cu      6.9623481520     4.9655285250    20.5305290830
Cu      6.9623481150     0.7093612090    20.5303102470
Cu      8.1909977700     2.8374448350    20.5305312910
Cu      9.4196474610     4.9655285250    20.5305373300
Cu      0.1996576410    -0.3458171780    22.6496925520
Cu      8.8002014820     1.7822648550    22.6499310210
Cu     10.0288585330     3.9103492740    22.6499306530
Cu      2.6569559250    -0.3458206820    22.6499306530
Cu      3.8856048760     1.7822645930    22.6499270560
Cu      5.1142599260     3.9103438500    22.6496806750
Cu      5.1142596180    -0.3458146710    22.6499310210
Cu      6.3429051830     1.7822678380    22.6496760870
Cu      7.5715581480     3.9103507070    22.6499270560
Cu      2.0412733259     0.7217117450    24.7367054341
Cu      3.2578883388     2.8503197716    24.7266236615
Cu      4.4933900960     4.9867544062    24.7220609039
Cu      4.4927786502     0.7054980231    24.7243688144
Cu      5.7331920843     2.8361539017    24.7022765091
Cu      6.9621928850     4.9898188978    24.7240975918
Cu      6.9649077640     0.7058223690    24.7185452439
Cu      8.2022818708     2.8466977166    24.7231425611
Cu      9.4123389144     4.9774533461    24.7368565633
O       5.6339509778     2.9590461951    26.4971900973
H       5.5518293654     2.9348154763    27.4517190894
74
Step 6 | ATOMIC_POSITIONS (angstrom) | Cartesian Angstrom
Ni      0.0000000000     0.0000000000    10.0000000900
Ni      8.6005476670     2.1280836470    10.0000000900
Ni      9.8291973330     4.2561672950    10.0000000900
Ni      2.4572993330     0.0000000000    10.0000000900
Ni      3.6859490000     2.1280836470    10.0000000900
Ni      4.9145986670     4.2561672950    10.0000000900
Ni      4.9145986670     0.0000000000    10.0000000900
Ni      6.1432483330     2.1280836470    10.0000000900
Ni      7.3718980000     4.2561672950    10.0000000900
Ni      1.6381995390     1.4187224170    12.0063763950
Ni      2.8668492300     3.5468061070    12.0063763950
Ni      4.0954988850     5.6748897330    12.0063763950
Ni      4.0954988480     1.4187224170    12.0063763950
Ni      5.3241485390     3.5468061070    12.0063763950
Ni      6.5527981940     5.6748897330    12.0063763950
Ni      6.5527982300     1.4187224170    12.0063763950
Ni      7.7814479220     3.5468061070    12.0063763950
Ni      9.0100975760     5.6748897330    12.0063763950
Ni      2.0477494240     0.7093612090    14.0127530410
Ni      3.2763990780     2.8374448350    14.0127530410
Ni      4.5050487700     4.9655285250    14.0127530410
Ni      4.5050488060     0.7093612090    14.0127530410
Ni      5.7336984610     2.8374448350    14.0127530410
Ni      6.9623481520     4.9655285250    14.0127530410
Ni      6.9623481150     0.7093612090    14.0127530410
Ni      8.1909977700     2.8374448350    14.0127530410
Ni      9.4196474610     4.9655285250    14.0127530410
Ni      0.2219535440    -0.3844348150    16.0346322610
Ni      8.8225203380     1.7436790770    16.0347677870
Ni     10.0511134640     3.8717235960    16.0347600380
Ni      2.6792792770    -0.3844068560    16.0347600380
Ni      3.9079067200     1.7436614180    16.0347555120
Ni      5.1365311080     3.8717690310    16.0346226390
Ni      5.1365164550    -0.3844362570    16.0347677870
Ni      6.3652073280     1.7436393910    16.0346221070
Ni      7.5938385560     3.8717351570    16.0347555120
Cu      2.0723744710     0.6666908500    18.1188401140
Cu      3.3010364020     2.7947772280    18.1188294380
Cu      4.5296848840     4.9228575240    18.1186684400
Cu      4.5296771200     0.6666970110    18.1188367610
Cu      5.7583325920     2.7947772670    18.1186160230
Cu      6.9869807220     4.9228581720    18.1188294380
Cu      6.9869802900     0.6666970300    18.1186522440
Cu      8.2156318920     2.7947839910    18.1188367610
Cu      9.4442885520     4.9228674280    18.1188401140
Cu      2.0477494240     0.7093612090    20.5305373300
Cu      3.2763990780     2.8374448350    20.5305290830
Cu      4.5050487700     4.9655285250    20.5303270790
Cu      4.5050488060     0.7093612090    20.5305312910
Cu      5.7336984610     2.8374448350    20.5302848030
Cu      6.9623481520     4.9655285250    20.5305290830
Cu      6.9623481150     0.7093612090    20.5303102470
Cu      8.1909977700     2.8374448350    20.5305312910
Cu      9.4196474610     4.9655285250    20.5305373300
Cu      0.1996576410    -0.3458171780    22.6496925520
Cu      8.8002014820     1.7822648550    22.6499310210
Cu     10.0288585330     3.9103492740    22.6499306530
Cu      2.6569559250    -0.3458206820    22.6499306530
Cu      3.8856048760     1.7822645930    22.6499270560
Cu      5.1142599260     3.9103438500    22.6496806750
Cu      5.1142596180    -0.3458146710    22.6499310210
Cu      6.3429051830     1.7822678380    22.6496760870
Cu      7.5715581480     3.9103507070    22.6499270560
Cu      2.0415520429     0.7215285030    24.7381179443
Cu      3.2577448859     2.8500103494    24.7259998699
Cu      4.4935662097     4.9866393313    24.7209509124
Cu      4.4926948322     0.7046615486    24.7236476500
Cu      5.7341054099     2.8337319385    24.7039837939
Cu      6.9626412684     4.9898058777    24.7232364895
Cu      6.9653447211     0.7051990074    24.7173777513
Cu      8.2030704492     2.8464388884    24.7223383648
Cu      9.4125144996     4.9771925839    24.7382996037
O       5.6331678743     2.9662709293    26.5012075697
H       5.5496766583     2.9325691102    27.4545036552
74
Step 7 | ATOMIC_POSITIONS (angstrom) | Cartesian Angstrom
Ni      0.0000000000     0.0000000000    10.0000000900
Ni      8.6005476670     2.1280836470    10.0000000900
Ni      9.8291973330     4.2561672950    10.0000000900
Ni      2.4572993330     0.0000000000    10.0000000900
Ni      3.6859490000     2.1280836470    10.0000000900
Ni      4.9145986670     4.2561672950    10.0000000900
Ni      4.9145986670     0.0000000000    10.0000000900
Ni      6.1432483330     2.1280836470    10.0000000900
Ni      7.3718980000     4.2561672950    10.0000000900
Ni      1.6381995390     1.4187224170    12.0063763950
Ni      2.8668492300     3.5468061070    12.0063763950
Ni      4.0954988850     5.6748897330    12.0063763950
Ni      4.0954988480     1.4187224170    12.0063763950
Ni      5.3241485390     3.5468061070    12.0063763950
Ni      6.5527981940     5.6748897330    12.0063763950
Ni      6.5527982300     1.4187224170    12.0063763950
Ni      7.7814479220     3.5468061070    12.0063763950
Ni      9.0100975760     5.6748897330    12.0063763950
Ni      2.0477494240     0.7093612090    14.0127530410
Ni      3.2763990780     2.8374448350    14.0127530410
Ni      4.5050487700     4.9655285250    14.0127530410
Ni      4.5050488060     0.7093612090    14.0127530410
Ni      5.7336984610     2.8374448350    14.0127530410
Ni      6.9623481520     4.9655285250    14.0127530410
Ni      6.9623481150     0.7093612090    14.0127530410
Ni      8.1909977700     2.8374448350    14.0127530410
Ni      9.4196474610     4.9655285250    14.0127530410
Ni      0.2219535440    -0.3844348150    16.0346322610
Ni      8.8225203380     1.7436790770    16.0347677870
Ni     10.0511134640     3.8717235960    16.0347600380
Ni      2.6792792770    -0.3844068560    16.0347600380
Ni      3.9079067200     1.7436614180    16.0347555120
Ni      5.1365311080     3.8717690310    16.0346226390
Ni      5.1365164550    -0.3844362570    16.0347677870
Ni      6.3652073280     1.7436393910    16.0346221070
Ni      7.5938385560     3.8717351570    16.0347555120
Cu      2.0723744710     0.6666908500    18.1188401140
Cu      3.3010364020     2.7947772280    18.1188294380
Cu      4.5296848840     4.9228575240    18.1186684400
Cu      4.5296771200     0.6666970110    18.1188367610
Cu      5.7583325920     2.7947772670    18.1186160230
Cu      6.9869807220     4.9228581720    18.1188294380
Cu      6.9869802900     0.6666970300    18.1186522440
Cu      8.2156318920     2.7947839910    18.1188367610
Cu      9.4442885520     4.9228674280    18.1188401140
Cu      2.0477494240     0.7093612090    20.5305373300
Cu      3.2763990780     2.8374448350    20.5305290830
Cu      4.5050487700     4.9655285250    20.5303270790
Cu      4.5050488060     0.7093612090    20.5305312910
Cu      5.7336984610     2.8374448350    20.5302848030
Cu      6.9623481520     4.9655285250    20.5305290830
Cu      6.9623481150     0.7093612090    20.5303102470
Cu      8.1909977700     2.8374448350    20.5305312910
Cu      9.4196474610     4.9655285250    20.5305373300
Cu      0.1996576410    -0.3458171780    22.6496925520
Cu      8.8002014820     1.7822648550    22.6499310210
Cu     10.0288585330     3.9103492740    22.6499306530
Cu      2.6569559250    -0.3458206820    22.6499306530
Cu      3.8856048760     1.7822645930    22.6499270560
Cu      5.1142599260     3.9103438500    22.6496806750
Cu      5.1142596180    -0.3458146710    22.6499310210
Cu      6.3429051830     1.7822678380    22.6496760870
Cu      7.5715581480     3.9103507070    22.6499270560
Cu      2.0419753134     0.7212535041    24.7402709224
Cu      3.2574927605     2.8495458990    24.7250351169
Cu      4.4938119492     4.9865031673    24.7192396989
Cu      4.4925628427     0.7033899501    24.7225364676
Cu      5.7355355032     2.8300667117    24.7062015090
Cu      6.9633357989     4.9898178653    24.7219130164
Cu      6.9660019958     0.7042654080    24.7155853887
Cu      8.2042733065     2.8460506568    24.7211028357
Cu      9.4127754222     4.9767966790    24.7404979097
O       5.6319719316     2.9769387046    26.5075246942
H       5.5464506395     2.9293099564    27.4587865768
74
Step 8 | ATOMIC_POSITIONS (angstrom) | Cartesian Angstrom
Ni      0.0000000000     0.0000000000    10.0000000900
Ni      8.6005476670     2.1280836470    10.0000000900
Ni      9.8291973330     4.2561672950    10.0000000900
Ni      2.4572993330     0.0000000000    10.0000000900
Ni      3.6859490000     2.1280836470    10.0000000900
Ni      4.9145986670     4.2561672950    10.0000000900
Ni      4.9145986670     0.0000000000    10.0000000900
Ni      6.1432483330     2.1280836470    10.0000000900
Ni      7.3718980000     4.2561672950    10.0000000900
Ni      1.6381995390     1.4187224170    12.0063763950
Ni      2.8668492300     3.5468061070    12.0063763950
Ni      4.0954988850     5.6748897330    12.0063763950
Ni      4.0954988480     1.4187224170    12.0063763950
Ni      5.3241485390     3.5468061070    12.0063763950
Ni      6.5527981940     5.6748897330    12.0063763950
Ni      6.5527982300     1.4187224170    12.0063763950
Ni      7.7814479220     3.5468061070    12.0063763950
Ni      9.0100975760     5.6748897330    12.0063763950