74
Step 1 | ATOMIC_POSITIONS (angstrom) | Cartesian Angstrom
Ni      1.2286420030     0.7093562280     8.0127033500
Ni      0.0000022770     0.0000000000    10.0192033550
Ni      2.4637570810     1.4224515550    12.0711324140
Ni      1.2397802910     0.7157901460    14.1224527670
Ni      2.4572821840     2.8374249110     8.0127033500
Ni      1.2286424590     2.1280686830    10.0192033550
Ni      3.6926781160     3.5507357070    12.0705045450
Ni      2.4684725530     2.8434817290    14.1212345100
Ni      3.6859592250     4.9655574370     8.0127033500
Ni      2.4573195000     4.2562012100    10.0192033550
Ni      4.9217656990     5.6792526150    12.0709362360
Ni      3.6969571750     4.9715231220    14.1220203990
Ni      3.6859223660     0.7093562280     8.0127033500
Ni      2.4572826400     0.0000000000    10.0192033550
Ni      4.9213653840     1.4225857500    12.0705018300
Ni      3.6967639000     0.7160224210    14.1212311860
Ni      4.9145625470     2.8374249110     8.0127033500
Ni      3.6859228220     2.1280686830    10.0192033550
Ni      6.1503529500     3.5509085400    12.0699854920
Ni      4.9256539070     2.8438285310    14.1202327620
Ni      6.1432395880     4.9655574370     8.0127033500
Ni      4.9145998630     4.2562012100    10.0192033550
Ni      7.3794585710     5.6794809410    12.0703411420
Ni      6.1541912510     4.9717126520    14.1210383970
Ni      6.1432764470     0.7093562280     8.0127033500
Ni      4.9146367220     0.0000000000    10.0192033550
Ni      7.3792576900     1.4227490420    12.0709363660
Ni      6.1539445720     0.7158998930    14.1220190430
Ni      7.3719166290     2.8374249110     8.0127033500
Ni      6.1432769040     2.1280686830    10.0192033550
Ni      8.6083025550     3.5510600090    12.0703431010
Ni      7.3827250280     2.8438303040    14.1210406580
Ni      8.6005936700     4.9655574370     8.0127033500
Ni      7.3719539440     4.2562012100    10.0192033550
Ni      9.8373683370     5.6796094230    12.0707933550
Ni      8.6114301680     4.9718114500    14.1216528750
Cu      0.0005322625     0.0003310662    22.7015449427
Cu      1.2225655231     2.1284428364    22.7019325322
Cu      2.4549554845     4.2626664100    22.7017712174
Cu      2.4546177797    -0.0054721755    22.7018980875
Cu      0.0125988510     0.0072754480    16.2332161100
Cu      2.4696349890     1.4258444680    18.3916416570
Cu      1.2364510550     0.7138688170    20.5508803984
Cu      3.6859019409     2.1269055427    22.6231946683
Cu      1.2416711540     2.1361120830    16.2320324930
Cu      3.6976153980     3.5539780780    18.3918749330
Cu      2.4658684197     2.8404695691    20.5530483549
Cu      4.9180467178     4.2624758291    22.7039406276
Cu      4.9190511742    -0.0052586057    22.7016905617
Cu      2.4707625320     0.0072639820    16.2320277930
Cu      4.9266420750     1.4252400820    18.3918761580
Cu      3.6928559871     0.7153316419    20.5531055203
Cu      6.1504208321     2.1278539441    22.7038938360
Cu      3.6999344850     2.1361584750    16.2305426330
Cu      6.1546566900     3.5533933400    18.3924014900
Cu      4.9195628554     2.8403078408    20.5537372617
Cu      7.3731988121     4.2569419703    22.7052802506
Cu      2.4703615690     4.2639064920    16.2323564380
Cu      4.9258612020     5.6821553100    18.3929147420
Cu      3.6924204382     4.9683575739    20.5519119523
Cu      4.9284376450     4.2641058200    16.2311095740
Cu      7.3827816610     5.6818035920    18.3933612340
Cu      6.1491562003     4.9693650544    20.5531581149
Cu      4.9278325410     0.0074438060    16.2323521870
Cu      7.3838191100     1.4248449340    18.3929204240
Cu      6.1489399486     0.7135510040    20.5518759962
Cu      6.1570438880     2.1360992540    16.2311102000
Cu      8.6119749330     3.5527772260    18.3933657680
Cu      7.3782087066     2.8406564517    20.5531783686
Cu      7.3856113590     4.2640840870    16.2316791970
Cu      9.8400295450     5.6811466360    18.3940799060
Cu      8.6067935023     4.9690939987    20.5533368490
O       3.6859796598     2.1469062288    24.4636148723
H       3.6808045409     2.1526851973    25.3316527664
74
Step 2 | ATOMIC_POSITIONS (angstrom) | Cartesian Angstrom
Ni      1.2286420030     0.7093562280     8.0127033500
Ni      0.0000022770     0.0000000000    10.0192033550
Ni      2.4637570810     1.4224515550    12.0711324140
Ni      1.2397802910     0.7157901460    14.1224527670
Ni      2.4572821840     2.8374249110     8.0127033500
Ni      1.2286424590     2.1280686830    10.0192033550
Ni      3.6926781160     3.5507357070    12.0705045450
Ni      2.4684725530     2.8434817290    14.1212345100
Ni      3.6859592250     4.9655574370     8.0127033500
Ni      2.4573195000     4.2562012100    10.0192033550
Ni      4.9217656990     5.6792526150    12.0709362360
Ni      3.6969571750     4.9715231220    14.1220203990
Ni      3.6859223660     0.7093562280     8.0127033500
Ni      2.4572826400     0.0000000000    10.0192033550
Ni      4.9213653840     1.4225857500    12.0705018300
Ni      3.6967639000     0.7160224210    14.1212311860
Ni      4.9145625470     2.8374249110     8.0127033500
Ni      3.6859228220     2.1280686830    10.0192033550
Ni      6.1503529500     3.5509085400    12.0699854920
Ni      4.9256539070     2.8438285310    14.1202327620
Ni      6.1432395880     4.9655574370     8.0127033500
Ni      4.9145998630     4.2562012100    10.0192033550
Ni      7.3794585710     5.6794809410    12.0703411420
Ni      6.1541912510     4.9717126520    14.1210383970
Ni      6.1432764470     0.7093562280     8.0127033500
Ni      4.9146367220     0.0000000000    10.0192033550
Ni      7.3792576900     1.4227490420    12.0709363660
Ni      6.1539445720     0.7158998930    14.1220190430
Ni      7.3719166290     2.8374249110     8.0127033500
Ni      6.1432769040     2.1280686830    10.0192033550
Ni      8.6083025550     3.5510600090    12.0703431010
Ni      7.3827250280     2.8438303040    14.1210406580
Ni      8.6005936700     4.9655574370     8.0127033500
Ni      7.3719539440     4.2562012100    10.0192033550
Ni      9.8373683370     5.6796094230    12.0707933550
Ni      8.6114301680     4.9718114500    14.1216528750
Cu      0.0007213555     0.0004613233    22.6994890141
Cu      1.2179375588     2.1283084723    22.6982501302
Cu      2.4527693153     4.2667340536    22.6981865237
Cu      2.4522053789    -0.0094675031    22.6981557300
Cu      0.0125988510     0.0072754480    16.2332161100
Cu      2.4696349890     1.4258444680    18.3916416570
Cu      1.2370317590     0.7142094451    20.5491225163
Cu      3.6860097273     2.1263425588    22.5808334910
Cu      1.2416711540     2.1361120830    16.2320324930
Cu      3.6976153980     3.5539780780    18.3918749330
Cu      2.4665371541     2.8399877493    20.5515189409
Cu      4.9205394514     4.2665499090    22.7002146568
Cu      4.9215227685    -0.0092417962    22.6979899297
Cu      2.4707625320     0.0072639820    16.2320277930
Cu      4.9266420750     1.4252400820    18.3918761580
Cu      3.6927733707     0.7161991970    20.5516063162
Cu      6.1552276052     2.1279246364    22.7001109066
Cu      3.6999344850     2.1361584750    16.2305426330
Cu      6.1546566900     3.5533933400    18.3924014900
Cu      4.9188095304     2.8398725602    20.5522613404
Cu      7.3730849174     4.2568933241    22.7023912238
Cu      2.4703615690     4.2639064920    16.2323564380
Cu      4.9258612020     5.6821553100    18.3929147420
Cu      3.6924461706     4.9676287284    20.5501067491
Cu      4.9284376450     4.2641058200    16.2311095740
Cu      7.3827816610     5.6818035920    18.3933612340
Cu      6.1488604196     4.9694933692    20.5513577921
Cu      4.9278325410     0.0074438060    16.2323521870
Cu      7.3838191100     1.4248449340    18.3929204240
Cu      6.1483340182     0.7139357876    20.5500302209
Cu      6.1570438880     2.1360992540    16.2311102000
Cu      8.6119749330     3.5527772260    18.3933657680
Cu      7.3782053996     2.8403456284    20.5513984487
Cu      7.3856113590     4.2640840870    16.2316791970
Cu      9.8400295450     5.6811466360    18.3940799060
Cu      8.6071272428     4.9692480306    20.5514784459
O       3.6866222372     2.1472778564    24.4352073536
H       3.6802259750     2.1531566656    25.4071325480
74
Step 3 | ATOMIC_POSITIONS (angstrom) | Cartesian Angstrom
Ni      1.2286420030     0.7093562280     8.0127033500
Ni      0.0000022770     0.0000000000    10.0192033550
Ni      2.4637570810     1.4224515550    12.0711324140
Ni      1.2397802910     0.7157901460    14.1224527670
Ni      2.4572821840     2.8374249110     8.0127033500
Ni      1.2286424590     2.1280686830    10.0192033550
Ni      3.6926781160     3.5507357070    12.0705045450
Ni      2.4684725530     2.8434817290    14.1212345100
Ni      3.6859592250     4.9655574370     8.0127033500
Ni      2.4573195000     4.2562012100    10.0192033550
Ni      4.9217656990     5.6792526150    12.0709362360
Ni      3.6969571750     4.9715231220    14.1220203990
Ni      3.6859223660     0.7093562280     8.0127033500
Ni      2.4572826400     0.0000000000    10.0192033550
Ni      4.9213653840     1.4225857500    12.0705018300
Ni      3.6967639000     0.7160224210    14.1212311860
Ni      4.9145625470     2.8374249110     8.0127033500
Ni      3.6859228220     2.1280686830    10.0192033550
Ni      6.1503529500     3.5509085400    12.0699854920
Ni      4.9256539070     2.8438285310    14.1202327620
Ni      6.1432395880     4.9655574370     8.0127033500
Ni      4.9145998630     4.2562012100    10.0192033550
Ni      7.3794585710     5.6794809410    12.0703411420
Ni      6.1541912510     4.9717126520    14.1210383970
Ni      6.1432764470     0.7093562280     8.0127033500
Ni      4.9146367220     0.0000000000    10.0192033550
Ni      7.3792576900     1.4227490420    12.0709363660
Ni      6.1539445720     0.7158998930    14.1220190430
Ni      7.3719166290     2.8374249110     8.0127033500
Ni      6.1432769040     2.1280686830    10.0192033550
Ni      8.6083025550     3.5510600090    12.0703431010
Ni      7.3827250280     2.8438303040    14.1210406580
Ni      8.6005936700     4.9655574370     8.0127033500
Ni      7.3719539440     4.2562012100    10.0192033550
Ni      9.8373683370     5.6796094230    12.0707933550
Ni      8.6114301680     4.9718114500    14.1216528750
Cu      0.0008447623     0.0005365261    22.6977178123
Cu      1.2166004303     2.1282873127    22.6959329064
Cu      2.4521903133     4.2678902927    22.6959550372
Cu      2.4514824885    -0.0107118360    22.6957702729
Cu      0.0125988510     0.0072754480    16.2332161100
Cu      2.4696349890     1.4258444680    18.3916416570
Cu      1.2371560390     0.7142845692    20.5475292438
Cu      3.6860951151     2.1264149375    22.5880432381
Cu      1.2416711540     2.1361120830    16.2320324930
Cu      3.6976153980     3.5539780780    18.3918749330
Cu      2.4650262643     2.8408221080    20.5479433691
Cu      4.9213292679     4.2677135024    22.6978715874
Cu      4.9223390204    -0.0104897161    22.6956256939
Cu      2.4707625320     0.0072639820    16.2320277930
Cu      4.9266420750     1.4252400820    18.3918761580
Cu      3.6927346668     0.7144717014    20.5479851867
Cu      6.1567270242     2.1280032746    22.6977025945
Cu      3.6999344850     2.1361584750    16.2305426330
Cu      6.1546566900     3.5533933400    18.3924014900
Cu      4.9202151559     2.8406908079    20.5488091827
Cu      7.3730562512     4.2568776820    22.6999840610
Cu      2.4703615690     4.2639064920    16.2323564380
Cu      4.9258612020     5.6821553100    18.3929147420
Cu      3.6924567564     4.9674312657    20.5484998912
Cu      4.9284376450     4.2641058200    16.2311095740
Cu      7.3827816610     5.6818035920    18.3933612340
Cu      6.1488429032     4.9694797248    20.5494796064
Cu      4.9278325410     0.0074438060    16.2323521870
Cu      7.3838191100     1.4248449340    18.3929204240
Cu      6.1481829518     0.7140384490    20.5483798335
Cu      6.1570438880     2.1360992540    16.2311102000
Cu      8.6119749330     3.5527772260    18.3933657680
Cu      7.3782032114     2.8403407544    20.5495383345
Cu      7.3856113590     4.2640840870    16.2316791970
Cu      9.8400295450     5.6811466360    18.3940799060
Cu      8.6071790850     4.9692565752    20.5495693631
O       3.6868275078     2.1477796527    24.4372117003
H       3.6801013060     2.1530869328    25.4043712316
74
Step 4 | ATOMIC_POSITIONS (angstrom) | Cartesian Angstrom
Ni      1.2286420030     0.7093562280     8.0127033500
Ni      0.0000022770    -0.0000000000    10.0192033550
Ni      2.4637570810     1.4224515550    12.0711324140
Ni      1.2397802910     0.7157901460    14.1224527670
Ni      2.4572821840     2.8374249110     8.0127033500
Ni      1.2286424590     2.1280686830    10.0192033550
Ni      3.6926781160     3.5507357070    12.0705045450
Ni      2.4684725530     2.8434817290    14.1212345100
Ni      3.6859592250     4.9655574370     8.0127033500
Ni      2.4573195000     4.2562012100    10.0192033550
Ni      4.9217656990     5.6792526150    12.0709362360
Ni      3.6969571750     4.9715231220    14.1220203990
Ni      3.6859223660     0.7093562280     8.0127033500
Ni      2.4572826400    -0.0000000000    10.0192033550
Ni      4.9213653840     1.4225857500    12.0705018300
Ni      3.6967639000     0.7160224210    14.1212311860
Ni      4.9145625470     2.8374249110     8.0127033500
Ni      3.6859228220     2.1280686830    10.0192033550
Ni      6.1503529500     3.5509085400    12.0699854920
Ni      4.9256539070     2.8438285310    14.1202327620
Ni      6.1432395880     4.9655574370     8.0127033500
Ni      4.9145998630     4.2562012100    10.0192033550
Ni      7.3794585710     5.6794809410    12.0703411420
Ni      6.1541912510     4.9717126520    14.1210383970
Ni      6.1432764470     0.7093562280     8.0127033500
Ni      4.9146367220    -0.0000000000    10.0192033550
Ni      7.3792576900     1.4227490420    12.0709363660
Ni      6.1539445720     0.7158998930    14.1220190430
Ni      7.3719166290     2.8374249110     8.0127033500
Ni      6.1432769040     2.1280686830    10.0192033550
Ni      8.6083025550     3.5510600090    12.0703431010
Ni      7.3827250280     2.8438303040    14.1210406580
Ni      8.6005936700     4.9655574370     8.0127033500
Ni      7.3719539440     4.2562012100    10.0192033550
Ni      9.8373683370     5.6796094230    12.0707933550
Ni      8.6114301680     4.9718114500    14.1216528750
Cu      0.0010571473     0.0006582321    22.6943094783
Cu      1.2145565884     2.1282633479    22.6914252503
Cu      2.4513031612     4.2696858094    22.6916004709
Cu      2.4503960548    -0.0126341789    22.6911361906
Cu      0.0125988510     0.0072754480    16.2332161100
Cu      2.4696349890     1.4258444680    18.3916416570
Cu      1.2373976612     0.7144297166    20.5446486346
Cu      3.6862268227     2.1264272099    22.5959738126
Cu      1.2416711540     2.1361120830    16.2320324930
Cu      3.6976153980     3.5539780780    18.3918749330
Cu      2.4633021139     2.8417464907    20.5423279139
Cu      4.9225843375     4.2695256035    22.6933188014
Cu      4.9236191845    -0.0124277598    22.6910256977
Cu      2.4707625320     0.0072639820    16.2320277930
Cu      4.9266420750     1.4252400820    18.3918761580
Cu      3.6926670524     0.7125169927    20.5423030418
Cu      6.1590810400     2.1281298964    22.6930295665
Cu      3.6999344850     2.1361584750    16.2305426330
Cu      6.1546566900     3.5533933400    18.3924014900
Cu      4.9217726651     2.8415971043    20.5433689673
Cu      7.3730383393     4.2568617801    22.6954201404
Cu      2.4703615690     4.2639064920    16.2323564380
Cu      4.9258612020     5.6821553100    18.3929147420
Cu      3.6924725819     4.9670580575    20.5456047707
Cu      4.9284376450     4.2641058200    16.2311095740
Cu      7.3827816610     5.6818035920    18.3933612340
Cu      6.1487928807     4.9694636646    20.5460453806
Cu      4.9278325410     0.0074438060    16.2323521870
Cu      7.3838191100     1.4248449340    18.3929204240
Cu      6.1478920370     0.7142300018    20.5454036231
Cu      6.1570438880     2.1360992540    16.2311102000
Cu      8.6119749330     3.5527772260    18.3933657680
Cu      7.3781984984     2.8403101747    20.5461358708
Cu      7.3856113590     4.2640840870    16.2316791970
Cu      9.8400295450     5.6811466360    18.3940799060
Cu      8.6072916379     4.9692818373    20.5460929528
O       3.6872712142     2.1487799746    24.4405919317
H       3.6798185885     2.1529600007    25.4038786722
74
Step 5 | ATOMIC_POSITIONS (angstrom) | Cartesian Angstrom
Ni      1.2286420030     0.7093562280     8.0127033500
Ni      0.0000022770    -0.0000000000    10.0192033550
Ni      2.4637570810     1.4224515550    12.0711324140
Ni      1.2397802910     0.7157901460    14.1224527670
Ni      2.4572821840     2.8374249110     8.0127033500
Ni      1.2286424590     2.1280686830    10.0192033550
Ni      3.6926781160     3.5507357070    12.0705045450
Ni      2.4684725530     2.8434817290    14.1212345100
Ni      3.6859592250     4.9655574370     8.0127033500
Ni      2.4573195000     4.2562012100    10.0192033550
Ni      4.9217656990     5.6792526150    12.0709362360
Ni      3.6969571750     4.9715231220    14.1220203990
Ni      3.6859223660     0.7093562280     8.0127033500
Ni      2.4572826400    -0.0000000000    10.0192033550
Ni      4.9213653840     1.4225857500    12.0705018300
Ni      3.6967639000     0.7160224210    14.1212311860
Ni      4.9145625470     2.8374249110     8.0127033500
Ni      3.6859228220     2.1280686830    10.0192033550
Ni      6.1503529500     3.5509085400    12.0699854920
Ni      4.9256539070     2.8438285310    14.1202327620
Ni      6.1432395880     4.9655574370     8.0127033500
Ni      4.9145998630     4.2562012100    10.0192033550
Ni      7.3794585710     5.6794809410    12.0703411420
Ni      6.1541912510     4.9717126520    14.1210383970
Ni      6.1432764470     0.7093562280     8.0127033500
Ni      4.9146367220    -0.0000000000    10.0192033550
Ni      7.3792576900     1.4227490420    12.0709363660
Ni      6.1539445720     0.7158998930    14.1220190430
Ni      7.3719166290     2.8374249110     8.0127033500
Ni      6.1432769040     2.1280686830    10.0192033550
Ni      8.6083025550     3.5510600090    12.0703431010
Ni      7.3827250280     2.8438303040    14.1210406580
Ni      8.6005936700     4.9655574370     8.0127033500
Ni      7.3719539440     4.2562012100    10.0192033550
Ni      9.8373683370     5.6796094230    12.0707933550
Ni      8.6114301680     4.9718114500    14.1216528750
Cu      0.0014946120     0.0008854353    22.6866249545
Cu      1.2109295352     2.1282581939    22.6811822880
Cu      2.4497411909     4.2729154300    22.6816817873
Cu      2.4485097827    -0.0161158566    22.6806145690
Cu      0.0125988510     0.0072754480    16.2332161100
Cu      2.4696349890     1.4258444680    18.3916416570
Cu      1.2377990533     0.7146721407    20.5383296535
Cu      3.6864783859     2.1262950406    22.6078679349
Cu      1.2416711540     2.1361120830    16.2320324930
Cu      3.6976153980     3.5539780780    18.3918749330
Cu      2.4609158006     2.8429738412    20.5314513318
Cu      4.9249252779     4.2727940820    22.6829796943
Cu      4.9259769957    -0.0159462954    22.6805658049
Cu      2.4707625320     0.0072639820    16.2320277930
Cu      4.9266420750     1.4252400820    18.3918761580
Cu      3.6925301324     0.7098340775    20.5312899113
Cu      6.1634015426     2.1283905734    22.6824253760
Cu      3.6999344850     2.1361584750    16.2305426330
Cu      6.1546566900     3.5533933400    18.3924014900
Cu      4.9238390934     2.8427978960    20.5327977182
Cu      7.3730634088     4.2568414973    22.6852040192
Cu      2.4703615690     4.2639064920    16.2323564380
Cu      4.9258612020     5.6821553100    18.3929147420
Cu      3.6925023518     4.9663963324    20.5392837696
Cu      4.9284376450     4.2641058200    16.2311095740
Cu      7.3827816610     5.6818035920    18.3933612340
Cu      6.1487372853     4.9693974125    20.5384283535
Cu      4.9278325410     0.0074438060    16.2323521870
Cu      7.3838191100     1.4248449340    18.3929204240
Cu      6.1473845222     0.7145672469    20.5388957592
Cu      6.1570438880     2.1360992540    16.2311102000
Cu      8.6119749330     3.5527772260    18.3933657680
Cu      7.3781861385     2.8402998429    20.5385862790
Cu      7.3856113590     4.2640840870    16.2316791970
Cu      9.8400295450     5.6811466360    18.3940799060
Cu      8.6074796716     4.9693057605    20.5384078696
O       3.6883869998     2.1511988750    24.4477437127
H       3.6790941449     2.1526180099    25.4071198228
74
Step 6 | ATOMIC_POSITIONS (angstrom) | Cartesian Angstrom
Ni      1.2286420030     0.7093562280     8.0127033500
Ni      0.0000022770    -0.0000000000    10.0192033550
Ni      2.4637570810     1.4224515550    12.0711324140
Ni      1.2397802910     0.7157901460    14.1224527670
Ni      2.4572821840     2.8374249110     8.0127033500
Ni      1.2286424590     2.1280686830    10.0192033550
Ni      3.6926781160     3.5507357070    12.0705045450
Ni      2.4684725530     2.8434817290    14.1212345100
Ni      3.6859592250     4.9655574370     8.0127033500
Ni      2.4573195000     4.2562012100    10.0192033550
Ni      4.9217656990     5.6792526150    12.0709362360
Ni      3.6969571750     4.9715231220    14.1220203990
Ni      3.6859223660     0.7093562280     8.0127033500
Ni      2.4572826400    -0.0000000000    10.0192033550
Ni      4.9213653840     1.4225857500    12.0705018300
Ni      3.6967639000     0.7160224210    14.1212311860
Ni      4.9145625470     2.8374249110     8.0127033500
Ni      3.6859228220     2.1280686830    10.0192033550
Ni      6.1503529500     3.5509085400    12.0699854920
Ni      4.9256539070     2.8438285310    14.1202327620
Ni      6.1432395880     4.9655574370     8.0127033500
Ni      4.9145998630     4.2562012100    10.0192033550
Ni      7.3794585710     5.6794809410    12.0703411420
Ni      6.1541912510     4.9717126520    14.1210383970
Ni      6.1432764470     0.7093562280     8.0127033500
Ni      4.9146367220    -0.0000000000    10.0192033550
Ni      7.3792576900     1.4227490420    12.0709363660
Ni      6.1539445720     0.7158998930    14.1220190430
Ni      7.3719166290     2.8374249110     8.0127033500
Ni      6.1432769040     2.1280686830    10.0192033550
Ni      8.6083025550     3.5510600090    12.0703431010
Ni      7.3827250280     2.8438303040    14.1210406580
Ni      8.6005936700     4.9655574370     8.0127033500
Ni      7.3719539440     4.2562012100    10.0192033550
Ni      9.8373683370     5.6796094230    12.0707933550
Ni      8.6114301680     4.9718114500    14.1216528750
Cu      0.0021252952     0.0011696715    22.6741596140
Cu      1.2072135903     2.1283185398    22.6645651409
Cu      2.4481980274     4.2763401048    22.6655464725
Cu      2.4466531516    -0.0198797715    22.6635601426
Cu      0.0125988510     0.0072754480    16.2332161100
Cu      2.4696349890     1.4258444680    18.3916416570
Cu      1.2382568770     0.7149488258    20.5284786055
Cu      3.6867870850     2.1258208616    22.6207875487
Cu      1.2416711540     2.1361120830    16.2320324930
Cu      3.6976153980     3.5539780780    18.3918749330
Cu      2.4592139741     2.8437432593    20.5168378099
Cu      4.9276265150     4.2762786949    22.6662173941
Cu      4.9286605021    -0.0197835042    22.6635828904
Cu      2.4707625320     0.0072639820    16.2320277930
Cu      4.9266420750     1.4252400820    18.3918761580
Cu      3.6923457871     0.7079542153    20.5164678834
Cu      6.1682295962     2.1287451907    22.6652482499
Cu      3.6999344850     2.1361584750    16.2305426330
Cu      6.1546566900     3.5533933400    18.3924014900
Cu      4.9251182635     2.8435361273    20.5185310663
Cu      7.3732377190     4.2568485706    22.6688305575
Cu      2.4703615690     4.2639064920    16.2323564380
Cu      4.9258612020     5.6821553100    18.3929147420
Cu      3.6925362114     4.9655763034    20.5294875956
Cu      4.9284376450     4.2641058200    16.2311095740
Cu      7.3827816610     5.6818035920    18.3933612340
Cu      6.1487019903     4.9692708945    20.5264164370
Cu      4.9278325410     0.0074438060    16.2323521870
Cu      7.3838191100     1.4248449340    18.3929204240
Cu      6.1467690107     0.7149729467    20.5287922483
Cu      6.1570438880     2.1360992540    16.2311102000
Cu      8.6119749330     3.5527772260    18.3933657680
Cu      7.3781699366     2.8403281699    20.5266728879
Cu      7.3856113590     4.2640840870    16.2316791970
Cu      9.8400295450     5.6811466360    18.3940799060
Cu      8.6077173763     4.9693135191    20.5263451382
O       3.6904660984     2.1555553377    24.4584040233
H       3.6777260136     2.1518485844    25.4162368896
74
Step 7 | ATOMIC_POSITIONS (angstrom) | Cartesian Angstrom
Ni      1.2286420030     0.7093562280     8.0127033500
Ni      0.0000022770    -0.0000000000    10.0192033550
Ni      2.4637570810     1.4224515550    12.0711324140
Ni      1.2397802910     0.7157901460    14.1224527670
Ni      2.4572821840     2.8374249110     8.0127033500
Ni      1.2286424590     2.1280686830    10.0192033550
Ni      3.6926781160     3.5507357070    12.0705045450
Ni      2.4684725530     2.8434817290    14.1212345100
Ni      3.6859592250     4.9655574370     8.0127033500
Ni      2.4573195000     4.2562012100    10.0192033550
Ni      4.9217656990     5.6792526150    12.0709362360
Ni      3.6969571750     4.9715231220    14.1220203990
Ni      3.6859223660     0.7093562280     8.0127033500
Ni      2.4572826400    -0.0000000000    10.0192033550
Ni      4.9213653840     1.4225857500    12.0705018300
Ni      3.6967639000     0.7160224210    14.1212311860
Ni      4.9145625470     2.8374249110     8.0127033500
Ni      3.6859228220     2.1280686830    10.0192033550
Ni      6.1503529500     3.5509085400    12.0699854920
Ni      4.9256539070     2.8438285310    14.1202327620
Ni      6.1432395880     4.9655574370     8.0127033500
Ni      4.9145998630     4.2562012100    10.0192033550
Ni      7.3794585710     5.6794809410    12.0703411420
Ni      6.1541912510     4.9717126520    14.1210383970
Ni      6.1432764470     0.7093562280     8.0127033500
Ni      4.9146367220    -0.0000000000    10.0192033550
Ni      7.3792576900     1.4227490420    12.0709363660
Ni      6.1539445720     0.7158998930    14.1220190430
Ni      7.3719166290     2.8374249110     8.0127033500
Ni      6.1432769040     2.1280686830    10.0192033550
Ni      8.6083025550     3.5510600090    12.0703431010
Ni      7.3827250280     2.8438303040    14.1210406580
Ni      8.6005936700     4.9655574370     8.0127033500
Ni      7.3719539440     4.2562012100    10.0192033550
Ni      9.8373683370     5.6796094230    12.0707933550
Ni      8.6114301680     4.9718114500    14.1216528750
Cu      0.0026524884     0.0013367226    22.6617289870
Cu      1.2063640359     2.1284607956    22.6481807130
Cu      2.4479834370     4.2773489487    22.6495873598
Cu      2.4463743086    -0.0211561384    22.6467614289
Cu      0.0125988510     0.0072754480    16.2332161100
Cu      2.4696349890     1.4258444680    18.3916416570
Cu      1.2383881021     0.7150297105    20.5192624428
Cu      3.6869493867     2.1250187342    22.6288314132
Cu      1.2416711540     2.1361120830    16.2320324930
Cu      3.6976153980     3.5539780780    18.3918749330
Cu      2.4598590912     2.8432089814    20.5062148299
Cu      4.9288571690     4.2773374431    22.6497166011
Cu      4.9298399260    -0.0211394088    22.6468201229
Cu      2.4707625320     0.0072639820    16.2320277930
Cu      4.9266420750     1.4252400820    18.3918761580
Cu      3.6922195694     0.7087281436    20.5056416676
Cu      6.1701526149     2.1290027272    22.6483538965
Cu      3.6999344850     2.1361584750    16.2305426330
Cu      6.1546566900     3.5533933400    18.3924014900
Cu      4.9241832143     2.8429802901    20.5080714286
Cu      7.3735834289     4.2568985895    22.6527745302
Cu      2.4703615690     4.2639064920    16.2323564380
Cu      4.9258612020     5.6821553100    18.3929147420
Cu      3.6925535682     4.9651762114    20.5204098235
Cu      4.9284376450     4.2641058200    16.2311095740
Cu      7.3827816610     5.6818035920    18.3933612340
Cu      6.1487524981     4.9691143440    20.5150562160
Cu      4.9278325410     0.0074438060    16.2323521870
Cu      7.3838191100     1.4248449340    18.3929204240
Cu      6.1465073670     0.7151480572    20.5194001166
Cu      6.1570438880     2.1360992540    16.2311102000
Cu      8.6119749330     3.5527772260    18.3933657680
Cu      7.3781644605     2.8404268383    20.5153937343
Cu      7.3856113590     4.2640840870    16.2316791970
Cu      9.8400295450     5.6811466360    18.3940799060
Cu      8.6078502117     4.9692681854    20.5150103114
O       3.6930191598     2.1607105935    24.4677410199
H       3.6760322559     2.1506349014    25.4273726726
74
Step 8 | ATOMIC_POSITIONS (angstrom) | Cartesian Angstrom
Ni      1.2286420030     0.7093562280     8.0127033500
Ni      0.0000022770    -0.0000000000    10.0192033550
Ni      2.4637570810     1.4224515550    12.0711324140
Ni      1.2397802910     0.7157901460    14.1224527670
Ni      2.4572821840     2.8374249110     8.0127033500
Ni      1.2286424590     2.1280686830    10.0192033550
Ni      3.6926781160     3.5507357070    12.0705045450
Ni      2.4684725530     2.8434817290    14.1212345100
Ni      3.6859592250     4.9655574370     8.0127033500
Ni      2.4573195000     4.2562012100    10.0192033550
Ni      4.9217656990     5.6792526150    12.0709362360
Ni      3.6969571750     4.9715231220    14.1220203990
Ni      3.6859223660     0.7093562280     8.0127033500
Ni      2.4572826400    -0.0000000000    10.0192033550
Ni      4.9213653840     1.4225857500    12.0705018300
Ni      3.6967639000     0.7160224210    14.1212311860
Ni      4.9145625470     2.8374249110     8.0127033500
Ni      3.6859228220     2.1280686830    10.0192033550