147
Step 1 | ATOMIC_POSITIONS (angstrom) | Cartesian Angstrom
NI      1.2254504230     0.7101865830     1.4556095020
NI      2.4444040200     2.8214761450     1.4556095020
NI      3.6633576180     4.9327657080     1.4556095020
NI      4.8823112150     7.0440552710     1.4556095020
NI      6.1012648120     9.1553448320     1.4556095020
NI      7.3202184090    11.2666343950     1.4556095020
NI      3.6633576170     0.7101865830     1.4556095020
NI      4.8823112140     2.8214761450     1.4556095020
NI      6.1012648110     4.9327657080     1.4556095020
NI      7.3202184090     7.0440552710     1.4556095020
NI      8.5391720050     9.1553448320     1.4556095020
NI      9.7581256030    11.2666343950     1.4556095020
NI      6.1012648120     0.7101865830     1.4556095020
NI      7.3202184090     2.8214761450     1.4556095020
NI      8.5391720060     4.9327657080     1.4556095020
NI      9.7581256040     7.0440552710     1.4556095020
NI     10.9770792000     9.1553448320     1.4556095020
NI     12.1960327980    11.2666343950     1.4556095020
NI      8.5391720070     0.7101865830     1.4556095020
NI      9.7581256040     2.8214761450     1.4556095020
NI     10.9770792010     4.9327657080     1.4556095020
NI     12.1960327990     7.0440552710     1.4556095020
NI     13.4149863960     9.1553448320     1.4556095020
NI     14.6339399930    11.2666343950     1.4556095020
NI     10.9770792000     0.7101865830     1.4556095020
NI     12.1960327970     2.8214761450     1.4556095020
NI     13.4149863950     4.9327657080     1.4556095020
NI     14.6339399920     7.0440552710     1.4556095020
NI     15.8528935890     9.1553448320     1.4556095020
NI     17.0718471870    11.2666343950     1.4556095020
NI     13.4149863960     0.7101865830     1.4556095020
NI     14.6339399920     2.8214761450     1.4556095020
NI     15.8528935900     4.9327657080     1.4556095020
NI     17.0718471870     7.0440552710     1.4556095020
NI     18.2908007840     9.1553448320     1.4556095020
NI     19.5097543820    11.2666343950     1.4556095020
NI     13.4529946960     7.7634569989     3.4071389273
NI     14.6462636957     9.8311187703     3.3947661436
NI     15.8398360916     7.7653669677     3.3943031720
NI     12.2437873737     9.8363544252     3.4403233028
NI     14.6437164273     5.6887087961     3.4220059716
NI     17.0350459510     9.8320954559     3.4124732810
NI     11.0257314470     7.7546588347     3.4566297376
NI     13.4417299917    11.9225590231     3.4371743660
NI     12.2337944806     5.6736773566     3.4385425098
NI     15.8435456855    11.9186664506     3.4289346238
NI     17.0464347604     5.6819299623     3.4333767470
NI     18.2412163703     7.7583275986     3.4262588638
NI      9.7915801698     9.8434650511     3.4787046639
NI     11.0138419516    11.9456352375     3.4628089814
NI     13.4252691575     3.5685078222     3.4619886842
NI     18.2561806866    11.9329999322     3.4525387379
NI     15.8511112145     3.5730105446     3.4556048772
NI     19.4637696583     9.8390919557     3.4613308701
NI      4.8470741613     5.6614716719     3.4509195938
NI      7.3273377517     1.3738445397     3.4580431012
NI      9.7885164481     5.6539522470     3.4693441474
NI      3.6530498445     3.5540455539     3.4711040245
NI      6.0681135757     7.7479421597     3.4789883354
NI      4.9004903931     1.3923713507     3.4772210231
NI      8.5541578051     7.7466094007     3.4792664449
NI      9.7467354047     1.3834622180     3.4688552447
NI     10.9900152437     3.5423237625     3.4741751435
NI      2.4590078576     1.4211071989     3.4919653218
NI      7.3097207717     9.8457977157     3.4862502082
NI     12.1828164750     1.4107133596     3.4829365478
NI      6.0954129075     3.5244056835     3.4815752768
NI      7.3124234507     5.6454937634     3.4842838794
NI      8.5440200044     3.5178405420     3.4903689030
NI      8.5499757048    11.9588233716     3.4909732893
NI     14.6308002108     1.4299055738     3.4953378381
NI     20.7015452149    11.9551955360     3.4790029389
AG     -0.1014978248    -0.0234700139     5.7899346202
AG      5.7813254858     5.0382439670     5.7717893541
AG      7.2036354014     2.5391348535     5.7747280804
AG      8.6582463578     5.0584055864     5.7694213849
AG      1.3518375847     2.4717423175     5.7796410976
AG      5.8048784547    10.1626491950     5.8223837061
AG      2.7774468445    -0.0220910290     5.7999664151
AG      8.6430109134    10.1524459505     5.8406015436
AG     11.6287308152     0.0201047759     5.8046533696
AG     13.0700849341     2.4888439308     5.7859294448
AG      4.2736485905     2.4966830486     5.7932408897
AG      7.2384722000     7.6189312524     5.8195819361
AG     10.1312050575     2.5402165543     5.7843286699
AG      2.8565367892     4.9915205952     5.8205707304
AG      4.3548281950     7.5757338958     5.8199586615
AG      5.7098042552     0.0174191040     5.8145934597
AG     10.0638280342     7.6137646811     5.8333152392
AG      8.6807839714     0.0426719192     5.8177146173
AG     11.5453735733     5.0391059079     5.8006167312
AG     11.5032143880    10.1670132735     5.8386087387
AG     14.5168092152     4.9864533028     5.8247991673
AG     17.5150050923    10.1472853038     5.8402819754
AG     12.9894134788     7.5820553101     5.8453395839
AG     14.5027347808    10.1389462311     5.8515894045
AG     16.0068615531     7.5501709417     5.8589382645
AG      5.7467678190     3.3572384679     8.0905986774
AG      7.1953898504     5.8884426657     8.0923668864
AG      8.6653275095     3.3601904382     8.0809170112
AG      4.2932431497     5.8872425041     8.1062673206
AG      7.2067176605     0.8318357986     8.1083791989
AG     10.1239554744     5.8941765036     8.0963862381
AG      1.3513707670     0.8502463985     8.1025527564
AG      7.1401057993    11.0297634313     8.1877840548
AG     13.0527561540     0.8635242056     8.1259017341
AG      2.8222940718     3.3454215149     8.1144563650
AG      5.7354588328     8.4410504741     8.1167108000
AG      4.2843415620     0.8371994298     8.1195545004
AG      8.6596482747     8.3942656497     8.1868680763
AG     10.1386520551     0.8491414927     8.1145525374
AG     11.6058007585     3.3629922471     8.0840249906
AG     11.5995176488     8.4331270903     8.1107840215
AG     13.0678401162    10.9660341677     8.1234953807
AG     13.0697424581     5.8834589915     8.1048410321
AG     15.9923734475    10.9704992361     8.1085665894
AG     15.9962123123     5.8692279808     8.1259569053
AG     17.4581566696     8.4274077517     8.1212661447
AG     10.1691894526    11.0109955606     8.1952134588
AG     14.5252250207     3.3533562439     8.1257184369
AG     18.8987865408    10.9904302302     8.1367505000
AG     14.5278016823     8.4151738598     8.1223964448
O      11.5889265956     8.3802488150    10.4074215952
H      13.6311219530     8.4659720441    10.5735597173
C      12.6546723895     8.1377921333    10.9813323638
H      10.7352491628     7.3265470374    11.9002575796
O      11.3341886683     6.8967879382    12.5508388805
C      12.6353936874     7.3915754731    12.2761959658
H      13.3440493166     6.5461532842    12.1973871506
O      14.3998806333     8.8241575121    12.9444617301
C      13.1450459582     8.3380282597    13.4007270672
H      12.3964184378     9.1484108428    13.5024360272
H      14.8884294637     9.1382936578    13.7414588689
H      14.0302650758     6.8279597900    14.6632818187
C      13.2536493663     7.6135671472    14.7583058464
O      12.0059020941     7.0425979717    15.1603376716
O      14.9884899604     9.0644026808    15.5451997176
C      13.6719315047     8.5695615966    15.8893211369
H      11.4840467664     6.8335119535    14.3536457815
H      12.9407780285     9.3971124771    15.9333040759
H      15.2750682979     9.6931979200    16.2306092810
H      14.3408750341     6.9668605206    17.1793508854
C      13.7205173933     7.8807940355    17.2612415532
O      12.4394326158     7.6161839885    17.8092293161
H      14.2285179648     8.5630309760    17.9636206156
H      11.9292849828     7.1715545315    17.1026904522
O       8.6411326873    10.1437446078     9.6705189008
