147
Step 1 | ATOMIC_POSITIONS (angstrom) | Cartesian Angstrom
NI      1.2254504230     0.7101865830     1.4556095020
NI      2.4444040200     2.8214761450     1.4556095020
NI      3.6633576180     4.9327657080     1.4556095020
NI      4.8823112150     7.0440552710     1.4556095020
NI      6.1012648120     9.1553448320     1.4556095020
NI      7.3202184090    11.2666343950     1.4556095020
NI      3.6633576170     0.7101865830     1.4556095020
NI      4.8823112140     2.8214761450     1.4556095020
NI      6.1012648110     4.9327657080     1.4556095020
NI      7.3202184090     7.0440552710     1.4556095020
NI      8.5391720050     9.1553448320     1.4556095020
NI      9.7581256030    11.2666343950     1.4556095020
NI      6.1012648120     0.7101865830     1.4556095020
NI      7.3202184090     2.8214761450     1.4556095020
NI      8.5391720060     4.9327657080     1.4556095020
NI      9.7581256040     7.0440552710     1.4556095020
NI     10.9770792000     9.1553448320     1.4556095020
NI     12.1960327980    11.2666343950     1.4556095020
NI      8.5391720070     0.7101865830     1.4556095020
NI      9.7581256040     2.8214761450     1.4556095020
NI     10.9770792010     4.9327657080     1.4556095020
NI     12.1960327990     7.0440552710     1.4556095020
NI     13.4149863960     9.1553448320     1.4556095020
NI     14.6339399930    11.2666343950     1.4556095020
NI     10.9770792000     0.7101865830     1.4556095020
NI     12.1960327970     2.8214761450     1.4556095020
NI     13.4149863950     4.9327657080     1.4556095020
NI     14.6339399920     7.0440552710     1.4556095020
NI     15.8528935890     9.1553448320     1.4556095020
NI     17.0718471870    11.2666343950     1.4556095020
NI     13.4149863960     0.7101865830     1.4556095020
NI     14.6339399920     2.8214761450     1.4556095020
NI     15.8528935900     4.9327657080     1.4556095020
NI     17.0718471870     7.0440552710     1.4556095020
NI     18.2908007840     9.1553448320     1.4556095020
NI     19.5097543820    11.2666343950     1.4556095020
NI     13.4529946960     7.7634569989     3.4071389273
NI     14.6462636957     9.8311187703     3.3947661436
NI     15.8398360916     7.7653669677     3.3943031720
NI     12.2437873737     9.8363544252     3.4403233028
NI     14.6437164273     5.6887087961     3.4220059716
NI     17.0350459510     9.8320954559     3.4124732810
NI     11.0257314470     7.7546588347     3.4566297376
NI     13.4417299917    11.9225590231     3.4371743660
NI     12.2337944806     5.6736773566     3.4385425098
NI     15.8435456855    11.9186664506     3.4289346238
NI     17.0464347604     5.6819299623     3.4333767470
NI     18.2412163703     7.7583275986     3.4262588638
NI      9.7915801698     9.8434650511     3.4787046639
NI     11.0138419516    11.9456352375     3.4628089814
NI     13.4252691575     3.5685078222     3.4619886842
NI     18.2561806866    11.9329999322     3.4525387379
NI     15.8511112145     3.5730105446     3.4556048772
NI     19.4637696583     9.8390919557     3.4613308701
NI      4.8470741613     5.6614716719     3.4509195938
NI      7.3273377517     1.3738445397     3.4580431012
NI      9.7885164481     5.6539522470     3.4693441474
NI      3.6530498445     3.5540455539     3.4711040245
NI      6.0681135757     7.7479421597     3.4789883354
NI      4.9004903931     1.3923713507     3.4772210231
NI      8.5541578051     7.7466094007     3.4792664449
NI      9.7467354047     1.3834622180     3.4688552447
NI     10.9900152437     3.5423237625     3.4741751435
NI      2.4590078576     1.4211071989     3.4919653218
NI      7.3097207717     9.8457977157     3.4862502082
NI     12.1828164750     1.4107133596     3.4829365478
NI      6.0954129075     3.5244056835     3.4815752768
NI      7.3124234507     5.6454937634     3.4842838794
NI      8.5440200044     3.5178405420     3.4903689030
NI      8.5499757048    11.9588233716     3.4909732893
NI     14.6308002108     1.4299055738     3.4953378381
NI     20.7015452149    11.9551955360     3.4790029389
AG     -0.1014978248    -0.0234700139     5.7899346202
AG      5.7813254858     5.0382439670     5.7717893541
AG      7.2036354014     2.5391348535     5.7747280804
AG      8.6582463578     5.0584055864     5.7694213849
AG      1.3518375847     2.4717423175     5.7796410976
AG      5.8048784547    10.1626491950     5.8223837061
AG      2.7774468445    -0.0220910290     5.7999664151
AG      8.6430109134    10.1524459505     5.8406015436
AG     11.6287308152     0.0201047759     5.8046533696
AG     13.0700849341     2.4888439308     5.7859294448
AG      4.2736485905     2.4966830486     5.7932408897
AG      7.2384722000     7.6189312524     5.8195819361
AG     10.1312050575     2.5402165543     5.7843286699
AG      2.8565367892     4.9915205952     5.8205707304
AG      4.3548281950     7.5757338958     5.8199586615
AG      5.7098042552     0.0174191040     5.8145934597
AG     10.0638280342     7.6137646811     5.8333152392
AG      8.6807839714     0.0426719192     5.8177146173
AG     11.5453735733     5.0391059079     5.8006167312
AG     11.5032143880    10.1670132735     5.8386087387
AG     14.5168092152     4.9864533028     5.8247991673
AG     17.5150050923    10.1472853038     5.8402819754
AG     12.9894134788     7.5820553101     5.8453395839
AG     14.5027347808    10.1389462311     5.8515894045
AG     16.0068615531     7.5501709417     5.8589382645
AG      5.7467678190     3.3572384679     8.0905986774
AG      7.1953898504     5.8884426657     8.0923668864
AG      8.6653275095     3.3601904382     8.0809170112
AG      4.2932431497     5.8872425041     8.1062673206
AG      7.2067176605     0.8318357986     8.1083791989
AG     10.1239554744     5.8941765036     8.0963862381
AG      1.3513707670     0.8502463985     8.1025527564
AG      7.1401057993    11.0297634313     8.1877840548
AG     13.0527561540     0.8635242056     8.1259017341
AG      2.8222940718     3.3454215149     8.1144563650
AG      5.7354588328     8.4410504741     8.1167108000
AG      4.2843415620     0.8371994298     8.1195545004
AG      8.6596482747     8.3942656497     8.1868680763
AG     10.1386520551     0.8491414927     8.1145525374
AG     11.6058007585     3.3629922471     8.0840249906
AG     11.5995176488     8.4331270903     8.1107840215
AG     13.0678401162    10.9660341677     8.1234953807
AG     13.0697424581     5.8834589915     8.1048410321
AG     15.9923734475    10.9704992361     8.1085665894
AG     15.9962123123     5.8692279808     8.1259569053
AG     17.4581566696     8.4274077517     8.1212661447
AG     10.1691894526    11.0109955606     8.1952134588
AG     14.5252250207     3.3533562439     8.1257184369
AG     18.8987865408    10.9904302302     8.1367505000
AG     14.5278016823     8.4151738598     8.1223964448
O      11.5889265956     8.3802488150    10.4074215952
H      13.6311219530     8.4659720441    10.5735597173
C      12.6546723895     8.1377921333    10.9813323638
H      10.7352491628     7.3265470374    11.9002575796
O      11.3341886683     6.8967879382    12.5508388805
C      12.6353936874     7.3915754731    12.2761959658
H      13.3440493166     6.5461532842    12.1973871506
O      14.3998806333     8.8241575121    12.9444617301
C      13.1450459582     8.3380282597    13.4007270672
H      12.3964184378     9.1484108428    13.5024360272
H      14.8884294637     9.1382936578    13.7414588689
H      14.0302650758     6.8279597900    14.6632818187
C      13.2536493663     7.6135671472    14.7583058464
O      12.0059020941     7.0425979717    15.1603376716
O      14.9884899604     9.0644026808    15.5451997176
C      13.6719315047     8.5695615966    15.8893211369
H      11.4840467664     6.8335119535    14.3536457815
H      12.9407780285     9.3971124771    15.9333040759
H      15.2750682979     9.6931979200    16.2306092810
H      14.3408750341     6.9668605206    17.1793508854
C      13.7205173933     7.8807940355    17.2612415532
O      12.4394326158     7.6161839885    17.8092293161
H      14.2285179648     8.5630309760    17.9636206156
H      11.9292849828     7.1715545315    17.1026904522
O       8.6411326873    10.1437446078     9.6705189008
147
Step 2 | ATOMIC_POSITIONS (angstrom) | Cartesian Angstrom
NI      1.2254504230     0.7101865830     1.4556095020
NI      2.4444040200     2.8214761450     1.4556095020
NI      3.6633576180     4.9327657080     1.4556095020
NI      4.8823112150     7.0440552710     1.4556095020
NI      6.1012648120     9.1553448320     1.4556095020
NI      7.3202184090    11.2666343950     1.4556095020
NI      3.6633576170     0.7101865830     1.4556095020
NI      4.8823112140     2.8214761450     1.4556095020
NI      6.1012648110     4.9327657080     1.4556095020
NI      7.3202184090     7.0440552710     1.4556095020
NI      8.5391720050     9.1553448320     1.4556095020
NI      9.7581256030    11.2666343950     1.4556095020
NI      6.1012648120     0.7101865830     1.4556095020
NI      7.3202184090     2.8214761450     1.4556095020
NI      8.5391720060     4.9327657080     1.4556095020
NI      9.7581256040     7.0440552710     1.4556095020
NI     10.9770792000     9.1553448320     1.4556095020
NI     12.1960327980    11.2666343950     1.4556095020
NI      8.5391720070     0.7101865830     1.4556095020
NI      9.7581256040     2.8214761450     1.4556095020
NI     10.9770792010     4.9327657080     1.4556095020
NI     12.1960327990     7.0440552710     1.4556095020
NI     13.4149863960     9.1553448320     1.4556095020
NI     14.6339399930    11.2666343950     1.4556095020
NI     10.9770792000     0.7101865830     1.4556095020
NI     12.1960327970     2.8214761450     1.4556095020
NI     13.4149863950     4.9327657080     1.4556095020
NI     14.6339399920     7.0440552710     1.4556095020
NI     15.8528935890     9.1553448320     1.4556095020
NI     17.0718471870    11.2666343950     1.4556095020
NI     13.4149863960     0.7101865830     1.4556095020
NI     14.6339399920     2.8214761450     1.4556095020
NI     15.8528935900     4.9327657080     1.4556095020
NI     17.0718471870     7.0440552710     1.4556095020
NI     18.2908007840     9.1553448320     1.4556095020
NI     19.5097543820    11.2666343950     1.4556095020
NI     13.4532408604     7.7634469442     3.4067854775
NI     14.6459724386     9.8310800445     3.3950898221
NI     15.8394266515     7.7653846785     3.3946829755
NI     12.2438897372     9.8359079717     3.4390452822
NI     14.6437190179     5.6889609301     3.4223207010
NI     17.0355904785     9.8322076394     3.4125854868
NI     11.0259810050     7.7548931471     3.4557749273
NI     13.4420308887    11.9227856013     3.4372848674
NI     12.2335974022     5.6737318326     3.4384909298
NI     15.8435398900    11.9187848729     3.4287024811
NI     17.0464759038     5.6818297250     3.4333395803
NI     18.2414258636     7.7585289527     3.4262358451
NI      9.7919443212     9.8436512402     3.4791243672
NI     11.0136694382    11.9451932110     3.4630772179
NI     13.4257386261     3.5679852009     3.4619810860
NI     18.2560866914    11.9331104377     3.4526042474
NI     15.8510146689     3.5727630601     3.4556396124
NI     19.4635384485     9.8392059074     3.4604990470
NI      4.8472425022     5.6615991538     3.4509749876
NI      7.3273404569     1.3737005550     3.4581294605
NI      9.7884847258     5.6532958140     3.4697099694
NI      3.6528365617     3.5535154640     3.4715522034
NI      6.0678598471     7.7482614646     3.4784480151
NI      4.9005923339     1.3927325583     3.4772302309
NI      8.5542881580     7.7465537348     3.4802983492
NI      9.7465036263     1.3830223363     3.4688804820
NI     10.9898884393     3.5425560762     3.4745299352
NI      2.4586850072     1.4212588228     3.4915601493
NI      7.3093389242     9.8455939162     3.4871659695
NI     12.1828462977     1.4106681826     3.4828096050
NI      6.0955368895     3.5244970309     3.4814732477
NI      7.3122062087     5.6449848893     3.4846024348
NI      8.5439298339     3.5179011845     3.4905375042
NI      8.5499611878    11.9597594253     3.4916670865
NI     14.6306308294     1.4301218606     3.4951159089
NI     20.7016704605    11.9551154707     3.4790132870
AG     -0.1018114925    -0.0234665464     5.7891476878
AG      5.7811845312     5.0385166385     5.7715637998
AG      7.2037001126     2.5394513418     5.7744481561
AG      8.6573423971     5.0583789003     5.7685781987
AG      1.3519490055     2.4712575895     5.7799593990
AG      5.8043446837    10.1632490500     5.8216465453
AG      2.7780121881    -0.0218670897     5.7993673915
AG      8.6434379730    10.1521849281     5.8394274604
AG     11.6292409381     0.0198704502     5.8045813815
AG     13.0701127222     2.4889124770     5.7857933464
AG      4.2734470916     2.4967966954     5.7931010473
AG      7.2386413261     7.6179788521     5.8185173483
AG     10.1311950171     2.5399066191     5.7840142275
AG      2.8564112120     4.9917545981     5.8202562739
AG      4.3553205527     7.5759655651     5.8203971211
AG      5.7096976023     0.0178834647     5.8146009227
AG     10.0644192500     7.6143339716     5.8323202839
AG      8.6810780077     0.0426848254     5.8175490693
AG     11.5462942704     5.0392520310     5.7996490727
AG     11.5039000287    10.1664033873     5.8392540627
AG     14.5166029159     4.9864632318     5.8243571223
AG     17.5149759699    10.1474033169     5.8400376891
AG     12.9880814293     7.5827325332     5.8456811880
AG     14.5019819133    10.1392187754     5.8515364834
AG     16.0070535443     7.5499692007     5.8582432712
AG      5.7465640719     3.3572919125     8.0906098707
AG      7.1959413674     5.8887042778     8.0926148827
AG      8.6656749565     3.3609516687     8.0817700733
AG      4.2929061221     5.8871766692     8.1062952935
AG      7.2066273564     0.8320939859     8.1083448724
AG     10.1242038187     5.8923599366     8.0965676886
AG      1.3513314833     0.8499029856     8.1035710607
AG      7.1509309425    11.0232614162     8.2002402256
AG     13.0529459703     0.8626423318     8.1250326152
AG      2.8220509065     3.3453987563     8.1146609370
AG      5.7355314565     8.4413424148     8.1173576722
AG      4.2838833544     0.8371506093     8.1192450862
AG      8.6578962428     8.4055995757     8.1990138579
AG     10.1384280233     0.8487687336     8.1142626461
AG     11.6049107686     3.3638782095     8.0856301691
AG     11.5966563331     8.4345397552     8.0981679723
AG     13.0682119319    10.9673717940     8.1223688097
AG     13.0694962208     5.8815183488     8.1039595695
AG     15.9920231275    10.9706190599     8.1093963757
AG     15.9958517365     5.8697106167     8.1264432031
AG     17.4581888553     8.4275464633     8.1215555536
AG     10.1582712075    11.0065534011     8.2067593143
AG     14.5255345582     3.3532127345     8.1255503465
AG     18.8991052894    10.9901669609     8.1361903204
AG     14.5312196040     8.4157186498     8.1193804644
O      11.5911055713     8.3775107175    10.4196268688
H      13.6310625312     8.4668595871    10.5743182946
C      12.6530065877     8.1382899533    10.9846395652
H      10.7334884881     7.3271211320    11.9008440638
O      11.3347858649     6.8966365892    12.5498543558
C      12.6362455479     7.3901705406    12.2780623037
H      13.3449419359     6.5461177028    12.1971535505
O      14.4002371347     8.8249711737    12.9450191190
C      13.1451568986     8.3384751403    13.4014083921
H      12.3965256238     9.1493013858    13.5023597474
H      14.8883607062     9.1378070781    13.7410969761
H      14.0302582089     6.8280228679    14.6632167045
C      13.2536565254     7.6137424163    14.7585480475
O      12.0061245221     7.0423728504    15.1601984749
O      14.9887637267     9.0642197270    15.5452262540
C      13.6719202486     8.5693474178    15.8893614232
H      11.4837439294     6.8337079601    14.3540502192
H      12.9409235961     9.3972131801    15.9332099921
H      15.2745617800     9.6930016284    16.2296074393
H      14.3406679849     6.9669191353    17.1796310761
C      13.7203183875     7.8807203523    17.2610914709
O      12.4395679477     7.6167020680    17.8092423212
H      14.2286074332     8.5619597783    17.9638896181
H      11.9290419240     7.1717811049    17.1028619290
O       8.6412518561    10.1434586286     9.6370526777
147
Step 3 | ATOMIC_POSITIONS (angstrom) | Cartesian Angstrom
NI      1.2254504230     0.7101865830     1.4556095020
NI      2.4444040200     2.8214761450     1.4556095020
NI      3.6633576180     4.9327657080     1.4556095020
NI      4.8823112150     7.0440552710     1.4556095020
NI      6.1012648120     9.1553448320     1.4556095020
NI      7.3202184090    11.2666343950     1.4556095020
NI      3.6633576170     0.7101865830     1.4556095020
NI      4.8823112140     2.8214761450     1.4556095020
NI      6.1012648110     4.9327657080     1.4556095020
NI      7.3202184090     7.0440552710     1.4556095020
NI      8.5391720050     9.1553448320     1.4556095020
NI      9.7581256030    11.2666343950     1.4556095020
NI      6.1012648120     0.7101865830     1.4556095020
NI      7.3202184090     2.8214761450     1.4556095020
NI      8.5391720060     4.9327657080     1.4556095020
NI      9.7581256040     7.0440552710     1.4556095020
NI     10.9770792000     9.1553448320     1.4556095020
NI     12.1960327980    11.2666343950     1.4556095020
NI      8.5391720070     0.7101865830     1.4556095020
NI      9.7581256040     2.8214761450     1.4556095020
NI     10.9770792010     4.9327657080     1.4556095020
NI     12.1960327990     7.0440552710     1.4556095020
NI     13.4149863960     9.1553448320     1.4556095020
NI     14.6339399930    11.2666343950     1.4556095020
NI     10.9770792000     0.7101865830     1.4556095020
NI     12.1960327970     2.8214761450     1.4556095020
NI     13.4149863950     4.9327657080     1.4556095020
NI     14.6339399920     7.0440552710     1.4556095020
NI     15.8528935890     9.1553448320     1.4556095020
NI     17.0718471870    11.2666343950     1.4556095020
NI     13.4149863960     0.7101865830     1.4556095020
NI     14.6339399920     2.8214761450     1.4556095020
NI     15.8528935900     4.9327657080     1.4556095020
NI     17.0718471870     7.0440552710     1.4556095020
NI     18.2908007840     9.1553448320     1.4556095020
NI     19.5097543820    11.2666343950     1.4556095020
NI     13.4535781346     7.7633310817     3.4064036301
NI     14.6456817300     9.8310656598     3.3955361716
NI     15.8389158809     7.7655444339     3.3950580402
NI     12.2439760706     9.8353775361     3.4372458198
NI     14.6436615650     5.6893392597     3.4227128462
NI     17.0362199846     9.8323493095     3.4126481067
NI     11.0262506862     7.7551218265     3.4543704939
NI     13.4424029445    11.9230652053     3.4374832867
NI     12.2333438917     5.6738361899     3.4382156223
NI     15.8435212191    11.9188898214     3.4282938272
NI     17.0465911319     5.6817357883     3.4331978314
NI     18.2416419830     7.7587483433     3.4262736470
NI      9.7924409163     9.8438849573     3.4797358288
NI     11.0135708000    11.9445367147     3.4634416866
NI     13.4263484666     3.5673104912     3.4619125336
NI     18.2559640802    11.9332833703     3.4527183634
NI     15.8508860497     3.5724709327     3.4557291677
NI     19.4632298732     9.8394445035     3.4591703548
NI      4.8474825802     5.6617601232     3.4510001528
NI      7.3274098025     1.3735750719     3.4582249432
NI      9.7884011366     5.6523760558     3.4702012711
NI      3.6525745685     3.5528131529     3.4722088885
NI      6.0675802529     7.7486806056     3.4775559161
NI      4.9007526669     1.3932212700     3.4772354459
NI      8.5545388117     7.7463784508     3.4817884555
NI      9.7460813892     1.3824657205     3.4688605345
NI     10.9896805852     3.5428174122     3.4750265546
NI      2.4582644185     1.4214672976     3.4909127936
NI      7.3088516671     9.8452738006     3.4886294788
NI     12.1828047380     1.4106093380     3.4826060441
NI      6.0957573204     3.5246263747     3.4812399146
NI      7.3118833895     5.6442710159     3.4850037245
NI      8.5437933321     3.5178691817     3.4906907477
NI      8.5499426499    11.9610749491     3.4927905730
NI     14.6303012282     1.4304414448     3.4947626194
NI     20.7017909361    11.9549898792     3.4789508962
AG     -0.1023116282    -0.0239286800     5.7885816416
AG      5.7808847392     5.0389651192     5.7712557691
AG      7.2038461433     2.5400038275     5.7740725976
AG      8.6559536955     5.0583519997     5.7673033017
AG      1.3521302158     2.4704171445     5.7805176701
AG      5.8039228491    10.1645578961     5.8211881109
AG      2.7790221019    -0.0219238239     5.7989924014
AG      8.6440763701    10.1517642088     5.8373695613
AG     11.6300749073     0.0194917997     5.8044222055
AG     13.0700758061     2.4890576284     5.7856888445
AG      4.2731209893     2.4970422792     5.7929208222
AG      7.2393634485     7.6165587042     5.8175214170
AG     10.1311999611     2.5394605326     5.7836302719
AG      2.8561794987     4.9921339267     5.8198258641
AG      4.3561649609     7.5764146795     5.8211058861
AG      5.7095252865     0.0187415144     5.8145057710
AG     10.0642776054     7.6150385418     5.8309747469
AG      8.6815460520     0.0426787294     5.8172829500
AG     11.5476818438     5.0393803764     5.7981126080
AG     11.5046920280    10.1664311540     5.8402952493
AG     14.5163309605     4.9864499022     5.8236736977
AG     17.5148458055    10.1476010461     5.8397210031
AG     12.9864551938     7.5835263893     5.8454037333
AG     14.5007478156    10.1398142304     5.8512933273
AG     16.0075407920     7.5495256912     5.8570660168
AG      5.7462687792     3.3573922565     8.0906093229
AG      7.1971835791     5.8897103833     8.0929711446
AG      8.6662144152     3.3621696597     8.0831864388
AG      4.2923394739     5.8870691302     8.1063581591
AG      7.2065277814     0.8326562099     8.1082811888
AG     10.1242536254     5.8900243212     8.0966914162
AG      1.3512209212     0.8495224054     8.1050545643
AG      7.1649196693    11.0146488234     8.2180992210
AG     13.0536363254     0.8605047475     8.1234712197
AG      2.8216110057     3.3454058804     8.1150117522
AG      5.7354645128     8.4417090050     8.1181862590
AG      4.2827210112     0.8364833559     8.1186888574
AG      8.6549760702     8.4200329498     8.2164023594
AG     10.1380525123     0.8481851896     8.1137734912
AG     11.6033871443     3.3651747762     8.0882960776
AG     11.5919901397     8.4368662495     8.0795970861
AG     13.0680917241    10.9695934861     8.1205365034
AG     13.0690655337     5.8784803050     8.1024790347
AG     15.9915007379    10.9709366631     8.1107817426
AG     15.9952410308     5.8704855415     8.1272355364
AG     17.4583798868     8.4277952349     8.1220344638
AG     10.1439127803    11.0013064058     8.2233215342
AG     14.5260432916     3.3528920794     8.1252609490
AG     18.9004249723    10.9897143412     8.1351730451
AG     14.5366274200     8.4165839481     8.1144164873
O      11.5844005639     8.3763166087    10.4317732663
H      13.6294689275     8.4678593545    10.5765436406
C      12.6604475030     8.1381261799    10.9926493657
H      10.7316948041     7.3282412045    11.9019175601
O      11.3348468118     6.8953300434    12.5495270302
C      12.6389521332     7.3876365548    12.2833998873
H      13.3465387475     6.5457613763    12.1972444148
O      14.4004662169     8.8262031583    12.9459545221
C      13.1455218083     8.3381853365    13.4023856425
H      12.3966195590     9.1508614126    13.5023238405
H      14.8885475062     9.1371264796    13.7407840393
H      14.0302510174     6.8282335027    14.6630885601
C      13.2539099388     7.6143942753    14.7589009686
O      12.0062570789     7.0419357737    15.1603107306
O      14.9889571929     9.0634538435    15.5449506459
C      13.6720683199     8.5689090555    15.8896067217
H      11.4832629080     6.8340228639    14.3544685752
H      12.9411811541     9.3974276986    15.9330744441
H      15.2739040575     9.6931112738    16.2282761882
H      14.3403466763     6.9667431202    17.1799937489
C      13.7201977499     7.8806722661    17.2608558859
O      12.4393298929     7.6174922499    17.8093744756
H      14.2289204160     8.5603712713    17.9645113833
H      11.9286217836     7.1722067569    17.1031915903
O       8.6416471923    10.1427880607     9.5868572276
147
Step 4 | ATOMIC_POSITIONS (angstrom) | Cartesian Angstrom
NI      1.2254504230     0.7101865830     1.4556095020
NI      2.4444040200     2.8214761450     1.4556095020
NI      3.6633576180     4.9327657080     1.4556095020
NI      4.8823112150     7.0440552710     1.4556095020
NI      6.1012648120     9.1553448320     1.4556095020
NI      7.3202184090    11.2666343950     1.4556095020
NI      3.6633576170     0.7101865830     1.4556095020
NI      4.8823112140     2.8214761450     1.4556095020
NI      6.1012648110     4.9327657080     1.4556095020
NI      7.3202184090     7.0440552710     1.4556095020
NI      8.5391720050     9.1553448320     1.4556095020
NI      9.7581256030    11.2666343950     1.4556095020
NI      6.1012648120     0.7101865830     1.4556095020
NI      7.3202184090     2.8214761450     1.4556095020
NI      8.5391720060     4.9327657080     1.4556095020
NI      9.7581256040     7.0440552710     1.4556095020
NI     10.9770792000     9.1553448320     1.4556095020
NI     12.1960327980    11.2666343950     1.4556095020
NI      8.5391720070     0.7101865830     1.4556095020
NI      9.7581256040     2.8214761450     1.4556095020
NI     10.9770792010     4.9327657080     1.4556095020
NI     12.1960327990     7.0440552710     1.4556095020
NI     13.4149863960     9.1553448320     1.4556095020
NI     14.6339399930    11.2666343950     1.4556095020
NI     10.9770792000     0.7101865830     1.4556095020
NI     12.1960327970     2.8214761450     1.4556095020
NI     13.4149863950     4.9327657080     1.4556095020
NI     14.6339399920     7.0440552710     1.4556095020
NI     15.8528935890     9.1553448320     1.4556095020
NI     17.0718471870    11.2666343950     1.4556095020
NI     13.4149863960     0.7101865830     1.4556095020
NI     14.6339399920     2.8214761450     1.4556095020
NI     15.8528935900     4.9327657080     1.4556095020
NI     17.0718471870     7.0440552710     1.4556095020
NI     18.2908007840     9.1553448320     1.4556095020
NI     19.5097543820    11.2666343950     1.4556095020
NI     13.4538625261     7.7631344197     3.4061214728
NI     14.6455641062     9.8310848632     3.3958600073
NI     15.8385761479     7.7657937115     3.3951223425
NI     12.2439568058     9.8350655878     3.4358846355
NI     14.6435719197     5.6896106611     3.4229427895
NI     17.0365489978     9.8324437086     3.4125796933
NI     11.0263927511     7.7552022754     3.4530577235
NI     13.4426069804    11.9232232549     3.4376974154
NI     12.2332436320     5.6739206894     3.4376868923
NI     15.8434754518    11.9188890142     3.4278731907
NI     17.0467000796     5.6816642569     3.4329570390
NI     18.2416834845     7.7588265124     3.4264303173
NI      9.7928727357     9.8440624434     3.4802173523
NI     11.0136570600    11.9440296684     3.4637314777
NI     13.4268147019     3.5668675021     3.4617623409
NI     18.2558682713    11.9334476791     3.4528394749
NI     15.8507864876     3.5723168843     3.4558638338
NI     19.4630266260     9.8397373459     3.4580031442
NI      4.8475823166     5.6618407993     3.4509554871
NI      7.3274949853     1.3735140778     3.4582965822
NI      9.7883685327     5.6516519241     3.4705683051
NI      3.6523315330     3.5523067105     3.4727566122
NI      6.0674439641     7.7489942485     3.4767574764
NI      4.9008353071     1.3935670443     3.4772333454
NI      8.5548391464     7.7461530940     3.4830233100
NI      9.7456623024     1.3820723637     3.4687921463
NI     10.9895769400     3.5429206873     3.4754188319
NI      2.4579600734     1.4216412466     3.4903031500
NI      7.3085278675     9.8450142566     3.4900372948
NI     12.1827070387     1.4106024799     3.4824108740
NI      6.0958928291     3.5246861012     3.4809615016
NI      7.3115665050     5.6437202309     3.4852748301
NI      8.5436942606     3.5176511412     3.4907349567
NI      8.5499616200    11.9621874430     3.4939005929
NI     14.6299519941     1.4307520994     3.4944410952
NI     20.7018469507    11.9549365742     3.4788179081
AG     -0.1027091722    -0.0248843878     5.7888072776
AG      5.7804811217     5.0394212124     5.7710482893
AG      7.2040376549     2.5406031982     5.7738086165
AG      8.6546974413     5.0582807491     5.7661763159
AG      1.3523063500     2.4694886451     5.7810624578
AG      5.8040050942    10.1661644853     5.8215050944
AG      2.7800764971    -0.0224284107     5.7992874060
AG      8.6446572931    10.1513578128     5.8352186537
AG     11.6308700929     0.0191513504     5.8041586524
AG     13.0699334205     2.4892416337     5.7857385037
AG      4.2727842169     2.4973620614     5.7928013101
AG      7.2404738856     7.6153495487     5.8173643821
AG     10.1312475229     2.5391006955     5.7834331196
AG      2.8558857720     4.9924976123     5.8194808897
AG      4.3570852433     7.5769804459     5.8217659598
AG      5.7093939995     0.0198000802     5.8142376768
AG     10.0628318951     7.6154112322     5.8297430946
AG      8.6819900152     0.0426276313     5.8169994204
AG     11.5488986067     5.0393657822     5.7966531571
AG     11.5051074283    10.1677993038     5.8410381144
AG     14.5161756172     4.9863689744     5.8230040751
AG     17.5145995169    10.1478100905     5.8395092933
AG     12.9855221441     7.5838732349     5.8440655470
AG     14.4994798879    10.1406559160     5.8508461855
AG     16.0083223588     7.5488903155     5.8557657564
AG      5.7460189677     3.3575136404     8.0905742455
AG      7.1987997792     5.8914047264     8.0932788471