148
Step 1 | ATOMIC_POSITIONS (angstrom) | Cartesian Angstrom
NI      1.2254504230     0.7101865830     1.4556095020
NI      2.4444040200     2.8214761450     1.4556095020
NI      3.6633576180     4.9327657080     1.4556095020
NI      4.8823112150     7.0440552710     1.4556095020
NI      6.1012648120     9.1553448320     1.4556095020
NI      7.3202184090    11.2666343950     1.4556095020
NI      3.6633576170     0.7101865830     1.4556095020
NI      4.8823112140     2.8214761450     1.4556095020
NI      6.1012648110     4.9327657080     1.4556095020
NI      7.3202184090     7.0440552710     1.4556095020
NI      8.5391720050     9.1553448320     1.4556095020
NI      9.7581256030    11.2666343950     1.4556095020
NI      6.1012648120     0.7101865830     1.4556095020
NI      7.3202184090     2.8214761450     1.4556095020
NI      8.5391720060     4.9327657080     1.4556095020
NI      9.7581256040     7.0440552710     1.4556095020
NI     10.9770792000     9.1553448320     1.4556095020
NI     12.1960327980    11.2666343950     1.4556095020
NI      8.5391720070     0.7101865830     1.4556095020
NI      9.7581256040     2.8214761450     1.4556095020
NI     10.9770792010     4.9327657080     1.4556095020
NI     12.1960327990     7.0440552710     1.4556095020
NI     13.4149863960     9.1553448320     1.4556095020
NI     14.6339399930    11.2666343950     1.4556095020
NI     10.9770792000     0.7101865830     1.4556095020
NI     12.1960327970     2.8214761450     1.4556095020
NI     13.4149863950     4.9327657080     1.4556095020
NI     14.6339399920     7.0440552710     1.4556095020
NI     15.8528935890     9.1553448320     1.4556095020
NI     17.0718471870    11.2666343950     1.4556095020
NI     13.4149863960     0.7101865830     1.4556095020
NI     14.6339399920     2.8214761450     1.4556095020
NI     15.8528935900     4.9327657080     1.4556095020
NI     17.0718471870     7.0440552710     1.4556095020
NI     18.2908007840     9.1553448320     1.4556095020
NI     19.5097543820    11.2666343950     1.4556095020
NI     13.4456097922     7.7631807977     3.4052922560
NI     14.6385803537     9.8290136636     3.3983364762
NI     15.8301738452     7.7656032356     3.3985648297
NI     12.2441614376     9.8347450747     3.4254139058
NI     14.6395671656     5.6891289847     3.4242201120
NI     17.0282100748     9.8335558304     3.4158575317
NI     11.0293355347     7.7535210465     3.4348356495
NI     13.4379202120    11.9248799499     3.4377236821
NI     12.2306423932     5.6754891346     3.4399008802
NI     15.8362000542    11.9209764288     3.4316862574
NI     17.0440450427     5.6790707027     3.4358050095
NI     18.2385682503     7.7573242127     3.4306828180
NI      9.7991421057     9.8404477032     3.4605991260
NI     11.0142281053    11.9411005648     3.4579778339
NI     13.4209480699     3.5701424010     3.4624308366
NI     18.2514602885    11.9368537275     3.4545881022
NI     15.8466945838     3.5733513834     3.4552170731
NI     19.4607224870     9.8405654340     3.4525167787
NI      4.8472087895     5.6581322089     3.4567168257
NI      7.3218763810     1.3746255176     3.4586270074
NI      9.7890510755     5.6540552954     3.4665970969
NI      3.6514836975     3.5525201105     3.4765329121
NI      6.0686958018     7.7467522459     3.4736775005
NI      4.8981570159     1.3920370508     3.4778454022
NI      8.5601549382     7.7456702926     3.4741068069
NI      9.7424631051     1.3869439332     3.4739230920
NI     10.9871602118     3.5454210427     3.4772419533
NI      2.4552902996     1.4225975040     3.4857533960
NI      7.3130450194     9.8435914509     3.4807170410
NI     12.1805078132     1.4163199925     3.4816187096
NI      6.0936138231     3.5221148644     3.4878441619
NI      7.3155938640     5.6431052841     3.4892494598
NI      8.5430991829     3.5193145925     3.4923499651
NI      8.5542281786    11.9576548080     3.4892223221
NI     14.6309119234     1.4342886459     3.4867475310
NI     20.7042223899    11.9568084279     3.4848887966
AG     -0.0433460712    -0.0063682396     5.7703362129
AG      5.8197396494     5.0375592410     5.7792189720
AG      7.2608724591     2.5473164751     5.7794851244
AG      8.7049052896     5.0484676306     5.7780850050
AG      1.4050476979     2.4823466774     5.7886752082
AG      5.8474867964    10.1470011991     5.7948877203
AG      2.8401669020     0.0076665184     5.7863493453
AG      8.7046233089    10.1518075903     5.7878936136
AG     11.6929316749     0.0142954632     5.7975008145
AG     13.1146320577     2.4918458693     5.7919109702
AG      4.3324216465     2.5169227404     5.8004979254
AG      7.2769892923     7.5888790603     5.7994198933
AG     10.1884905240     2.5298938433     5.7991768221
AG      2.9002661055     5.0029176109     5.8257657443
AG      4.4026965444     7.5751957656     5.8229820898
AG      5.7738892263     0.0365156746     5.8228745052
AG     10.1322512499     7.5940264813     5.8078722041
AG      8.7464865058     0.0446000515     5.8227994030
AG     11.6030732896     5.0209754948     5.8119123165
AG     11.5932623799    10.1596228608     5.8307364312
AG     14.5683540035     4.9856401111     5.8322897575
AG     17.5671098910    10.1547560889     5.8382971408
AG     13.0750712439     7.5683809055     5.8540504339
AG     14.5757605484    10.1606786819     5.8592404682
AG     16.0732851324     7.5602288450     5.8613335605
AG      5.7973059416     3.3641374047     8.1051404529
AG      7.2510225923     5.9018992641     8.0959803719
AG      8.7248556034     3.3683692478     8.1046245882
AG      4.3389543697     5.8966335086     8.1140743864
AG      7.2680401252     0.8408003827     8.1132012421
AG     10.1688794722     5.9048315752     8.0736472811
AG      1.4128830317     0.8332583121     8.1146642171
AG      7.2702301905    10.9875175060     8.1162156544
AG     13.1274141962     0.8387008891     8.1179359860
AG      2.8647887272     3.3523490692     8.1219017158
AG      5.8125291521     8.4497664553     8.1173577564
AG      4.3250076455     0.8319379997     8.1200536181
AG      8.7106901733     8.4666429343     8.0818549857
AG     10.2080339371     0.8401296236     8.1181089635
AG     11.6542172143     3.3618906651     8.1219610525
AG     11.6415129384     8.4502074111     8.1081252135
AG     13.1075295393    10.9767739392     8.1289766795
AG     13.1156852896     5.8838786475     8.1107742193
AG     16.0595379531    10.9766203634     8.1221098255
AG     16.0371836538     5.8840529732     8.1329620826
AG     17.5208090083     8.4394560098     8.1228439242
AG     10.1750393344    10.9841916567     8.1263940755
AG     14.5738440865     3.3464318147     8.1305830209
AG     18.9925767828    10.9819275074     8.1217949438
AG     14.5747701168     8.4311220303     8.1296640258
O      10.6856550031     6.2685624801    10.3222679171
H      12.1143220131     4.8623154287    10.2731216762
C      11.1614946181     5.3360768791    10.7454085742
H       9.0971647227     4.0576899754    11.4577983246
O       9.4012966489     4.5601764429    12.2465469679
C      10.8029897091     4.6523873234    12.1089411700
H      11.2484171113     3.6618845938    12.1236116671
O      12.6297855568     6.0083882865    12.8647462757
C      11.3647307565     5.5195358870    13.2752684279
H      10.6972325924     6.4026091106    13.3476445883
H      13.3097450951     5.4093228196    13.2235544734
H      12.2117006501     3.9042261483    14.5226031270
C      11.4222022608     4.7125199573    14.5922885013
O      10.2170871244     4.0125301938    14.7902763560
O      12.8609322115     6.4116175301    15.5291831853
C      11.6951837143     5.6382640060    15.8047805098
H       9.5194445270     4.7063391640    14.8891956649
H      10.8441734563     6.3243896800    15.9757493712
H      12.9265895015     7.0631304177    16.2556094871
H      12.7548422111     4.1953891916    17.0632347473
C      11.9079475261     4.8722870819    17.1147281891
O      10.7163734357     4.1627024765    17.4445001970
H      12.1627904390     5.5525887355    17.9451456797
H      10.9008471587     3.7200948110    18.2913447403
O       8.7221583904     8.4581287759    10.1259961689
H       8.3807294733     8.7784639617    10.9565501214
148
Step 2 | ATOMIC_POSITIONS (angstrom) | Cartesian Angstrom
NI      1.2254504230     0.7101865830     1.4556095020
NI      2.4444040200     2.8214761450     1.4556095020
NI      3.6633576180     4.9327657080     1.4556095020
NI      4.8823112150     7.0440552710     1.4556095020
NI      6.1012648120     9.1553448320     1.4556095020
NI      7.3202184090    11.2666343950     1.4556095020
NI      3.6633576170     0.7101865830     1.4556095020
NI      4.8823112140     2.8214761450     1.4556095020
NI      6.1012648110     4.9327657080     1.4556095020
NI      7.3202184090     7.0440552710     1.4556095020
NI      8.5391720050     9.1553448320     1.4556095020
NI      9.7581256030    11.2666343950     1.4556095020
NI      6.1012648120     0.7101865830     1.4556095020
NI      7.3202184090     2.8214761450     1.4556095020
NI      8.5391720060     4.9327657080     1.4556095020
NI      9.7581256040     7.0440552710     1.4556095020
NI     10.9770792000     9.1553448320     1.4556095020
NI     12.1960327980    11.2666343950     1.4556095020
NI      8.5391720070     0.7101865830     1.4556095020
NI      9.7581256040     2.8214761450     1.4556095020
NI     10.9770792010     4.9327657080     1.4556095020
NI     12.1960327990     7.0440552710     1.4556095020
NI     13.4149863960     9.1553448320     1.4556095020
NI     14.6339399930    11.2666343950     1.4556095020
NI     10.9770792000     0.7101865830     1.4556095020
NI     12.1960327970     2.8214761450     1.4556095020
NI     13.4149863950     4.9327657080     1.4556095020
NI     14.6339399920     7.0440552710     1.4556095020
NI     15.8528935890     9.1553448320     1.4556095020
NI     17.0718471870    11.2666343950     1.4556095020
NI     13.4149863960     0.7101865830     1.4556095020
NI     14.6339399920     2.8214761450     1.4556095020
NI     15.8528935900     4.9327657080     1.4556095020
NI     17.0718471870     7.0440552710     1.4556095020
NI     18.2908007840     9.1553448320     1.4556095020
NI     19.5097543820    11.2666343950     1.4556095020
NI     13.4457479880     7.7632660313     3.4050763768
NI     14.6385356774     9.8293291795     3.3984108183
NI     15.8303888336     7.7654867269     3.3986075797
NI     12.2439766955     9.8347724115     3.4254755013
NI     14.6395022665     5.6889679476     3.4241732593
NI     17.0283738802     9.8335449059     3.4160694224
NI     11.0294839131     7.7535583868     3.4348152344
NI     13.4378412145    11.9246324427     3.4377737005
NI     12.2305880755     5.6754918937     3.4396620386
NI     15.8362801814    11.9209072305     3.4318022732
NI     17.0439058660     5.6791142189     3.4358346478
NI     18.2386708465     7.7573852409     3.4311397557
NI      9.7994885937     9.8405699793     3.4600290189
NI     11.0143068528    11.9411057094     3.4581670871
NI     13.4210269308     3.5704021423     3.4623255154
NI     18.2516268013    11.9368422702     3.4546069515
NI     15.8468119706     3.5734043507     3.4554721719
NI     19.4607626372     9.8407681242     3.4527145837
NI      4.8472431469     5.6582052064     3.4568728647
NI      7.3220528983     1.3746027544     3.4586502988
NI      9.7891751384     5.6541455523     3.4662080073
NI      3.6514179522     3.5524646421     3.4765017461
NI      6.0687986861     7.7467325498     3.4735930165
NI      4.8980434064     1.3919292771     3.4777959212
NI      8.5600103984     7.7458214480     3.4737140763
NI      9.7424096045     1.3869789398     3.4740362417
NI     10.9872486246     3.5452951611     3.4772936692
NI      2.4553506939     1.4225539076     3.4856873739
NI      7.3130414928     9.8435650354     3.4804721562
NI     12.1806062442     1.4162625809     3.4817586919
NI      6.0937505975     3.5222607613     3.4877534190
NI      7.3155192338     5.6432331667     3.4892067234
NI      8.5430238495     3.5193343213     3.4925475943
NI      8.5542719763    11.9575487704     3.4894775245
NI     14.6310062961     1.4341321143     3.4870393819
NI     20.7040540583    11.9566716560     3.4848064160
AG     -0.0432675887    -0.0066945929     5.7706671628
AG      5.8201038401     5.0379288985     5.7792955203
AG      7.2608374266     2.5473260652     5.7791912497
AG      8.7053212465     5.0491913147     5.7784811146
AG      1.4050355720     2.4824594830     5.7884575181
AG      5.8479974137    10.1466600225     5.7951188740
AG      2.8400539238     0.0071629668     5.7865857575
AG      8.7044721143    10.1506838433     5.7882722411
AG     11.6928788085     0.0141680976     5.7972325704
AG     13.1145673373     2.4919051039     5.7921696235
AG      4.3323790653     2.5169310233     5.8007230876
AG      7.2780385055     7.5896772666     5.7993702944
AG     10.1885391586     2.5300690808     5.7989740573
AG      2.9002964222     5.0029677510     5.8255797309
AG      4.4032102354     7.5754178149     5.8229642447
AG      5.7740420550     0.0365757370     5.8227058333
AG     10.1308626849     7.5946296447     5.8084340755
AG      8.7465014134     0.0446393219     5.8225840915
AG     11.6029577580     5.0213361725     5.8118377536
AG     11.5927189400    10.1594149147     5.8308625489
AG     14.5682918686     4.9856066730     5.8321504656
AG     17.5670894903    10.1547894126     5.8381793494
AG     13.0742193398     7.5683670627     5.8543587648
AG     14.5756930671    10.1606449385     5.8592886229
AG     16.0731833628     7.5603541445     5.8613481828
AG      5.7973302399     3.3641294163     8.1050837198
AG      7.2508958576     5.9014379102     8.0963709454
AG      8.7247717927     3.3680236006     8.1046933096
AG      4.3390181579     5.8965382417     8.1139617635
AG      7.2678554589     0.8408799172     8.1131326870
AG     10.1662885319     5.9047611279     8.0668737291
AG      1.4125026218     0.8331181586     8.1146606903
AG      7.2698409371    10.9879356680     8.1161802837
AG     13.1275308886     0.8383996820     8.1180201810
AG      2.8649098256     3.3523259512     8.1217465651
AG      5.8120668585     8.4497932909     8.1174981496
AG      4.3250495147     0.8320514157     8.1200362804
AG      8.7078086906     8.4687063827     8.0726139640
AG     10.2080441774     0.8403030772     8.1183970652
AG     11.6546000941     3.3600552777     8.1205285094
AG     11.6425002582     8.4506733760     8.1080763774
AG     13.1075086324    10.9768314438     8.1289490774
AG     13.1184043054     5.8843943153     8.1084646345
AG     16.0594148136    10.9766642271     8.1220677830
AG     16.0373055172     5.8840261784     8.1329361045
AG     17.5207836039     8.4394025076     8.1229367109
AG     10.1753058842    10.9844739698     8.1264411580
AG     14.5739261209     3.3464577084     8.1304367275
AG     18.9925710144    10.9820035282     8.1219282533
AG     14.5749105615     8.4311529138     8.1295904935
O      10.6508278115     6.3190568958    10.3014938646
H      12.1082689462     4.8608203262    10.2724861048
C      11.2111680629     5.2879900977    10.7868404734
H       9.0934967760     4.0589634472    11.4606455894
O       9.3932957721     4.5600923622    12.2414648247
C      10.7955917377     4.6526275645    12.1033039717
H      11.2543696855     3.6569452911    12.1252935158
O      12.6379443627     6.0099474554    12.8610018077
C      11.3648152815     5.5161276771    13.2637077772
H      10.6980467709     6.3990428827    13.3517506334
H      13.3119802984     5.4112819758    13.2243420996
H      12.2077191693     3.9133084241    14.5224103802
C      11.4201651046     4.7180464511    14.5942968940
O      10.2108311777     4.0124675248    14.7912658483
O      12.8661851117     6.4155505383    15.5310313877
C      11.7001461227     5.6367364557    15.8147330630
H       9.5200068217     4.6996513736    14.8884475747
H      10.8402603646     6.3206612709    15.9697423939
H      12.9290110201     7.0631783181    16.2540766118
H      12.7601280977     4.1917991883    17.0558003945
C      11.9074751805     4.8678830349    17.1220131026
O      10.7122242810     4.1607070516    17.4492999845
H      12.1621987578     5.5603047454    17.9412900671
H      10.8984088974     3.7191071620    18.2918986285
O       8.7295522070     8.4518791071    10.1313631708
H       8.3734482267     8.7852969552    10.9614354848
148
Step 3 | ATOMIC_POSITIONS (angstrom) | Cartesian Angstrom
NI      1.2254504230     0.7101865830     1.4556095020
NI      2.4444040200     2.8214761450     1.4556095020
NI      3.6633576180     4.9327657080     1.4556095020
NI      4.8823112150     7.0440552710     1.4556095020
NI      6.1012648120     9.1553448320     1.4556095020
NI      7.3202184090    11.2666343950     1.4556095020
NI      3.6633576170     0.7101865830     1.4556095020
NI      4.8823112140     2.8214761450     1.4556095020
NI      6.1012648110     4.9327657080     1.4556095020
NI      7.3202184090     7.0440552710     1.4556095020
NI      8.5391720050     9.1553448320     1.4556095020
NI      9.7581256030    11.2666343950     1.4556095020
NI      6.1012648120     0.7101865830     1.4556095020
NI      7.3202184090     2.8214761450     1.4556095020
NI      8.5391720060     4.9327657080     1.4556095020
NI      9.7581256040     7.0440552710     1.4556095020
NI     10.9770792000     9.1553448320     1.4556095020
NI     12.1960327980    11.2666343950     1.4556095020
NI      8.5391720070     0.7101865830     1.4556095020
NI      9.7581256040     2.8214761450     1.4556095020
NI     10.9770792010     4.9327657080     1.4556095020
NI     12.1960327990     7.0440552710     1.4556095020
NI     13.4149863960     9.1553448320     1.4556095020
NI     14.6339399930    11.2666343950     1.4556095020
NI     10.9770792000     0.7101865830     1.4556095020
NI     12.1960327970     2.8214761450     1.4556095020
NI     13.4149863950     4.9327657080     1.4556095020
NI     14.6339399920     7.0440552710     1.4556095020
NI     15.8528935890     9.1553448320     1.4556095020
NI     17.0718471870    11.2666343950     1.4556095020
NI     13.4149863960     0.7101865830     1.4556095020
NI     14.6339399920     2.8214761450     1.4556095020
NI     15.8528935900     4.9327657080     1.4556095020
NI     17.0718471870     7.0440552710     1.4556095020
NI     18.2908007840     9.1553448320     1.4556095020
NI     19.5097543820    11.2666343950     1.4556095020
NI     13.4459495312     7.7633788363     3.4048633857
NI     14.6384901515     9.8297059736     3.3984949442
NI     15.8306625521     7.7653632872     3.3986511509
NI     12.2437669804     9.8347845859     3.4255796552
NI     14.6393956571     5.6887842428     3.4241189890
NI     17.0285667747     9.8335114829     3.4162925246
NI     11.0296334553     7.7535726872     3.4348991749
NI     13.4377520324    11.9243288580     3.4378131909
NI     12.2304734480     5.6755172633     3.4393675239
NI     15.8363872212    11.9208361564     3.4319066984
NI     17.0437624226     5.6791782789     3.4358369040
NI     18.2388296658     7.7574508297     3.4317295163
NI      9.7999151357     9.8406831838     3.4593052731
NI     11.0144396754    11.9411302896     3.4584307635
NI     13.4211294476     3.5707130180     3.4622653373
NI     18.2518009267    11.9368460236     3.4545856338
NI     15.8469712931     3.5734905092     3.4557980424
NI     19.4608251466     9.8409977444     3.4529958711
NI      4.8472911629     5.6582942073     3.4570661004
NI      7.3222656968     1.3745689165     3.4586340100
NI      9.7893064278     5.6542448091     3.4656596405
NI      3.6513749682     3.5524056906     3.4764416734
NI      6.0689628190     7.7466766423     3.4734710192
NI      4.8979420509     1.3918192873     3.4776985720
NI      8.5598527847     7.7460024520     3.4731384600
NI      9.7423405029     1.3870325537     3.4741660446
NI     10.9873242991     3.5451578297     3.4773779417
NI      2.4554480419     1.4224774662     3.4855940772
NI      7.3130742227     9.8435062678     3.4801240450
NI     12.1807253885     1.4162461988     3.4819645853
NI      6.0939473445     3.5224675940     3.4875935722
NI      7.3154686814     5.6433930899     3.4891559612
NI      8.5429350667     3.5194399361     3.4928247613
NI      8.5543303318    11.9574016388     3.4898670776
NI     14.6311489906     1.4339267863     3.4874396752
NI     20.7038640858    11.9564787305     3.4847062873
AG     -0.0431521129    -0.0071787108     5.7711411740
AG      5.8206932231     5.0385034937     5.7793957122
AG      7.2607962447     2.5473989822     5.7787751176
AG      8.7058260602     5.0501660178     5.7788335420
AG      1.4050248464     2.4825861265     5.7881711339
AG      5.8487063472    10.1461604603     5.7954420421
AG      2.8398712545     0.0064136558     5.7869383623
AG      8.7042981294    10.1494360755     5.7883423421
AG     11.6928112913     0.0139796558     5.7968912723
AG     13.1145603304     2.4919270831     5.7923922872
AG      4.3323266557     2.5169432244     5.8010150429
AG      7.2791534332     7.5905997349     5.7988900339
AG     10.1884958114     2.5303378729     5.7986212387
AG      2.9003615273     5.0030492552     5.8253178453
AG      4.4040183839     7.5757371858     5.8229749256
AG      5.7742548475     0.0366612299     5.8224727646
AG     10.1292442058     7.5954946671     5.8086068311
AG      8.7465377338     0.0447172388     5.8223206333
AG     11.6028239868     5.0218728759     5.8115415065
AG     11.5919270843    10.1590733334     5.8310480169
AG     14.5682909038     4.9855370350     5.8318046499
AG     17.5670827925    10.1548402228     5.8380759422
AG     13.0728887601     7.5684833243     5.8545716066
AG     14.5755651457    10.1605852966     5.8593678402
AG     16.0730267205     7.5605457839     5.8613822306
AG      5.7973779399     3.3641197703     8.1050122309
AG      7.2506523540     5.9008450534     8.0970556411
AG      8.7246292096     3.3674154834     8.1047071598
AG      4.3391058840     5.8963936217     8.1137950561
AG      7.2675835707     0.8410002081     8.1130265148
AG     10.1633574095     5.9044684206     8.0592436704
AG      1.4119577132     0.8329437081     8.1146557105
AG      7.2692531215    10.9885728338     8.1162485684
AG     13.1277002182     0.8379508514     8.1181726848
AG      2.8650718681     3.3522874622     8.1215185067
AG      5.8113607653     8.4498192350     8.1178162480
AG      4.3251074652     0.8322158752     8.1200127856
AG      8.7033987755     8.4719473629     8.0650068290
AG     10.2080305806     0.8405273271     8.1188106685
AG     11.6551494729     3.3572560510     8.1180401059
AG     11.6437772566     8.4512636487     8.1082703830
AG     13.1075008933    10.9769445694     8.1289092318
AG     13.1222292418     5.8852238628     8.1049087585
AG     16.0592427124    10.9767412942     8.1220080877
AG     16.0375586750     5.8839769612     8.1329149842
AG     17.5207445385     8.4393237877     8.1230639193
AG     10.1756356514    10.9848334348     8.1266517311
AG     14.5740086071     3.3464893627     8.1302976559
AG     18.9925328696    10.9821229537     8.1221221683
AG     14.5751756323     8.4312550594     8.1294786037
O      10.6526975919     6.3006330037    10.3152068472
H      12.1043700937     4.8589158779    10.2730295592
C      11.2209992038     5.3090310383    10.7951763325
H       9.0858714056     4.0603088526    11.4635129357
O       9.3864605656     4.5598071360    12.2315876147
C      10.7920374684     4.6570166533    12.1040766432
H      11.2603066638     3.6489337662    12.1277091496
O      12.6457339490     6.0086970716    12.8556074034
C      11.3652325230     5.5122461584    13.2569459059
H      10.6994136641     6.3941322200    13.3545707105
H      13.3148312166     5.4148891973    13.2251704759
H      12.2011122008     3.9273836687    14.5224202999
C      11.4219311951     4.7208968499    14.5963125338
O      10.2042855607     4.0159685900    14.7921193074
O      12.8691169119     6.4182933850    15.5374390641
C      11.7055154699     5.6334769199    15.8177480028
H       9.5192872580     4.6893953562    14.8875437808
H      10.8361363835     6.3160382717    15.9639690382
H      12.9339035424     7.0645208051    16.2519276258
H      12.7685505476     4.1845262376    17.0469673081
C      11.9015376178     4.8666512311    17.1254123200
O      10.7116223202     4.1595792754    17.4566399449
H      12.1622132774     5.5701603443    17.9389325955
H      10.8936444724     3.7163370283    18.2941253927
O       8.7390489042     8.4442395573    10.1390036565
H       8.3639300673     8.7942294991    10.9637961473
148
Step 4 | ATOMIC_POSITIONS (angstrom) | Cartesian Angstrom
NI      1.2254504230     0.7101865830     1.4556095020
NI      2.4444040200     2.8214761450     1.4556095020
NI      3.6633576180     4.9327657080     1.4556095020
NI      4.8823112150     7.0440552710     1.4556095020
NI      6.1012648120     9.1553448320     1.4556095020
NI      7.3202184090    11.2666343950     1.4556095020
NI      3.6633576170     0.7101865830     1.4556095020
NI      4.8823112140     2.8214761450     1.4556095020
NI      6.1012648110     4.9327657080     1.4556095020
NI      7.3202184090     7.0440552710     1.4556095020
NI      8.5391720050     9.1553448320     1.4556095020
NI      9.7581256030    11.2666343950     1.4556095020
NI      6.1012648120     0.7101865830     1.4556095020
NI      7.3202184090     2.8214761450     1.4556095020
NI      8.5391720060     4.9327657080     1.4556095020
NI      9.7581256040     7.0440552710     1.4556095020
NI     10.9770792000     9.1553448320     1.4556095020
NI     12.1960327980    11.2666343950     1.4556095020
NI      8.5391720070     0.7101865830     1.4556095020
NI      9.7581256040     2.8214761450     1.4556095020
NI     10.9770792010     4.9327657080     1.4556095020
NI     12.1960327990     7.0440552710     1.4556095020
NI     13.4149863960     9.1553448320     1.4556095020
NI     14.6339399930    11.2666343950     1.4556095020
NI     10.9770792000     0.7101865830     1.4556095020
NI     12.1960327970     2.8214761450     1.4556095020
NI     13.4149863950     4.9327657080     1.4556095020
NI     14.6339399920     7.0440552710     1.4556095020
NI     15.8528935890     9.1553448320     1.4556095020
NI     17.0718471870    11.2666343950     1.4556095020
NI     13.4149863960     0.7101865830     1.4556095020
NI     14.6339399920     2.8214761450     1.4556095020
NI     15.8528935900     4.9327657080     1.4556095020
NI     17.0718471870     7.0440552710     1.4556095020
NI     18.2908007840     9.1553448320     1.4556095020
NI     19.5097543820    11.2666343950     1.4556095020
NI     13.4464351473     7.7636383143     3.4044700516
NI     14.6384310002     9.8303687932     3.3986369735
NI     15.8311647379     7.7651771729     3.3986889044
NI     12.2434119940     9.8347637228     3.4258133168
NI     14.6391547827     5.6885251712     3.4239018953
NI     17.0288953516     9.8334108773     3.4166994443
NI     11.0300046883     7.7536251056     3.4351259390
NI     13.4375728204    11.9236776325     3.4378874125
NI     12.2302847155     5.6756356412     3.4386705289
NI     15.8366278705    11.9206546683     3.4320946236
NI     17.0434262746     5.6793486597     3.4358002220
NI     18.2391039199     7.7576072914     3.4329902638
NI      9.8007922125     9.8409596352     3.4577751975
NI     11.0147130091    11.9411735738     3.4590228460
NI     13.4213752963     3.5713130899     3.4621283592
NI     18.2521151050    11.9368843775     3.4544786039
NI     15.8472753512     3.5736875927     3.4564438069
NI     19.4609593403     9.8414743302     3.4536661976
NI      4.8473162084     5.6584584381     3.4575329726
NI      7.3226646044     1.3744164627     3.4585931786
NI      9.7895987102     5.6544512153     3.4644906160
NI      3.6513055208     3.5522682159     3.4763454382
NI      6.0692558422     7.7466290547     3.4732289527
NI      4.8977712610     1.3915933584     3.4775414413
NI      8.5596676699     7.7464194646     3.4718082269
NI      9.7422561561     1.3870855832     3.4744181115
NI     10.9875154802     3.5449058963     3.4775064152
NI      2.4556535627     1.4222444890     3.4854220225
NI      7.3131933388     9.8434760769     3.4793523619
NI     12.1810106913     1.4162147182     3.4823912043
NI      6.0943247316     3.5228689010     3.4872617762
NI      7.3154292904     5.6437208146     3.4890715069
NI      8.5428120384     3.5197128317     3.4934501178
NI      8.5544799227    11.9570675161     3.4907382685
NI     14.6314572595     1.4334738975     3.4883188654
NI     20.7035549793    11.9561088360     3.4845125632
AG     -0.0429023406    -0.0082838286     5.7721397704
AG      5.8220844049     5.0398517107     5.7796452809
AG      7.2606973755     2.5476216591     5.7778733883
AG      8.7065737346     5.0521551785     5.7791472453
AG      1.4050301127     2.4827676456     5.7876005914
AG      5.8502277276    10.1450478829     5.7961480334
AG      2.8394269519     0.0047235437     5.7877485270
AG      8.7039654278    10.1471633923     5.7878767410
AG     11.6926841693     0.0135349306     5.7962101860
AG     13.1146618039     2.4918955621     5.7927419758
AG      4.3322138480     2.5169585854     5.8016149262
AG      7.2811375140     7.5923757096     5.7973684892
AG     10.1882926398     2.5309142621     5.7977965581
AG      2.9005590438     5.0032594974     5.8247397728
AG      4.4058985432     7.5764672757     5.8230692094
AG      5.7747113045     0.0368488562     5.8219609985
AG     10.1260472769     7.5976797805     5.8082532755
AG      8.7466374389     0.0449212794     5.8218131222
AG     11.6027778602     5.0229844460     5.8106260563
AG     11.5901510172    10.1583191831     5.8314293747
AG     14.5684638775     4.9852860342     5.8308062257
AG     17.5671098238    10.1549629514     5.8379539135
AG     13.0697656809     7.5689623551     5.8546983302
AG     14.5752227536    10.1604392595     5.8595539836