146
Step 1 | ATOMIC_POSITIONS (angstrom) | Cartesian Angstrom
NI      1.2189535980     0.7037631880     1.4255056150
NI      2.4379071950     2.8150527500     1.4255056150
NI      3.6568607930     4.9263423130     1.4255056150
NI      4.8758143900     7.0376318760     1.4255056150
NI      6.0947679870     9.1489214370     1.4255056150
NI      7.3137215840    11.2602110000     1.4255056150
NI      3.6568607920     0.7037631880     1.4255056150
NI      4.8758143890     2.8150527500     1.4255056150
NI      6.0947679860     4.9263423130     1.4255056150
NI      7.3137215840     7.0376318760     1.4255056150
NI      8.5326751800     9.1489214370     1.4255056150
NI      9.7516287780    11.2602110000     1.4255056150
NI      6.0947679870     0.7037631880     1.4255056150
NI      7.3137215840     2.8150527500     1.4255056150
NI      8.5326751810     4.9263423130     1.4255056150
NI      9.7516287790     7.0376318760     1.4255056150
NI     10.9705823750     9.1489214370     1.4255056150
NI     12.1895359730    11.2602110000     1.4255056150
NI      8.5326751820     0.7037631880     1.4255056150
NI      9.7516287790     2.8150527500     1.4255056150
NI     10.9705823760     4.9263423130     1.4255056150
NI     12.1895359740     7.0376318760     1.4255056150
NI     13.4084895710     9.1489214370     1.4255056150
NI     14.6274431680    11.2602110000     1.4255056150
NI     10.9705823750     0.7037631880     1.4255056150
NI     12.1895359720     2.8150527500     1.4255056150
NI     13.4084895700     4.9263423130     1.4255056150
NI     14.6274431670     7.0376318760     1.4255056150
NI     15.8463967640     9.1489214370     1.4255056150
NI     17.0653503620    11.2602110000     1.4255056150
NI     13.4084895710     0.7037631880     1.4255056150
NI     14.6274431670     2.8150527500     1.4255056150
NI     15.8463967650     4.9263423130     1.4255056150
NI     17.0653503620     7.0376318760     1.4255056150
NI     18.2843039590     9.1489214370     1.4255056150
NI     19.5032575570    11.2602110000     1.4255056150
NI     13.4390385197     7.7565468816     3.3746591461
NI     14.6324141741     9.8228301727     3.3679924984
NI     15.8242507751     7.7592915403     3.3680924877
NI     12.2377187086     9.8281041280     3.3958812647
NI     14.6330970192     5.6828328074     3.3946579441
NI     17.0218029134     9.8272866991     3.3856243266
NI     11.0229169871     7.7472309983     3.4046626312
NI     13.4314420110    11.9184432083     3.4075321811
NI     12.2245891132     5.6690177253     3.4093708145
NI     15.8299557076    11.9148182126     3.4019519607
NI     17.0375873765     5.6728807376     3.4054900972
NI     18.2324183878     7.7510969816     3.4002787116
NI      9.7928706698     9.8337330020     3.4314966704
NI     11.0074141189    11.9349877224     3.4271948634
NI     13.4146359146     3.5639185545     3.4322062652
NI     18.2448276878    11.9305694987     3.4244978377
NI     15.8402418512     3.5667218262     3.4243045676
NI     19.4543217189     9.8340511240     3.4221627852
NI      4.8410305681     5.6518209244     3.4263225527
NI      7.3153952978     1.3684938168     3.4284665039
NI      9.7827012204     5.6475639778     3.4366357346
NI      3.6449706515     3.5459556521     3.4464712520
NI      6.0623643050     7.7400242867     3.4433628542
NI      4.8916759694     1.3860585349     3.4480691044
NI      8.5540589156     7.7388943979     3.4444790663
NI      9.7359887285     1.3810441169     3.4435053460
NI     10.9806875312     3.5392389429     3.4466763923
NI      2.4488773745     1.4165498783     3.4559080590
NI      7.3065876055     9.8371854199     3.4507271885
NI     12.1739319927     1.4099169347     3.4508232935
NI      6.0870355238     3.5156360787     3.4576049668
NI      7.3090872705     5.6361917347     3.4590272565
NI      8.5364370870     3.5132741376     3.4614170898
NI      8.5472108179    11.9517670893     3.4583137587
NI     14.6242973513     1.4277718623     3.4560478141
NI     20.6971554239    11.9500893097     3.4547015980
AG     -0.0512393131    -0.0126106394     5.7397582373
AG      5.8120040896     5.0296020340     5.7494860980
AG      7.2534216544     2.5414164335     5.7500196904
AG      8.6989085614     5.0427384268     5.7492245538
AG      1.3958742840     2.4764197143     5.7583723145
AG      5.8400697481    10.1403090627     5.7640141979
AG      2.8330901430     0.0012052864     5.7554189498
AG      8.6976129132    10.1468331199     5.7564574413
AG     11.6857906244     0.0083947408     5.7674167879
AG     13.1059649102     2.4854067985     5.7613744682
AG      4.3242821568     2.5104628495     5.7709072294
AG      7.2690770775     7.5800509013     5.7682886804
AG     10.1803697234     2.5250717572     5.7691873622
AG      2.8921494582     4.9962228240     5.7960370379
AG      4.3965739947     7.5682854614     5.7924478278
AG      5.7661475109     0.0307052002     5.7930071418
AG     10.1296243503     7.5841338615     5.7776229604
AG      8.7405120794     0.0394844419     5.7926588531
AG     11.5940787970     5.0169246937     5.7829034691
AG     11.5881343406    10.1534498065     5.8002033511
AG     14.5590787355     4.9804263771     5.8026323350
AG     17.5610446190    10.1485697168     5.8078442367
AG     13.0717406525     7.5640906585     5.8244707641
AG     14.5705774947    10.1566630097     5.8288085288
AG     16.0682531684     7.5544358351     5.8310751683
AG      5.7895189325     3.3576324154     8.0762132554
AG      7.2419673333     5.8960050175     8.0656467822
AG      8.7161900045     3.3616546456     8.0741217624
AG      4.3310248909     5.8899599960     8.0838602785
AG      7.2620127515     0.8347629775     8.0827374106
AG     10.1610702948     5.9005573607     7.9937388248
AG      1.4053884524     0.8274110747     8.0837806238
AG      7.2648202079    10.9811434062     8.0870336050
AG     13.1206473845     0.8335634574     8.0886790787
AG      2.8558179414     3.3454705016     8.0910819515
AG      5.8079164465     8.4431450023     8.0875399757
AG      4.3177493829     0.8249454267     8.0892780560
AG      8.7076875604     8.4577461598     8.0740220028
AG     10.2022827211     0.8353319968     8.0882308551
AG     11.6470347073     3.3568729142     8.0915815256
AG     11.6336291832     8.4435926687     8.0767995778
AG     13.1008837128    10.9710137633     8.0988158301
AG     13.1059520700     5.8773268522     8.0821561802
AG     16.0539122605    10.9710411987     8.0915620170
AG     16.0290324128     5.8779062402     8.1024114952
AG     17.5149314559     8.4328056413     8.0922683589
AG     10.1673393636    10.9768001229     8.0964350456
AG     14.5642892779     3.3404215925     8.1011890405
AG     18.9865361716    10.9756665408     8.0918057785
AG     14.5696324629     8.4266644786     8.0994617903
O      10.1589916426     5.8993947015    10.1062840942
H      12.1143663404     5.5230512430    10.5289854586
C      11.0540333446     5.4786753895    10.8234590211
H       8.9164503156     5.2136979496    11.4260148413
O       9.2611482475     4.8168515838    12.2537420301
C      10.6617256202     4.8562737385    12.1214810894
H      11.0876164126     3.8285609440    12.0982753289
O      12.6116524532     6.0600701208    12.8662325395
C      11.3285330655     5.6131070908    13.3070832812
H      10.6557580467     6.4638159087    13.5243252805
H      13.0858671289     6.3500552424    13.6747040011
H      12.3912608525     4.1287720224    14.4198008378
C      11.4752945500     4.7395107827    14.5720571091
O      10.3283025441     3.9179293987    14.7153841520
O      12.8300194499     6.4805223180    15.5927506101
C      11.6857273662     5.6183406903    15.8214367830
H      10.2826620560     3.6405079236    15.6549964523
H      10.7732045963     6.2201692741    15.9696960066
H      12.6036089268     7.3828189207    15.8675134536
H      12.8926665582     4.2125942492    16.9218729505
C      11.9874202626     4.8179214059    17.0919725138
O      10.8523686428     3.9854352129    17.4090999891
H      12.1953201329     5.5214260971    17.9161460729
H      11.1413081316     3.2648813885    17.9904484415
146
Step 2 | ATOMIC_POSITIONS (angstrom) | Cartesian Angstrom
NI      1.2189535980     0.7037631880     1.4255056150
NI      2.4379071950     2.8150527500     1.4255056150
NI      3.6568607930     4.9263423130     1.4255056150
NI      4.8758143900     7.0376318760     1.4255056150
NI      6.0947679870     9.1489214370     1.4255056150
NI      7.3137215840    11.2602110000     1.4255056150
NI      3.6568607920     0.7037631880     1.4255056150
NI      4.8758143890     2.8150527500     1.4255056150
NI      6.0947679860     4.9263423130     1.4255056150
NI      7.3137215840     7.0376318760     1.4255056150
NI      8.5326751800     9.1489214370     1.4255056150
NI      9.7516287780    11.2602110000     1.4255056150
NI      6.0947679870     0.7037631880     1.4255056150
NI      7.3137215840     2.8150527500     1.4255056150
NI      8.5326751810     4.9263423130     1.4255056150
NI      9.7516287790     7.0376318760     1.4255056150
NI     10.9705823750     9.1489214370     1.4255056150
NI     12.1895359730    11.2602110000     1.4255056150
NI      8.5326751820     0.7037631880     1.4255056150
NI      9.7516287790     2.8150527500     1.4255056150
NI     10.9705823760     4.9263423130     1.4255056150
NI     12.1895359740     7.0376318760     1.4255056150
NI     13.4084895710     9.1489214370     1.4255056150
NI     14.6274431680    11.2602110000     1.4255056150
NI     10.9705823750     0.7037631880     1.4255056150
NI     12.1895359720     2.8150527500     1.4255056150
NI     13.4084895700     4.9263423130     1.4255056150
NI     14.6274431670     7.0376318760     1.4255056150
NI     15.8463967640     9.1489214370     1.4255056150
NI     17.0653503620    11.2602110000     1.4255056150
NI     13.4084895710     0.7037631880     1.4255056150
NI     14.6274431670     2.8150527500     1.4255056150
NI     15.8463967650     4.9263423130     1.4255056150
NI     17.0653503620     7.0376318760     1.4255056150
NI     18.2843039590     9.1489214370     1.4255056150
NI     19.5032575570    11.2602110000     1.4255056150
NI     13.4392618668     7.7567758928     3.3740922386
NI     14.6323940533     9.8235999120     3.3680574463
NI     15.8249009387     7.7589912415     3.3679720568
NI     12.2373184593     9.8278504906     3.3957417684
NI     14.6326141628     5.6826172408     3.3943831183
NI     17.0217656979     9.8271914904     3.3860630070
NI     11.0228878696     7.7474675594     3.4046431442
NI     13.4316139937    11.9179667918     3.4074555613
NI     12.2245626072     5.6689593185     3.4085289718
NI     15.8299530196    11.9145267725     3.4021088539
NI     17.0373777265     5.6733168652     3.4054227700
NI     18.2323328572     7.7512086423     3.4006270098
NI      9.7934938529     9.8337072995     3.4316907343
NI     11.0076225503    11.9354014670     3.4276182455
NI     13.4149127605     3.5645422404     3.4322030467
NI     18.2448978310    11.9306491903     3.4243774799
NI     15.8407449254     3.5665944361     3.4247616300
NI     19.4544484918     9.8341672769     3.4222952339
NI      4.8412537588     5.6519672940     3.4263288993
NI      7.3156949787     1.3686235611     3.4286865536
NI      9.7828635536     5.6475418605     3.4348310675
NI      3.6445868809     3.5457879219     3.4461764279
NI      6.0626469171     7.7399629924     3.4435980603
NI      4.8914394202     1.3858563204     3.4477635328
NI      8.5537792581     7.7388803049     3.4445925470
NI      9.7359558226     1.3813611359     3.4439552234
NI     10.9806657625     3.5389640189     3.4466220589
NI      2.4489433662     1.4165720374     3.4552444361
NI      7.3067426157     9.8371271858     3.4511804718
NI     12.1738992580     1.4100758087     3.4513966191
NI      6.0876272048     3.5159625728     3.4570212721
NI      7.3087394700     5.6362191670     3.4590267242
NI      8.5363141116     3.5129961462     3.4611942614
NI      8.5472762416    11.9522750975     3.4585365182
NI     14.6247007564     1.4276854375     3.4562986081
NI     20.6970588095    11.9498616971     3.4544434872
AG     -0.0515309156    -0.0122735888     5.7399930970
AG      5.8122245955     5.0294041330     5.7489080295
AG      7.2533202716     2.5415724546     5.7495195688
AG      8.6989237557     5.0425923955     5.7464799292
AG      1.3957786998     2.4766672028     5.7582088569
AG      5.8400435816    10.1402344796     5.7639117183
AG      2.8332534620     0.0009992820     5.7553992823
AG      8.6973424629    10.1469033544     5.7563502376
AG     11.6857334698     0.0081208009     5.7670198764
AG     13.1061784363     2.4854717099     5.7614938589
AG      4.3242757375     2.5104689282     5.7714239906
AG      7.2691128985     7.5802918384     5.7676979603
AG     10.1802369251     2.5257157149     5.7690404188
AG      2.8923822199     4.9963866924     5.7956945623
AG      4.3964662377     7.5685204528     5.7919226688
AG      5.7666318081     0.0310360674     5.7926810219
AG     10.1293541433     7.5844025116     5.7746447095
AG      8.7406329932     0.0395428057     5.7919023384
AG     11.5951899219     5.0162854347     5.7798051976
AG     11.5879273340    10.1540207385     5.7991240259
AG     14.5595484360     4.9800861258     5.8017106580
AG     17.5609660554    10.1486855084     5.8077681041
AG     13.0709285232     7.5637742151     5.8244305979
AG     14.5704808987    10.1564670276     5.8288695115
AG     16.0678627588     7.5547527337     5.8310276887
AG      5.7894687621     3.3576485066     8.0762148880
AG      7.2387866752     5.8963572582     8.0641886706
AG      8.7145548898     3.3583534002     8.0721429017
AG      4.3310544077     5.8895876898     8.0839831993
AG      7.2613882293     0.8347554224     8.0829149620
AG     10.1583205150     5.9031139194     7.9375978004
AG      1.4044013835     0.8271130926     8.0837679773
AG      7.2641818921    10.9815044198     8.0868519170
AG     13.1206976919     0.8328379642     8.0888399079
AG      2.8562598258     3.3454338779     8.0910365652
AG      5.8076726810     8.4431991517     8.0877912458
AG      4.3179182039     0.8254614211     8.0893762466
AG      8.7058900120     8.4599329547     8.0727133015
AG     10.2022925594     0.8355439245     8.0889588966
AG     11.6492728066     3.3515858281     8.0868086505
AG     11.6354053433     8.4461117021     8.0764864287
AG     13.1009222004    10.9713593624     8.0989543358
AG     13.1122275454     5.8783708631     8.0778518820
AG     16.0535852767    10.9712141077     8.0918970379
AG     16.0293798177     5.8776845663     8.1024487108
AG     17.5147855566     8.4327748310     8.0925741328
AG     10.1675737873    10.9767036089     8.0964891349
AG     14.5643862476     3.3407815382     8.1015157560
AG     18.9865411710    10.9759265241     8.0921875001
AG     14.5696908517     8.4265307475     8.0996744742
O      10.1355287394     5.9150954008    10.1423946566
H      12.1189955091     5.5233988092    10.5284329612
C      11.0709988282     5.4697341619    10.8568245702
H       8.9128200506     5.2147457543    11.4255754237
O       9.2648359346     4.8150973498    12.2558358233
C      10.6659609813     4.8482551376    12.1346407335
H      11.0855539922     3.8279177912    12.0989658390
O      12.6125779273     6.0599307733    12.8665630787
C      11.3277125830     5.6122458239    13.3074310186
H      10.6550392239     6.4648715420    13.5241384308
H      13.0843163058     6.3507079637    13.6728968337
H      12.3914979781     4.1279248638    14.4202674890
C      11.4754683045     4.7398178166    14.5718468751
O      10.3278073102     3.9183184374    14.7161545205
O      12.8301554148     6.4811037838    15.5918631790
C      11.6861540963     5.6179241154    15.8208527009
H      10.2824822261     3.6405656665    15.6550261233
H      10.7726887840     6.2188756446    15.9695854132
H      12.6040675159     7.3829990050    15.8693443005
H      12.8927259178     4.2121436675    16.9209391426
C      11.9877286676     4.8179884696    17.0915390375
O      10.8529348430     3.9864014165    17.4072727440
H      12.1947393030     5.5210330892    17.9160128985
H      11.1418638323     3.2649055273    17.9926151626
146
Step 3 | ATOMIC_POSITIONS (angstrom) | Cartesian Angstrom
NI      1.2189535980     0.7037631880     1.4255056150
NI      2.4379071950     2.8150527500     1.4255056150
NI      3.6568607930     4.9263423130     1.4255056150
NI      4.8758143900     7.0376318760     1.4255056150
NI      6.0947679870     9.1489214370     1.4255056150
NI      7.3137215840    11.2602110000     1.4255056150
NI      3.6568607920     0.7037631880     1.4255056150
NI      4.8758143890     2.8150527500     1.4255056150
NI      6.0947679860     4.9263423130     1.4255056150
NI      7.3137215840     7.0376318760     1.4255056150
NI      8.5326751800     9.1489214370     1.4255056150
NI      9.7516287780    11.2602110000     1.4255056150
NI      6.0947679870     0.7037631880     1.4255056150
NI      7.3137215840     2.8150527500     1.4255056150
NI      8.5326751810     4.9263423130     1.4255056150
NI      9.7516287790     7.0376318760     1.4255056150
NI     10.9705823750     9.1489214370     1.4255056150
NI     12.1895359730    11.2602110000     1.4255056150
NI      8.5326751820     0.7037631880     1.4255056150
NI      9.7516287790     2.8150527500     1.4255056150
NI     10.9705823760     4.9263423130     1.4255056150
NI     12.1895359740     7.0376318760     1.4255056150
NI     13.4084895710     9.1489214370     1.4255056150
NI     14.6274431680    11.2602110000     1.4255056150
NI     10.9705823750     0.7037631880     1.4255056150
NI     12.1895359720     2.8150527500     1.4255056150
NI     13.4084895700     4.9263423130     1.4255056150
NI     14.6274431670     7.0376318760     1.4255056150
NI     15.8463967640     9.1489214370     1.4255056150
NI     17.0653503620    11.2602110000     1.4255056150
NI     13.4084895710     0.7037631880     1.4255056150
NI     14.6274431670     2.8150527500     1.4255056150
NI     15.8463967650     4.9263423130     1.4255056150
NI     17.0653503620     7.0376318760     1.4255056150
NI     18.2843039590     9.1489214370     1.4255056150
NI     19.5032575570    11.2602110000     1.4255056150
NI     13.4395002074     7.7569867733     3.3736730335
NI     14.6323866856     9.8241447335     3.3681008016
NI     15.8253571450     7.7587877541     3.3678529659
NI     12.2370372998     9.8276416455     3.3955410051
NI     14.6322290251     5.6824803061     3.3940873341
NI     17.0217594016     9.8271349348     3.3864049417
NI     11.0229101081     7.7476237747     3.4044486749
NI     13.4317312847    11.9176169423     3.4073792199
NI     12.2245159044     5.6689686537     3.4076211059
NI     15.8300057383    11.9143445401     3.4021705413
NI     17.0372110483     5.6736286981     3.4053550695
NI     18.2323320601     7.7513231549     3.4008695511
NI      9.7939517858     9.8337236176     3.4318616994
NI     11.0077945882    11.9357225361     3.4279664766
NI     13.4151409377     3.5649724107     3.4322018913
NI     18.2449529748    11.9307657850     3.4242149868
NI     15.8411294007     3.5665141289     3.4251181994
NI     19.4545839704     9.8342582895     3.4223817900
NI      4.8414210323     5.6520720275     3.4263205470
NI      7.3159264303     1.3686963406     3.4288502991
NI      9.7829502939     5.6474892374     3.4332068332
NI      3.6443645239     3.5456613260     3.4459353763
NI      6.0628662268     7.7399533917     3.4437788837
NI      4.8913077485     1.3857578301     3.4475042961
NI      8.5535671633     7.7388532868     3.4446243550
NI      9.7359733687     1.3815897219     3.4443223183
NI     10.9806420477     3.5387255075     3.4465088614
NI      2.4490054755     1.4165855932     3.4546411688
NI      7.3069087802     9.8371195408     3.4515560288
NI     12.1739180974     1.4102203565     3.4518679530
NI      6.0880838160     3.5162105118     3.4564821249
NI      7.3084776207     5.6362630484     3.4589446093
NI      8.5362581159     3.5127789658     3.4609154688
NI      8.5473333802    11.9526510252     3.4587236639
NI     14.6249721188     1.4276545890     3.4564919464
NI     20.6970232812    11.9497128736     3.4541773668
AG     -0.0518040223    -0.0119670424     5.7401554470
AG      5.8124078893     5.0292093876     5.7483232223
AG      7.2531867304     2.5417099431     5.7490032407
AG      8.6973140240     5.0414869011     5.7419779059
AG      1.3957272353     2.4768411427     5.7581052457
AG      5.8400090245    10.1401648249     5.7638412995
AG      2.8333663242     0.0008605974     5.7554266960
AG      8.6970919335    10.1470298723     5.7562235745
AG     11.6856586534     0.0078919837     5.7666849730
AG     13.1064878025     2.4854486080     5.7614426134
AG      4.3242627976     2.5104691053     5.7718184861
AG      7.2690725894     7.5805467796     5.7671375067
AG     10.1800561781     2.5262168127     5.7687794690
AG      2.8926295303     4.9965477456     5.7953555810
AG      4.3963899656     7.5687271798     5.7915227616
AG      5.7670938967     0.0313632472     5.7923609594
AG     10.1290349649     7.5868625923     5.7697995488
AG      8.7407733008     0.0396448659     5.7912918741
AG     11.5979711120     5.0145807520     5.7749310119
AG     11.5877055433    10.1545964337     5.7981693512
AG     14.5601431211     4.9796728878     5.8006981250
AG     17.5608997496    10.1488095511     5.8077972410
AG     13.0701619489     7.5636202506     5.8241523382
AG     14.5703655156    10.1562641029     5.8289723891
AG     16.0674687315     7.5550635197     5.8310055469
AG      5.7894090845     3.3576625069     8.0762251441
AG      7.2359805045     5.8966382413     8.0628473439
AG      8.7131537632     3.3555305154     8.0703568572
AG      4.3310233088     5.8892586237     8.0840861493
AG      7.2607848493     0.8346791234     8.0830775032
AG     10.1565193866     5.9051225263     7.9060338017
AG      1.4035018747     0.8268499738     8.0837421871
AG      7.2635606589    10.9818551642     8.0867016403
AG     13.1207801870     0.8320647973     8.0890124214
AG      2.8566480056     3.3453856003     8.0909972861
AG      5.8073598635     8.4432781257     8.0880076412
AG      4.3180405981     0.8259241204     8.0894674617
AG      8.7043332646     8.4618556025     8.0715111896
AG     10.2022471040     0.8356098372     8.0896058433
AG     11.6512340341     3.3471236076     8.0824793153
AG     11.6368968310     8.4482423271     8.0762882520
AG     13.1009696123    10.9717347887     8.0990703938
AG     13.1176126134     5.8792323280     8.0738951513
AG     16.0532767321    10.9714038535     8.0921979668
AG     16.0298535540     5.8774690854     8.1024919862
AG     17.5146553293     8.4327454884     8.0928485491
AG     10.1677945748    10.9766570687     8.0965216405
AG     14.5645667556     3.3410833642     8.1018341921
AG     18.9864997134    10.9761621197     8.0925433805
AG     14.5698173937     8.4264848218     8.0998864879
O      10.1412064177     5.9196421463    10.1775962006
H      12.1238261370     5.5230497705    10.5289567678
C      11.0547712648     5.4783076072    10.8598444511
H       8.9132615736     5.2151530972    11.4272972758
O       9.2670311865     4.8127785118    12.2584376229
C      10.6678145439     4.8412196587    12.1491546352
H      11.0850151119     3.8227106692    12.1017902658
O      12.6123649617     6.0590415537    12.8656526827
C      11.3279910357     5.6112058535    13.3117795848
H      10.6546177401     6.4651256134    13.5234135369
H      13.0836814420     6.3519754523    13.6726246139
H      12.3914908099     4.1272549151    14.4206074713
C      11.4759101094     4.7401259879    14.5728007716
O      10.3275774768     3.9189557690    14.7164304645
O      12.8300654925     6.4817804354    15.5910209449
C      11.6865112848     5.6176910185    15.8205808511
H      10.2823781980     3.6405971190    15.6553954973
H      10.7723283903     6.2176065201    15.9694161060
H      12.6045723346     7.3829845076    15.8711499739
H      12.8928794472     4.2117664644    16.9200646258
C      11.9882800718     4.8181276800    17.0908869076
O      10.8537208723     3.9854747631    17.4069010538
H      12.1943111926     5.5207305460    17.9159087061
H      11.1417837746     3.2664940689    17.9935394573
146
Step 4 | ATOMIC_POSITIONS (angstrom) | Cartesian Angstrom
NI      1.2189535980     0.7037631880     1.4255056150
NI      2.4379071950     2.8150527500     1.4255056150
NI      3.6568607930     4.9263423130     1.4255056150
NI      4.8758143900     7.0376318760     1.4255056150
NI      6.0947679870     9.1489214370     1.4255056150
NI      7.3137215840    11.2602110000     1.4255056150
NI      3.6568607920     0.7037631880     1.4255056150
NI      4.8758143890     2.8150527500     1.4255056150
NI      6.0947679860     4.9263423130     1.4255056150
NI      7.3137215840     7.0376318760     1.4255056150
NI      8.5326751800     9.1489214370     1.4255056150
NI      9.7516287780    11.2602110000     1.4255056150
NI      6.0947679870     0.7037631880     1.4255056150
NI      7.3137215840     2.8150527500     1.4255056150
NI      8.5326751810     4.9263423130     1.4255056150
NI      9.7516287790     7.0376318760     1.4255056150
NI     10.9705823750     9.1489214370     1.4255056150
NI     12.1895359730    11.2602110000     1.4255056150
NI      8.5326751820     0.7037631880     1.4255056150
NI      9.7516287790     2.8150527500     1.4255056150
NI     10.9705823760     4.9263423130     1.4255056150
NI     12.1895359740     7.0376318760     1.4255056150
NI     13.4084895710     9.1489214370     1.4255056150
NI     14.6274431680    11.2602110000     1.4255056150
NI     10.9705823750     0.7037631880     1.4255056150
NI     12.1895359720     2.8150527500     1.4255056150
NI     13.4084895700     4.9263423130     1.4255056150
NI     14.6274431670     7.0376318760     1.4255056150
NI     15.8463967640     9.1489214370     1.4255056150
NI     17.0653503620    11.2602110000     1.4255056150
NI     13.4084895710     0.7037631880     1.4255056150
NI     14.6274431670     2.8150527500     1.4255056150
NI     15.8463967650     4.9263423130     1.4255056150
NI     17.0653503620     7.0376318760     1.4255056150
NI     18.2843039590     9.1489214370     1.4255056150
NI     19.5032575570    11.2602110000     1.4255056150
NI     13.4396402722     7.7570963328     3.3735995355
NI     14.6324137692     9.8241858618     3.3681107371
NI     15.8254150290     7.7588087670     3.3678014280
NI     12.2370238359     9.8275824603     3.3953759806
NI     14.6321555490     5.6825294474     3.3939094171
NI     17.0218091978     9.8271339363     3.3864806928
NI     11.0230886248     7.7476462311     3.4039694373
NI     13.4317314935    11.9175505853     3.4073425146
NI     12.2245359597     5.6691596497     3.4069034779
NI     15.8300879186    11.9143139882     3.4021137478
NI     17.0371752936     5.6736874923     3.4053240622
NI     18.2324042601     7.7514154428     3.4008680852
NI      9.7940166608     9.8338151761     3.4319019615
NI     11.0078371340    11.9357880765     3.4280684355
NI     13.4152505664     3.5649846431     3.4321909679
NI     18.2449850195    11.9308021609     3.4240938559
NI     15.8412220782     3.5665184415     3.4252206331
NI     19.4546430597     9.8342824680     3.4223614960
NI      4.8414235602     5.6521152177     3.4262816371
NI      7.3159541747     1.3686389359     3.4288723329
NI      9.7829529420     5.6474840647     3.4325291170
NI      3.6444061050     3.5456366658     3.4458775961
NI      6.0628765337     7.7400353087     3.4437800284
NI      4.8913284627     1.3857933139     3.4474306762
NI      8.5534926393     7.7388585477     3.4445199495
NI      9.7360296468     1.3815700235     3.4444260710
NI     10.9806304843     3.5386227305     3.4463834154
NI      2.4490318945     1.4165661294     3.4544161542
NI      7.3069838285     9.8371805855     3.4516524887
NI     12.1740028852     1.4102297689     3.4520238176
NI      6.0881439301     3.5162495993     3.4562509938
NI      7.3083631503     5.6363605394     3.4587468578
NI      8.5362806427     3.5126732276     3.4606688453
NI      8.5473577949    11.9527107194     3.4587873154
NI     14.6250062980     1.4276669793     3.4565588356
NI     20.6970671675    11.9496912387     3.4540456511
AG     -0.0519261584    -0.0118493922     5.7401472058
AG      5.8123820403     5.0291115857     5.7480106563
AG      7.2530328732     2.5416942691     5.7487139787
AG      8.6950801779     5.0400875334     5.7381993277
AG      1.3957697956     2.4768429379     5.7581129128
AG      5.8399706213    10.1401426001     5.7638341600
AG      2.8333669470     0.0008723194     5.7554870898
AG      8.6969489215    10.1472332039     5.7561283451
AG     11.6856026675     0.0078127316     5.7665840013
AG     13.1068080364     2.4852784126     5.7612430303
AG      4.3242377693     2.5104600642     5.7718852651
AG      7.2689715177     7.5806917023     5.7668879110
AG     10.1799040691     2.5263082169     5.7685181872
AG      2.8927764430     4.9966333740     5.7951829694
AG      4.3963704120     7.5688085411     5.7914507727
AG      5.7673091112     0.0315245873     5.7922021795
AG     10.1287626108     7.5901260100     5.7658402973
AG      8.7408661332     0.0397346865     5.7911411706
AG     11.6008281422     5.0127302619     5.7711443239
AG     11.5876097812    10.1549651814     5.7977948933
AG     14.5606540718     4.9793709639     5.8000922550
AG     17.5608746598    10.1488805060     5.8079147074
AG     13.0697977483     7.5637149810     5.8237684878
AG     14.5702852939    10.1561505708     5.8290609804
AG     16.0672574221     7.5552200919     5.8310191583
AG      5.7893560182     3.3576604939     8.0762289863
AG      7.2349707369     5.8966979008     8.0621972716
AG      8.7126896701     3.3546156722     8.0695491209
AG      4.3309248214     5.8891363471     8.0841023999
AG      7.2604867721     0.8345516276     8.0831330926