148
Step 1 | ATOMIC_POSITIONS (angstrom) | Cartesian Angstrom
NI      1.2254504230     0.7101865830     1.4556095020
NI      2.4444040200     2.8214761450     1.4556095020
NI      3.6633576180     4.9327657080     1.4556095020
NI      4.8823112150     7.0440552710     1.4556095020
NI      6.1012648120     9.1553448320     1.4556095020
NI      7.3202184090    11.2666343950     1.4556095020
NI      3.6633576170     0.7101865830     1.4556095020
NI      4.8823112140     2.8214761450     1.4556095020
NI      6.1012648110     4.9327657080     1.4556095020
NI      7.3202184090     7.0440552710     1.4556095020
NI      8.5391720050     9.1553448320     1.4556095020
NI      9.7581256030    11.2666343950     1.4556095020
NI      6.1012648120     0.7101865830     1.4556095020
NI      7.3202184090     2.8214761450     1.4556095020
NI      8.5391720060     4.9327657080     1.4556095020
NI      9.7581256040     7.0440552710     1.4556095020
NI     10.9770792000     9.1553448320     1.4556095020
NI     12.1960327980    11.2666343950     1.4556095020
NI      8.5391720070     0.7101865830     1.4556095020
NI      9.7581256040     2.8214761450     1.4556095020
NI     10.9770792010     4.9327657080     1.4556095020
NI     12.1960327990     7.0440552710     1.4556095020
NI     13.4149863960     9.1553448320     1.4556095020
NI     14.6339399930    11.2666343950     1.4556095020
NI     10.9770792000     0.7101865830     1.4556095020
NI     12.1960327970     2.8214761450     1.4556095020
NI     13.4149863950     4.9327657080     1.4556095020
NI     14.6339399920     7.0440552710     1.4556095020
NI     15.8528935890     9.1553448320     1.4556095020
NI     17.0718471870    11.2666343950     1.4556095020
NI     13.4149863960     0.7101865830     1.4556095020
NI     14.6339399920     2.8214761450     1.4556095020
NI     15.8528935900     4.9327657080     1.4556095020
NI     17.0718471870     7.0440552710     1.4556095020
NI     18.2908007840     9.1553448320     1.4556095020
NI     19.5097543820    11.2666343950     1.4556095020
NI     13.4528917660     7.7634132772     3.4071429334
NI     14.6465057725     9.8310696870     3.3947408121
NI     15.8397981579     7.7654898185     3.3941088893
NI     12.2438114933     9.8364278140     3.4408115530
NI     14.6436196919     5.6886660750     3.4218712277
NI     17.0345922108     9.8320745333     3.4123800607
NI     11.0257419687     7.7543792720     3.4566607887
NI     13.4415473623    11.9225215658     3.4371024519
NI     12.2339239308     5.6737059434     3.4385596965
NI     15.8435217367    11.9186224270     3.4289969441
NI     17.0464941593     5.6818829971     3.4332582193
NI     18.2412367432     7.7582227415     3.4261379759
NI      9.7912521168     9.8435430126     3.4779402913
NI     11.0140732771    11.9456950127     3.4627067258
NI     13.4250198167     3.5689774007     3.4618372463
NI     18.2562238550    11.9330773396     3.4524677092
NI     15.8511121932     3.5732903753     3.4554531216
NI     19.4639301449     9.8390946492     3.4619764575
NI      4.8468752099     5.6613924846     3.4509114230
NI      7.3274443226     1.3739265606     3.4580055376
NI      9.7884519691     5.6544107951     3.4694542311
NI      3.6532461479     3.5544720372     3.4709797814
NI      6.0681797068     7.7476674857     3.4791583961
NI      4.9005159632     1.3921904633     3.4772041603
NI      8.5542148016     7.7465566018     3.4787845660
NI      9.7466523602     1.3835412250     3.4688266218
NI     10.9900776605     3.5422400109     3.4741872860
NI      2.4589888726     1.4209146877     3.4922532241
NI      7.3102533494     9.8458984305     3.4856017120
NI     12.1826986879     1.4106694189     3.4829104699
NI      6.0953557799     3.5242803239     3.4816026060
NI      7.3125927196     5.6459690427     3.4843876912
NI      8.5440440330     3.5175171021     3.4902170711
NI      8.5500268184    11.9581497236     3.4905989535
NI     14.6309294731     1.4296987410     3.4956474553
NI     20.7013882072    11.9553089922     3.4790196280
AG     -0.1010228568    -0.0238163991     5.7908558514
AG      5.7813160744     5.0380643292     5.7718809054
AG      7.2036161232     2.5391706920     5.7747679254
AG      8.6582513856     5.0581342588     5.7693504594
AG      1.3518545787     2.4720832334     5.7794033613
AG      5.8054844532    10.1624034445     5.8231872863
AG      2.7769662910    -0.0224706283     5.8008687270
AG      8.6429481091    10.1525186708     5.8420379385
AG     11.6285123063     0.0202257091     5.8045322584
AG     13.0699384110     2.4889683033     5.7860392148
AG      4.2737929924     2.4967752763     5.7933368909
AG      7.2385357112     7.6196290677     5.8205604040
AG     10.1312617070     2.5402485046     5.7843626473
AG      2.8566423394     4.9914271988     5.8207454337
AG      4.3545422255     7.5755091376     5.8196990790
AG      5.7099861540     0.0175133202     5.8144713747
AG     10.0637783476     7.6144766092     5.8342445332
AG      8.6808025964     0.0426300024     5.8177697182
AG     11.5454030606     5.0389171423     5.8007428279
AG     11.5025368715    10.1667381814     5.8393241664
AG     14.5167217772     4.9863265088     5.8248921565
AG     17.5147884911    10.1473383937     5.8404053904
AG     12.9895902081     7.5819375207     5.8451170860
AG     14.5029294065    10.1389986026     5.8517201874
AG     16.0069041057     7.5502987393     5.8590298204
AG      5.7466307580     3.3573134019     8.0903808093
AG      7.1953665550     5.8883421450     8.0926981368
AG      8.6653286034     3.3602976804     8.0808443807
AG      4.2932381436     5.8872314036     8.1062325376
AG      7.2066242302     0.8317896579     8.1083076462
AG     10.1239767279     5.8940172132     8.0966802110
AG      1.3513626179     0.8506614928     8.1018484595
AG      7.1298858666    11.0357380390     8.1758578626
AG     13.0526949622     0.8636256484     8.1262263034
AG      2.8222917069     3.3454239682     8.1144302729
AG      5.7350671424     8.4408807302     8.1159430744
AG      4.2844065387     0.8372856108     8.1198827068
AG      8.6598337052     8.3827992325     8.1753435191
AG     10.1387451437     0.8490860120     8.1144686918
AG     11.6059537353     3.3630797839     8.0838069526
AG     11.5997181963     8.4329416495     8.1090428169
AG     13.0679729124    10.9661344537     8.1237364726
AG     13.0697659341     5.8834440966     8.1048652187
AG     15.9923705909    10.9703444890     8.1083597883
AG     15.9962117129     5.8692352451     8.1259633519
AG     17.4581262862     8.4273826230     8.1212335015
AG     10.1791642985    11.0165064395     8.1836615048
AG     14.5252201945     3.3533734514     8.1256800579
AG     18.8987116066    10.9904615995     8.1370629823
AG     14.5278367459     8.4151404329     8.1223149915
O      11.5867625162     8.3815474915    10.4088588913
H      13.6306793031     8.4659076222    10.5734244680
C      12.6563828600     8.1375867724    10.9813192303
H      10.7361809251     7.3256416133    11.8995776210
O      11.3332897915     6.8970011198    12.5516423284
C      12.6361980498     7.3913759230    12.2759720892
H      13.3437978405     6.5461695478    12.1973913071
O      14.3994012633     8.8241037846    12.9447927024
C      13.1457036602     8.3375727378    13.4003261701
H      12.3962995050     9.1486744215    13.5025929924
H      14.8884206636     9.1382921543    13.7413157188
H      14.0301746078     6.8280250714    14.6632281111
C      13.2538213229     7.6137691025    14.7582852114
O      12.0055464924     7.0426676505    15.1603755413
O      14.9884138454     9.0644007678    15.5452600507
C      13.6720963526     8.5694476054    15.8893281418
H      11.4842579495     6.8333224112    14.3536130327
H      12.9407628458     9.3971624131    15.9333191417
H      15.2750581762     9.6931951185    16.2306246055
H      14.3408554696     6.9668803296    17.1793378263
C      13.7205671976     7.8808468512    17.2612648552
O      12.4393179315     7.6162088671    17.8091660996
H      14.2285043076     8.5630066845    17.9636158080
H      11.9293454111     7.1715057895    17.1027394029
O       8.6418622269    10.1433030134     9.7009278745
H       8.6706792828    10.1370912125    10.6728020333
148
Step 2 | ATOMIC_POSITIONS (angstrom) | Cartesian Angstrom
NI      1.2254504230     0.7101865830     1.4556095020
NI      2.4444040200     2.8214761450     1.4556095020
NI      3.6633576180     4.9327657080     1.4556095020
NI      4.8823112150     7.0440552710     1.4556095020
NI      6.1012648120     9.1553448320     1.4556095020
NI      7.3202184090    11.2666343950     1.4556095020
NI      3.6633576170     0.7101865830     1.4556095020
NI      4.8823112140     2.8214761450     1.4556095020
NI      6.1012648110     4.9327657080     1.4556095020
NI      7.3202184090     7.0440552710     1.4556095020
NI      8.5391720050     9.1553448320     1.4556095020
NI      9.7581256030    11.2666343950     1.4556095020
NI      6.1012648120     0.7101865830     1.4556095020
NI      7.3202184090     2.8214761450     1.4556095020
NI      8.5391720060     4.9327657080     1.4556095020
NI      9.7581256040     7.0440552710     1.4556095020
NI     10.9770792000     9.1553448320     1.4556095020
NI     12.1960327980    11.2666343950     1.4556095020
NI      8.5391720070     0.7101865830     1.4556095020
NI      9.7581256040     2.8214761450     1.4556095020
NI     10.9770792010     4.9327657080     1.4556095020
NI     12.1960327990     7.0440552710     1.4556095020
NI     13.4149863960     9.1553448320     1.4556095020
NI     14.6339399930    11.2666343950     1.4556095020
NI     10.9770792000     0.7101865830     1.4556095020
NI     12.1960327970     2.8214761450     1.4556095020
NI     13.4149863950     4.9327657080     1.4556095020
NI     14.6339399920     7.0440552710     1.4556095020
NI     15.8528935890     9.1553448320     1.4556095020
NI     17.0718471870    11.2666343950     1.4556095020
NI     13.4149863960     0.7101865830     1.4556095020
NI     14.6339399920     2.8214761450     1.4556095020
NI     15.8528935900     4.9327657080     1.4556095020
NI     17.0718471870     7.0440552710     1.4556095020
NI     18.2908007840     9.1553448320     1.4556095020
NI     19.5097543820    11.2666343950     1.4556095020
NI     13.4532410095     7.7633921633     3.4062767800
NI     14.6463960835     9.8308875407     3.3953161327
NI     15.8388523302     7.7657610422     3.3944695442
NI     12.2441745717     9.8355864968     3.4392244732
NI     14.6435010028     5.6891098980     3.4221970422
NI     17.0348298120     9.8322777922     3.4123770027
NI     11.0263492111     7.7543164375     3.4550105103
NI     13.4419013782    11.9229179939     3.4370728339
NI     12.2338032797     5.6738710777     3.4385137621
NI     15.8434489333    11.9187568286     3.4285990699
NI     17.0466464241     5.6815889582     3.4328928150
NI     18.2417365675     7.7585204203     3.4256906124
NI      9.7913238563     9.8441275576     3.4770852843
NI     11.0141558768    11.9449198737     3.4630863061
NI     13.4255422863     3.5688162271     3.4614262531
NI     18.2560566727    11.9334332507     3.4523402827
NI     15.8508817596     3.5733237534     3.4550918705
NI     19.4637412329     9.8392888316     3.4617096249
NI      4.8468097841     5.6615246932     3.4509752691
NI      7.3276493412     1.3737160463     3.4580478772
NI      9.7882363070     5.6539965580     3.4704187439
NI      3.6531804610     3.5542419653     3.4715985087
NI      6.0677131734     7.7477678567     3.4784080646
NI      4.9007867131     1.3925816835     3.4771284898
NI      8.5545513816     7.7463538095     3.4798578615
NI      9.7460161096     1.3826914000     3.4687609451
NI     10.9899471615     3.5425571326     3.4748979415
NI      2.4581910862     1.4208264882     3.4920405789
NI      7.3105271991     9.8456948947     3.4859609524
NI     12.1825527521     1.4104795762     3.4825034032
NI      6.0954946175     3.5242200682     3.4814163723
NI      7.3124715487     5.6459258898     3.4852276145
NI      8.5438878052     3.5169761845     3.4901774723
NI      8.5500685820    11.9587257431     3.4911256785
NI     14.6309133442     1.4297051996     3.4958554477
NI     20.7013401613    11.9554027485     3.4790967693
AG     -0.1005209619    -0.0241533837     5.7907324078
AG      5.7810341560     5.0382267114     5.7716634590
AG      7.2036975202     2.5398872767     5.7742912937
AG      8.6563596228     5.0574268382     5.7674634595
AG      1.3521246396     2.4719099774     5.7794924365
AG      5.8053639144    10.1627105303     5.8228039218
AG      2.7769411995    -0.0224820382     5.8011715435
AG      8.6437240796    10.1521362504     5.8431336175
AG     11.6290573858     0.0200169657     5.8041553118
AG     13.0696967395     2.4893630531     5.7860065326
AG      4.2736984997     2.4971845084     5.7932997640
AG      7.2385638132     7.6191566579     5.8199579072
AG     10.1313643060     2.5396469677     5.7837964411
AG      2.8566232754     4.9917052225     5.8205050976
AG      4.3548565449     7.5754245814     5.8200119379
AG      5.7101993973     0.0186771100     5.8142929816
AG     10.0655583182     7.6172625494     5.8337250400
AG      8.6814604422     0.0425566096     5.8175913767
AG     11.5474061278     5.0388235763     5.7990841920
AG     11.5027501806    10.1642982356     5.8417803449
AG     14.5160864600     4.9860630851     5.8242017053
AG     17.5142611812    10.1477118433     5.8401854657
AG     12.9871415329     7.5831113427     5.8455713705
AG     14.5018301494    10.1396550689     5.8520009316
AG     16.0073599795     7.5502142066     5.8578071607
AG      5.7458544725     3.3576092754     8.0899416637
AG      7.1961228189     5.8880736072     8.0940971117
AG      8.6660579367     3.3621271217     8.0824735207
AG      4.2925341264     5.8870623401     8.1062345755
AG      7.2062062734     0.8321802203     8.1080975031
AG     10.1248998866     5.8892816021     8.0978799276
AG      1.3512735750     0.8507988932     8.1025425082
AG      7.1309166465    11.0349047678     8.1754509475
AG     13.0525635015     0.8627368752     8.1253284663
AG      2.8218025173     3.3453734445     8.1148202813
AG      5.7344102974     8.4411671275     8.1157301054
AG      4.2839906389     0.8380125691     8.1201163606
AG      8.6566328050     8.3820705264     8.1752486681
AG     10.1384987541     0.8481788624     8.1137061513
AG     11.6045120313     3.3651742371     8.0866575916
AG     11.5941906010     8.4354565126     8.0784053437
AG     13.0697270938    10.9691101123     8.1220427487
AG     13.0692980645     5.8793705765     8.1031655458
AG     15.9916319963    10.9701777618     8.1096156765
AG     15.9954735432     5.8702476361     8.1270149526
AG     17.4580832569     8.4276077916     8.1217780006
AG     10.1775366404    11.0189169586     8.1821384820
AG     14.5258407817     3.3531458514     8.1252799170
AG     18.8984115053    10.9899788338     8.1367532889
AG     14.5350075752     8.4162012244     8.1159477707
O      11.5860289419     8.3789164644    10.4376354921
H      13.6305144382     8.4680825575    10.5737141287
C      12.6564963243     8.1365374984    10.9917462336
H      10.7343711947     7.3246620972    11.8991596631
O      11.3340065286     6.8977315478    12.5510000199
C      12.6375812759     7.3894196108    12.2774084178
H      13.3457596761     6.5451099952    12.1967388632
O      14.3986624762     8.8250816729    12.9446922849
C      13.1462054835     8.3388279332    13.4015891067
H      12.3968879457     9.1502581742    13.5026245793
H      14.8890675581     9.1378580243    13.7418183057
H      14.0299302513     6.8282424883    14.6630752475
C      13.2538883192     7.6139439032    14.7589369419
O      12.0060011425     7.0427328044    15.1604206835
O      14.9885507409     9.0633416267    15.5447578876
C      13.6721608116     8.5694190585    15.8894482210
H      11.4838302476     6.8331959677    14.3540805641
H      12.9412252628     9.3971981263    15.9331870346
H      15.2742164264     9.6933847230    16.2293910386
H      14.3403398358     6.9671673194    17.1799829556
C      13.7201898341     7.8806325454    17.2611716073
O      12.4394381946     7.6172804667    17.8088095822
H      14.2286001746     8.5606776102    17.9641063694
H      11.9291136370     7.1719630258    17.1034077615
O       8.6437205178    10.1417917386     9.7002815960
H       8.6700811065    10.1376566425    10.6722597517
