88
Step 1 | ATOMIC_POSITIONS (angstrom) | Cartesian Angstrom
NI      2.6797587120     1.5471594140     1.5000001930
NI      5.3595174250     1.5471594140     1.5000001930
NI      8.0392761370     1.5471594140     1.5000001930
NI     10.7190348500     1.5471594140     1.5000001930
NI      4.0196380690     3.8678985350     1.5000001930
NI      6.6993967810     3.8678985350     1.5000001930
NI      9.3791554940     3.8678985350     1.5000001930
NI     12.0589142060     3.8678985350     1.5000001930
NI      5.3595174250     6.1886376560     1.5000001930
NI      8.0392761370     6.1886376560     1.5000001930
NI     10.7190348500     6.1886376560     1.5000001930
NI     13.3987935620     6.1886376560     1.5000001930
NI      6.6993967810     8.5093767770     1.5000001930
NI      9.3791554940     8.5093767770     1.5000001930
NI     12.0589142060     8.5093767770     1.5000001930
NI     14.7386729180     8.5093767770     1.5000001930
NI      1.3397576259     0.7735653115     3.3683732958
NI      9.3792980664     0.7735321636     3.3683743234
NI      5.3595526203     7.7359924852     3.3684275507
NI      5.3595376140     3.0943372165     3.3685220644
NI      4.0195059078     0.7736023971     3.3683944045
NI      6.6994969886     0.7735612012     3.3684663251
NI      2.6797077121     3.0942003004     3.3684128554
NI      8.0392856818     3.0942338475     3.3684588347
NI      4.0196993577     5.4150995855     3.3685171256
NI      6.6992995679     5.4150361645     3.3685311244
NI     10.7190223134     3.0940535580     3.3683646684
NI      8.0390731939     7.7359962530     3.3683829519
NI     13.3989563952     7.7359834388     3.3684183344
NI      9.3791342449     5.4149665497     3.3684275267
NI     12.0589742019     5.4149797171     3.3684163563
NI     10.7190223624     7.7359443014     3.3683313560
AG      5.3594990274     9.2829602267     5.5907579930
AG      4.0197368633     2.3208078322     5.5907413964
AG      6.6992866925     2.3208676435     5.5908768841
AG      5.3595693299     4.6414090342     5.5909666739
AG      1.3398146651     2.3207590620     5.5907588557
AG      9.3791872115     2.3206805897     5.5907528168
AG      4.0196604512     6.9621418119     5.5907208022
AG      6.6994458093     6.9622156576     5.5906873299
AG      8.0392379289     9.2829329357     5.5908567455
AG     13.3988787426     9.2829438720     5.5907270408
AG      2.6799306965     4.6414733328     5.5907507972
AG      8.0391060739     4.6413691665     5.5909048986
AG     10.7190343970     9.2829654158     5.5907463561
AG     10.7190078358     4.6414369665     5.5908738069
AG      9.3791722151     6.9622804572     5.5908252957
AG     12.0588695635     6.9622218369     5.5909238929
AG      5.3594661351     1.5471514623     8.3505004190
AG      4.0199397327     3.8679060748     8.3516253312
AG      6.6979551853     3.8678327609     8.3507504721
AG      2.6797941566     1.5472487596     8.3501419874
AG      8.0394599981     1.5471017292     8.3504941708
AG      5.3595441845     6.1884321785     8.3513871128
AG      9.3794368502     3.8681428732     8.3503499836
AG     12.0589780122     3.8678856879     8.3501558637
AG      8.0397739688     6.1889405038     8.3497031872
AG     13.3986797557     6.1886791504     8.3500453703
AG      9.3791484051     8.5093807296     8.3500367651
AG     12.0588486723     8.5094096684     8.3500313730
AG     10.7187400282     6.1884625130     8.3501479664
AG     10.7189012197     1.5472478760     8.3501488230
AG      6.6993379460     8.5092560341     8.3501096158
AG     14.7387708167     8.5092672448     8.3500139985
O       6.0813855810     4.1411520048    11.4424287496
C       7.1763457225     3.8635371775    11.7229905133
C       7.8821330226     4.4511355863    12.9328757738
O       9.2977577546     4.4129642737    12.8305250646
C       7.4321595296     3.7178758505    14.1939812907
O       6.0184279793     3.6081007636    14.1374010634
C       7.9734741185     4.3484144919    15.4771918965
O       7.5241164707     5.7147837935    15.5364847632
C       7.6468305649     3.5608517380    16.7938810454
O       7.9421524639     2.1948369998    16.5222608303
C       8.5131792957     4.0585776035    17.9666494774
O       8.0789031749     3.3430533722    19.1474467905
H       7.7614809498     4.3280091868    10.7991840833
H       7.5153525329     5.5043009355    12.8574488798
H       9.5474086034     5.0382940014    12.1148442809
H       7.8277335998     2.7211482085    14.0369951999
H       5.6519550614     3.9384153613    14.9724024980
H       9.0401974740     4.3880531111    15.3308864357
H       7.1355275178     5.8890709353    16.4020613774
H       6.5919330929     3.6518652196    17.1207017442
H       7.6162280674     1.6874784135    17.2990566555
H       9.5731212035     3.8813705452    17.8071229642
H       8.4311810342     5.1202174014    18.1521085392
H       8.6590196122     3.6741276729    19.8691300802
88
Step 2 | ATOMIC_POSITIONS (angstrom) | Cartesian Angstrom
NI      2.6797587120     1.5471594140     1.5000001930
NI      5.3595174250     1.5471594140     1.5000001930
NI      8.0392761370     1.5471594140     1.5000001930
NI     10.7190348500     1.5471594140     1.5000001930
NI      4.0196380690     3.8678985350     1.5000001930
NI      6.6993967810     3.8678985350     1.5000001930
NI      9.3791554940     3.8678985350     1.5000001930
NI     12.0589142060     3.8678985350     1.5000001930
NI      5.3595174250     6.1886376560     1.5000001930
NI      8.0392761370     6.1886376560     1.5000001930
NI     10.7190348500     6.1886376560     1.5000001930
NI     13.3987935620     6.1886376560     1.5000001930
NI      6.6993967810     8.5093767770     1.5000001930
NI      9.3791554940     8.5093767770     1.5000001930
NI     12.0589142060     8.5093767770     1.5000001930
NI     14.7386729180     8.5093767770     1.5000001930
NI      1.3397362880     0.7735683091     3.3683077922
NI      9.3793240858     0.7734835219     3.3683231493
NI      5.3595675793     7.7360158093     3.3683624475
NI      5.3595384117     3.0944017374     3.3684975776
NI      4.0194872949     0.7735268277     3.3682633353
NI      6.6995038510     0.7734230404     3.3683974256
NI      2.6796788091     3.0942572359     3.3683070366
NI      8.0393208834     3.0943102893     3.3684281317
NI      4.0196283825     5.4151637791     3.3684414845
NI      6.6992991838     5.4150203858     3.3685252224
NI     10.7189966272     3.0941039796     3.3682477170
NI      8.0390873915     7.7360439733     3.3682595816
NI     13.3989146869     7.7359835141     3.3682823328
NI      9.3792249357     5.4149729344     3.3682870524
NI     12.0589582830     5.4150585641     3.3682609792
NI     10.7190335555     7.7359294756     3.3681452329
AG      5.3595224744     9.2829122891     5.5906209052
AG      4.0197255480     2.3208047675     5.5905789074
AG      6.6992773989     2.3208763793     5.5907787531
AG      5.3596328680     4.6413925069     5.5908959906
AG      1.3398432547     2.3207719920     5.5905723593
AG      9.3791404703     2.3206794696     5.5906357063
AG      4.0196354317     6.9621102055     5.5905367935
AG      6.6994949897     6.9622148532     5.5904474746
AG      8.0391956167     9.2829559495     5.5908227856
AG     13.3989097710     9.2829049634     5.5904578012
AG      2.6800284317     4.6414741242     5.5905535596
AG      8.0390687873     4.6413041531     5.5908028102
AG     10.7190400179     9.2829651067     5.5905548334
AG     10.7189071792     4.6414170625     5.5907313085
AG      9.3791659880     6.9622685381     5.5906642114
AG     12.0588869506     6.9622291557     5.5908186229
AG      5.3594373308     1.5471302975     8.3507997685
AG      4.0199601832     3.8678938497     8.3527222065
AG      6.6972695856     3.8678163134     8.3491723267
AG      2.6798422133     1.5473082839     8.3502628031
AG      8.0394926296     1.5469360602     8.3505400759
AG      5.3594821219     6.1884680843     8.3521267674
AG      9.3794159887     3.8684557024     8.3513521105
AG     12.0589403598     3.8678907435     8.3503353056
AG      8.0400147471     6.1889792179     8.3498015656
AG     13.3986531855     6.1886656806     8.3501002784
AG      9.3791099695     8.5093772885     8.3500731744
AG     12.0588096625     8.5094397255     8.3501150153
AG     10.7186756015     6.1883832450     8.3503320787
AG     10.7188478903     1.5473685682     8.3503362078
AG      6.6993729633     8.5091356337     8.3502247426
AG     14.7388113650     8.5092111514     8.3500546337
O       5.9981045008     4.1078276313    11.4412645377
C       7.1974320775     3.9496277566    11.7105225196
C       7.8883547443     4.4436839123    12.9535841419
O       9.3002656996     4.4150934098    12.8321490150
C       7.4301227098     3.7124234213    14.1940309407
O       6.0086000565     3.6064268653    14.1422044038
C       7.9726179576     4.3458186925    15.4732264814
O       7.5193413017     5.7188577337    15.5351277494
C       7.6606688236     3.5639944522    16.7960620384
O       7.9385853381     2.1855947706    16.5233930100
C       8.5166352751     4.0620972326    17.9718435227
O       8.0791409430     3.3421704916    19.1524736098
H       7.8092204312     4.3007877619    10.7666476383
H       7.5160933436     5.4956034942    12.8654490357
H       9.5495223673     5.0349655074    12.1160374274
H       7.8373024156     2.7137219834    14.0498113310
H       5.6481993768     3.9426190671    14.9751049940
H       9.0538835345     4.3829159073    15.3361641839
H       7.1312144062     5.8926857417    16.4099377390
H       6.5902648578     3.6575781428    17.1131417638
H       7.6202910312     1.6881719486    17.2967132961
H       9.5777291792     3.8730888104    17.7957204907
H       8.4217155530     5.1335305437    18.1471515317
H       8.6532850915     3.6684126000    19.8675615712
88
Step 3 | ATOMIC_POSITIONS (angstrom) | Cartesian Angstrom
NI      2.6797587120     1.5471594140     1.5000001930
NI      5.3595174250     1.5471594140     1.5000001930
NI      8.0392761370     1.5471594140     1.5000001930
NI     10.7190348500     1.5471594140     1.5000001930
NI      4.0196380690     3.8678985350     1.5000001930
NI      6.6993967810     3.8678985350     1.5000001930
NI      9.3791554940     3.8678985350     1.5000001930
NI     12.0589142060     3.8678985350     1.5000001930
NI      5.3595174250     6.1886376560     1.5000001930
NI      8.0392761370     6.1886376560     1.5000001930
NI     10.7190348500     6.1886376560     1.5000001930
NI     13.3987935620     6.1886376560     1.5000001930
NI      6.6993967810     8.5093767770     1.5000001930
NI      9.3791554940     8.5093767770     1.5000001930
NI     12.0589142060     8.5093767770     1.5000001930
NI     14.7386729180     8.5093767770     1.5000001930
NI      1.3396922262     0.7735957119     3.3682146225
NI      9.3793909657     0.7734104473     3.3682828453
NI      5.3595867197     7.7360663746     3.3682807069
NI      5.3595010635     3.0945048350     3.3685189515
NI      4.0194270603     0.7733595888     3.3680671656
NI      6.6995288404     0.7731062997     3.3683085509
NI      2.6795789271     3.0943798638     3.3681495147
NI      8.0394472059     3.0944385523     3.3684211381
NI      4.0194320703     5.4153128231     3.3683307771
NI      6.6993177854     5.4150340634     3.3685655879
NI     10.7189725585     3.0942145330     3.3680796844
NI      8.0391484228     7.7361488232     3.3680755849
NI     13.3987901279     7.7359507883     3.3680842347
NI      9.3794647617     5.4150119274     3.3680648699
NI     12.0589060793     5.4152304556     3.3680010837
NI     10.7190838383     7.7358507486     3.3678452931
AG      5.3595657440     9.2828356980     5.5903509969
AG      4.0197010454     2.3207859046     5.5902802257
AG      6.6992457453     2.3208211302     5.5905846384
AG      5.3597096809     4.6413804030     5.5908202312
AG      1.3398857572     2.3208032488     5.5902002299
AG      9.3790750287     2.3206593876     5.5903919047
AG      4.0195984326     6.9620550753     5.5901420923
AG      6.6995750567     6.9622124880     5.5899856805
AG      8.0391268193     9.2830046732     5.5907649457
AG     13.3989551244     9.2828321571     5.5899298113
AG      2.6801668778     4.6414787380     5.5901419543
AG      8.0390361054     4.6412254627     5.5905599726
AG     10.7190572126     9.2829654403     5.5901769648
AG     10.7187608177     4.6413814236     5.5904545993
AG      9.3791617213     6.9622401242     5.5903441320
AG     12.0589190848     6.9622215358     5.5906337286
AG      5.3594115627     1.5470061276     8.3514198223
AG      4.0197819206     3.8678815335     8.3550454533
AG      6.6959605253     3.8676644666     8.3450803241
AG      2.6799085632     1.5474074890     8.3504730122
AG      8.0395181141     1.5467133194     8.3504131286
AG      5.3593719435     6.1886658614     8.3535387210
AG      9.3794120467     3.8689323485     8.3528546910
AG     12.0588650800     3.8679149276     8.3506647889
AG      8.0403798593     6.1890929893     8.3496716218
AG     13.3986195730     6.1886076018     8.3501715221
AG      9.3790665993     8.5093697993     8.3501046318
AG     12.0587188144     8.5094730402     8.3502338383
AG     10.7186130298     6.1882770768     8.3506813249
AG     10.7187580361     1.5476029874     8.3506783348
AG      6.6994446458     8.5089309632     8.3504209740
AG     14.7388876258     8.5091176720     8.3501051534
O       5.9402763268     4.0313529405    11.4601776284
C       7.1636732208     4.1286063877    11.6345132447
C       7.8936877597     4.4423631385    12.9705257922
O       9.3055295842     4.4168770430    12.8366242787
C       7.4204493108     3.7022449373    14.2017698482
O       5.9973534163     3.6018909593    14.1513305939
C       7.9712608549     4.3451197561    15.4772926429
O       7.5096899023     5.7207949105    15.5380744042
C       7.6791498739     3.5681595557    16.7923221599
O       7.9337946646     2.1782528727    16.5247787816
C       8.5161581165     4.0601037675    17.9801225073
O       8.0811740395     3.3450589370    19.1527040810
H       7.8777346484     4.2401285227    10.7386906912
H       7.5188921322     5.4816521451    12.8888091533
H       9.5526829717     5.0273306760    12.1198034706
H       7.8548704834     2.6955982170    14.0754149685
H       5.6411723762     3.9517764355    14.9813247971
H       9.0774424123     4.3739931049    15.3449300958
H       7.1264392709     5.8969984604    16.4173874501
H       6.5943157682     3.6688387529    17.0971921216
H       7.6268330601     1.6858988991    17.2968798579
H       9.5879017609     3.8585893166    17.7756371863
H       8.4047949361     5.1584635333    18.1382397972
H       8.6446348384     3.6577809336    19.8703271024
