146
Step 1 | ATOMIC_POSITIONS (angstrom) | Cartesian Angstrom
NI      1.2189535980     0.7037631880     1.5000000000
NI      2.4379071950     2.8150527500     1.5000000000
NI      3.6568607930     4.9263423130     1.5000000000
NI      4.8758143900     7.0376318760     1.5000000000
NI      6.0947679870     9.1489214370     1.5000000000
NI      7.3137215840    11.2602110000     1.5000000000
NI      3.6568607920     0.7037631880     1.5000000000
NI      4.8758143890     2.8150527500     1.5000000000
NI      6.0947679860     4.9263423130     1.5000000000
NI      7.3137215840     7.0376318760     1.5000000000
NI      8.5326751800     9.1489214370     1.5000000000
NI      9.7516287780    11.2602110000     1.5000000000
NI      6.0947679870     0.7037631880     1.5000000000
NI      7.3137215840     2.8150527500     1.5000000000
NI      8.5326751810     4.9263423130     1.5000000000
NI      9.7516287790     7.0376318760     1.5000000000
NI     10.9705823750     9.1489214370     1.5000000000
NI     12.1895359730    11.2602110000     1.5000000000
NI      8.5326751820     0.7037631880     1.5000000000
NI      9.7516287790     2.8150527500     1.5000000000
NI     10.9705823760     4.9263423130     1.5000000000
NI     12.1895359740     7.0376318760     1.5000000000
NI     13.4084895710     9.1489214370     1.5000000000
NI     14.6274431680    11.2602110000     1.5000000000
NI     10.9705823750     0.7037631880     1.5000000000
NI     12.1895359720     2.8150527500     1.5000000000
NI     13.4084895700     4.9263423130     1.5000000000
NI     14.6274431670     7.0376318760     1.5000000000
NI     15.8463967640     9.1489214370     1.5000000000
NI     17.0653503620    11.2602110000     1.5000000000
NI     13.4084895710     0.7037631880     1.5000000000
NI     14.6274431670     2.8150527500     1.5000000000
NI     15.8463967650     4.9263423130     1.5000000000
NI     17.0653503620     7.0376318760     1.5000000000
NI     18.2843039590     9.1489214370     1.5000000000
NI     19.5032575570    11.2602110000     1.5000000000
NI     13.4349205301     7.7566066450     3.4440206232
NI     14.6273677306     9.8220664214     3.4439239119
NI     15.8200064204     7.7566713192     3.4439323872
NI     12.2348144971     9.8265086682     3.4661739644
NI     14.6273032313     5.6824179692     3.4664197512
NI     17.0201563814     9.8264630420     3.4661652653
NI     11.0224109081     7.7489739314     3.4787404423
NI     13.4278342145    11.9153647851     3.4792807129
NI     12.2219690639     5.6712670530     3.4791058775
NI     15.8270281156    11.9154372779     3.4794481202
NI     17.0328125594     5.6712589589     3.4792379782
NI     18.2323019094     7.7491029425     3.4791157880
NI      9.7967422168     9.8346190895     3.5017988527
NI     11.0085988396    11.9340097375     3.5017871354
NI     13.4153817626     3.5669067636     3.5013356147
NI     18.2463587360    11.9338965860     3.5019193288
NI     15.8393472121     3.5666871970     3.5019340348
NI     19.4580964165     9.8348354544     3.5016440649
NI      4.8421783024     5.6495281910     3.5045644255
NI      7.3137792996     1.3683955632     3.5044716350
NI      9.7856168091     5.6497332807     3.5036840174
NI      3.6445632378     3.5433733523     3.5194499652
NI      6.0674278912     7.7397994589     3.5198832685
NI      4.8907855800     1.3844129924     3.5194608737
NI      8.5604075067     7.7399030238     3.5191710522
NI      9.7365635212     1.3846414785     3.5196798115
NI     10.9832741783     3.5434854333     3.5185828392
NI      2.4502854538     1.4145417493     3.5272380682
NI      7.3138215589     9.8383452397     3.5274256706
NI     12.1770692090     1.4148025150     3.5269736650
NI      6.0885358363     3.5153039111     3.5308609246
NI      7.3138996106     5.6370855588     3.5309631489
NI      8.5389462049     3.5153854657     3.5306838816
NI      8.5525256955    11.9526062191     3.5314559387
NI     14.6274249695     1.4304702784     3.5316990782
NI     20.7023799804    11.9526012891     3.5315111195
AG      0.0001223263     0.0000183555     5.8129581311
AG      5.8729217508     5.0540714720     5.8191013335
AG      7.3138024940     2.5590724849     5.8192102188
AG      8.7548094751     5.0542226982     5.8195228248
AG      1.4590858000     2.4930016535     5.8354786357
AG      5.8838520900    10.1575891559     5.8354676155
AG      2.8885860908     0.0170458485     5.8355309414
AG      8.7435186620    10.1575012996     5.8358564441
AG     11.7388141231     0.0173829901     5.8360043552
AG     13.1676419446     2.4934865821     5.8361234978
AG      4.3866047736     2.5325565599     5.8411474615
AG      7.3142789153     7.6024898219     5.8412874900
AG     10.2411122498     2.5332118331     5.8417273720
AG      2.9607101880     5.0210598247     5.8616306198
AG      4.4456746890     7.5933460147     5.8616889154
AG      5.8285205397     0.0534895648     5.8616889619
AG     10.1816305772     7.5924872489     5.8620026425
AG      8.7987934015     0.0536862523     5.8616968135
AG     11.6662517906     5.0200425558     5.8630051430
AG     11.6430717543    10.1681454787     5.8793081426
AG     14.6271464705     4.9991261044     5.8793495577
AG     17.6118605411    10.1680472291     5.8790887369
AG     13.1278341070     7.5797438442     5.9036843599
AG     14.6274661243    10.1758014425     5.9037074337
AG     16.1262330874     7.5798282575     5.9036714563
AG      5.8494545751     3.3777674044     8.1421647540
AG      7.3072329166     5.9152643871     8.1335806160
AG      8.7698803099     3.3724629491     8.1342915339
AG      4.3960585864     5.9071736140     8.1531285042
AG      7.3137379850     0.8527853646     8.1523386261
AG     10.2357864259     5.9137108182     8.1192209501
AG      1.4530032880     0.8390399057     8.1586551741
AG      7.3139127385    10.9895922727     8.1591036263
AG     13.1759023685     0.8365733870     8.1567979270
AG      2.9186778269     3.3634667894     8.1603701559
AG      5.8603707622     8.4583308548     8.1608155017
AG      4.3722517058     0.8458684149     8.1601918893
AG      8.7633790551     8.4605999625     8.1544933513
AG     10.2534354169     0.8411834629     8.1574675702
AG     11.7734490178     3.3631180357     8.0107490113
AG     11.6788230571     8.4582996900     8.1533535127
AG     13.1516267985    10.9902844907     8.1694789696
AG     13.1684217428     5.8936121214     8.1550373222
AG     16.1031590357    10.9901933938     8.1698382934
AG     16.0934538820     5.8944263282     8.1696387593
AG     17.5692923185     8.4506979032     8.1693209325
AG     10.2194033341    10.9903131063     8.1694735073
AG     14.6293664050     3.3557718948     8.1688768196
AG     19.0353509514    10.9901996575     8.1696769795
AG     14.6308004730     8.4461064794     8.1689613138
H      12.6658678446     7.7295865502     9.7575893966
O      13.1544905840     7.8389391229    10.6309083467
H      13.8444524017     6.1253177887    11.4169103278
C      12.9241885641     6.6793210584    11.4165331057
H      12.8099278037     7.0186138402    12.4520632074
H       9.4957909835     8.1049750165    10.8175265337
H      11.8877468150     5.5724304991     9.8371294754
C      11.7573829347     5.7997011007    10.9504856098
O      10.2673339750     7.6237004077    10.4538817270
H      10.2062489890     6.6141523246    12.2687880029
O      11.8885804618     4.5911027472    11.6739822992
C      10.3680857498     6.4092470016    11.1915620156
C      10.9672076637     3.5935609914    11.3526786572
O      11.3498516031     3.0606859269    10.2042846099
C       9.2878917902     5.4479207249    10.7789738419
H       9.2647828469     5.2698849670     9.6491904970
H      11.1706852675     2.7889291645    12.0891550722
H      10.7378747344     3.5694115370     9.4405271264
C       9.5188843118     4.1183065517    11.4554702540
O       8.0424011712     5.9781512289    11.1818457303
H       9.3424974481     4.2627110411    12.5100427870
H       7.3376409226     5.5592746971    10.6142021474
O       8.5518404117     3.1877008091    10.9729844088
H       8.8574136017     2.3037885349    11.2827379900
146
Step 2 | ATOMIC_POSITIONS (angstrom) | Cartesian Angstrom
NI      1.2189535980     0.7037631880     1.5000000000
NI      2.4379071950     2.8150527500     1.5000000000
NI      3.6568607930     4.9263423130     1.5000000000
NI      4.8758143900     7.0376318760     1.5000000000
NI      6.0947679870     9.1489214370     1.5000000000
NI      7.3137215840    11.2602110000     1.5000000000
NI      3.6568607920     0.7037631880     1.5000000000
NI      4.8758143890     2.8150527500     1.5000000000
NI      6.0947679860     4.9263423130     1.5000000000
NI      7.3137215840     7.0376318760     1.5000000000
NI      8.5326751800     9.1489214370     1.5000000000
NI      9.7516287780    11.2602110000     1.5000000000
NI      6.0947679870     0.7037631880     1.5000000000
NI      7.3137215840     2.8150527500     1.5000000000
NI      8.5326751810     4.9263423130     1.5000000000
NI      9.7516287790     7.0376318760     1.5000000000
NI     10.9705823750     9.1489214370     1.5000000000
NI     12.1895359730    11.2602110000     1.5000000000
NI      8.5326751820     0.7037631880     1.5000000000
NI      9.7516287790     2.8150527500     1.5000000000
NI     10.9705823760     4.9263423130     1.5000000000
NI     12.1895359740     7.0376318760     1.5000000000
NI     13.4084895710     9.1489214370     1.5000000000
NI     14.6274431680    11.2602110000     1.5000000000
NI     10.9705823750     0.7037631880     1.5000000000
NI     12.1895359720     2.8150527500     1.5000000000
NI     13.4084895700     4.9263423130     1.5000000000
NI     14.6274431670     7.0376318760     1.5000000000
NI     15.8463967640     9.1489214370     1.5000000000
NI     17.0653503620    11.2602110000     1.5000000000
NI     13.4084895710     0.7037631880     1.5000000000
NI     14.6274431670     2.8150527500     1.5000000000
NI     15.8463967650     4.9263423130     1.5000000000
NI     17.0653503620     7.0376318760     1.5000000000
NI     18.2843039590     9.1489214370     1.5000000000
NI     19.5032575570    11.2602110000     1.5000000000
NI     13.4350357612     7.7566080269     3.4440291344
NI     14.6273052969     9.8219478035     3.4438487510
NI     15.8200039280     7.7566883144     3.4438646437
NI     12.2347905214     9.8264575685     3.4661454905
NI     14.6272482061     5.6824832415     3.4666218189
NI     17.0202643828     9.8264389814     3.4660725410
NI     11.0224455343     7.7490313748     3.4782217034
NI     13.4278705564    11.9154499065     3.4793910658
NI     12.2219316360     5.6713698995     3.4789019961
NI     15.8270153352    11.9155110902     3.4797727046
NI     17.0326871755     5.6713249485     3.4793048539
NI     18.2320948324     7.7492563656     3.4790277359
NI      9.7968138491     9.8344325500     3.5018816971
NI     11.0085688032    11.9341489488     3.5018459125
NI     13.4151918172     3.5669788199     3.5010117633
NI     18.2464394352    11.9338578802     3.5021620761
NI     15.8393830714     3.5666026698     3.5021897873
NI     19.4580083645     9.8348989519     3.5015273573
NI      4.8424461078     5.6493885538     3.5047394717
NI      7.3138127999     1.3683329873     3.5045701289
NI      9.7857440146     5.6498406596     3.5028981068
NI      3.6447445880     3.5432011540     3.5193946589
NI      6.0677443015     7.7397593305     3.5203713506
NI      4.8906015943     1.3844411494     3.5194181852
NI      8.5605126428     7.7400029372     3.5187837998
NI      9.7366349614     1.3848633637     3.5197812672
NI     10.9835091171     3.5434479971     3.5178680976
NI      2.4502599303     1.4144288380     3.5271033028
NI      7.3139199082     9.8382787324     3.5275055913
NI     12.1769762848     1.4149712034     3.5265687313
NI      6.0883365891     3.5152753985     3.5309413495
NI      7.3140414156     5.6370723049     3.5311790383
NI      8.5391201528     3.5154617518     3.5305960569
NI      8.5525195716    11.9527251063     3.5315554140
NI     14.6274366610     1.4305073411     3.5319990014
NI     20.7023722151    11.9526550297     3.5316413010
AG      0.0003436649    -0.0000610482     5.8124555891
AG      5.8726012422     5.0536243808     5.8182147009
AG      7.3137553908     2.5590660837     5.8184245470
AG      8.7548385591     5.0538911480     5.8184263602
AG      1.4592748218     2.4928247364     5.8348693306
AG      5.8835395051    10.1575491733     5.8349365579
AG      2.8885504023     0.0171415802     5.8350341475
AG      8.7437393989    10.1574510661     5.8355977521
AG     11.7387784024     0.0177164416     5.8359581185
AG     13.1713952742     2.4908622785     5.8296585916
AG      4.3864809126     2.5324127546     5.8407932457
AG      7.3148587780     7.6027188502     5.8407113120
AG     10.2386277182     2.5323089912     5.8390341200
AG      2.9607668502     5.0211686406     5.8611260362
AG      4.4455817299     7.5934538516     5.8612701934
AG      5.8283762184     0.0534365018     5.8612323170
AG     10.1813139708     7.5921431128     5.8603611846
AG      8.7987109767     0.0538398052     5.8611704113
AG     11.6655138037     5.0237940261     5.8568792131
AG     11.6431203574    10.1685261606     5.8786311449
AG     14.6272774602     4.9991981787     5.8787111306
AG     17.6118790632    10.1678908585     5.8787302012
AG     13.1273952211     7.5800210550     5.9031556586
AG     14.6274832897    10.1753939432     5.9037258304
AG     16.1258495913     7.5799915085     5.9036560424
AG      5.8491456673     3.3783986252     8.1431407689
AG      7.2997102384     5.9176433026     8.1248315160
AG      8.7640600144     3.3672218997     8.1281653639
AG      4.3962328858     5.9070781214     8.1542407672
AG      7.3135406075     0.8520239339     8.1523938420
AG     10.2401265889     5.9189477175     8.0837749807
AG      1.4529617769     0.8391335205     8.1590792029
AG      7.3140962409    10.9893352110     8.1600970584
AG     13.1778641347     0.8332684391     8.1553541549
AG      2.9188116754     3.3634068725     8.1608610106
AG      5.8604572299     8.4583680253     8.1617990352
AG      4.3723428659     0.8459543383     8.1604132510
AG      8.7584372293     8.4631045180     8.1480578007
AG     10.2520238856     0.8371351235     8.1550214221
AG     11.8100964602     3.3621605382     7.9306201982
AG     11.6712348408     8.4671273544     8.1352652197
AG     13.1515473283    10.9906948021     8.1697660114
AG     13.1764903740     5.8932451133     8.1396734668
AG     16.1031443556    10.9903450380     8.1705359270
AG     16.0936807427     5.8940973032     8.1701091447
AG     17.5694751033     8.4506609978     8.1693887382
AG     10.2190781851    10.9909651737     8.1696688643
AG     14.6334515283     3.3560472756     8.1687125602
AG     19.0354243338    10.9902516822     8.1701065193
AG     14.6345671669     8.4471685431     8.1679034085
H      12.6735022613     7.7317888809     9.7668532956
O      13.1493397095     7.8522236711    10.6279823991
H      13.8532946292     6.1007341772    11.4138564499
C      12.9335489151     6.6856845908    11.4243384081
H      12.7956927532     7.0172144489    12.4548210586
H       9.4949489643     8.1076201117    10.8139009516
H      11.8844105388     5.5805006154     9.8487407879
C      11.7653174337     5.8066548997    10.9703384824
O      10.2668304218     7.6391434394    10.4634566815
H      10.2168018268     6.6126350963    12.2661398818
O      11.9012247501     4.6186885122    11.7158460063
C      10.3650402690     6.4078799689    11.1924706717
C      10.9787393224     3.6007737244    11.4050713899
O      11.3157536196     3.0247108356    10.1683435101
C       9.2848659473     5.4272928338    10.7975627505
H       9.2652684110     5.2726846060     9.6667275400
H      11.1595854903     2.7964738604    12.0962863196
H      10.7248418148     3.5550278961     9.4762908568
C       9.5246062630     4.1037287596    11.4673693274
O       8.0271885517     5.9843266142    11.1727709891
H       9.3415586639     4.2710289961    12.5268674452
H       7.3418491832     5.5638546732    10.6222719118
O       8.5543555935     3.1733158266    10.9643885481
H       8.8478680927     2.3058735997    11.2764779812
146
Step 3 | ATOMIC_POSITIONS (angstrom) | Cartesian Angstrom
NI      1.2189535980     0.7037631880     1.5000000000
NI      2.4379071950     2.8150527500     1.5000000000
NI      3.6568607930     4.9263423130     1.5000000000
NI      4.8758143900     7.0376318760     1.5000000000
NI      6.0947679870     9.1489214370     1.5000000000
NI      7.3137215840    11.2602110000     1.5000000000
NI      3.6568607920     0.7037631880     1.5000000000
NI      4.8758143890     2.8150527500     1.5000000000
NI      6.0947679860     4.9263423130     1.5000000000
NI      7.3137215840     7.0376318760     1.5000000000
NI      8.5326751800     9.1489214370     1.5000000000
NI      9.7516287780    11.2602110000     1.5000000000
NI      6.0947679870     0.7037631880     1.5000000000
NI      7.3137215840     2.8150527500     1.5000000000
NI      8.5326751810     4.9263423130     1.5000000000
NI      9.7516287790     7.0376318760     1.5000000000
NI     10.9705823750     9.1489214370     1.5000000000
NI     12.1895359730    11.2602110000     1.5000000000
NI      8.5326751820     0.7037631880     1.5000000000
NI      9.7516287790     2.8150527500     1.5000000000
NI     10.9705823760     4.9263423130     1.5000000000
NI     12.1895359740     7.0376318760     1.5000000000
NI     13.4084895710     9.1489214370     1.5000000000
NI     14.6274431680    11.2602110000     1.5000000000
NI     10.9705823750     0.7037631880     1.5000000000
NI     12.1895359720     2.8150527500     1.5000000000
NI     13.4084895700     4.9263423130     1.5000000000
NI     14.6274431670     7.0376318760     1.5000000000
NI     15.8463967640     9.1489214370     1.5000000000
NI     17.0653503620    11.2602110000     1.5000000000
NI     13.4084895710     0.7037631880     1.5000000000
NI     14.6274431670     2.8150527500     1.5000000000
NI     15.8463967650     4.9263423130     1.5000000000
NI     17.0653503620     7.0376318760     1.5000000000
NI     18.2843039590     9.1489214370     1.5000000000
NI     19.5032575570    11.2602110000     1.5000000000
NI     13.4351457435     7.7566015173     3.4439436368
NI     14.6272024524     9.8218808402     3.4437607812
NI     15.8199662662     7.7567078685     3.4438052610
NI     12.2347694355     9.8263839598     3.4660264935
NI     14.6271193345     5.6825722710     3.4668538311
NI     17.0203594699     9.8265177268     3.4659207026
NI     11.0225688731     7.7490876747     3.4773383876
NI     13.4279283991    11.9155479232     3.4794895597
NI     12.2220802941     5.6717174458     3.4776016852
NI     15.8270151472    11.9156353304     3.4801868869
NI     17.0325426222     5.6713856058     3.4794144866
NI     18.2318957226     7.7494099866     3.4789284933
NI      9.7969805496     9.8341843410     3.5019876855
NI     11.0085619166    11.9342685084     3.5019129534
NI     13.4148879936     3.5673529971     3.5000453948
NI     18.2465170684    11.9338931883     3.5025137428
NI     15.8393714222     3.5665167805     3.5025458493
NI     19.4579200699     9.8350038824     3.5013574393
NI      4.8427938116     5.6492632078     3.5049343830
NI      7.3139033751     1.3682591456     3.5046713571
NI      9.7859423116     5.6499189059     3.5016826782
NI      3.6449662846     3.5429546268     3.5193293374
NI      6.0681434431     7.7396725538     3.5210742333
NI      4.8904259819     1.3844547597     3.5193492697
NI      8.5607213299     7.7400705052     3.5181647073
NI      9.7366856458     1.3850175422     3.5194793032
NI     10.9837368945     3.5434254753     3.5167241365
NI      2.4501932782     1.4142644334     3.5269312848
NI      7.3140727558     9.8382444161     3.5276675698
NI     12.1766676246     1.4151392762     3.5257172109
NI      6.0882053687     3.5151908333     3.5310537882
NI      7.3143081078     5.6370010368     3.5315007750
NI      8.5394201482     3.5155522621     3.5302987845
NI      8.5525344942    11.9528699281     3.5317570879
NI     14.6274354615     1.4305826805     3.5323649557
NI     20.7023172042    11.9527687933     3.5318558744
AG      0.0008911339    -0.0004675303     5.8116393724
AG      5.8718117808     5.0527365677     5.8164713421
AG      7.3132618204     2.5588940786     5.8168203661
AG      8.7540330675     5.0527793637     5.8156080100
AG      1.4598224810     2.4924709761     5.8339023489
AG      5.8831165073    10.1575240512     5.8341888395
AG      2.8884751685     0.0173236850     5.8342910686
AG      8.7440306289    10.1576672446     5.8349224028
AG     11.7386835508     0.0180926279     5.8357174722
AG     13.1834061605     2.4825415859     5.8109295479
AG      4.3863066354     2.5321717304     5.8402970838
AG      7.3154882423     7.6032643420     5.8390861555
AG     10.2319454737     2.5296417697     5.8320641261
AG      2.9608833355     5.0212998391     5.8604278000
AG      4.4454877290     7.5935802098     5.8607087696
AG      5.8281284994     0.0533938223     5.8605395400
AG     10.1802363658     7.5931266066     5.8549382186
AG      8.7984719062     0.0539344186     5.8602330314
AG     11.6641923822     5.0343064593     5.8391671963
AG     11.6431835284    10.1699932281     5.8766420554
AG     14.6283502143     4.9990467489     5.8767021725
AG     17.6119127614    10.1677107738     5.8782406698
AG     13.1271373397     7.5810023669     5.9013380753
AG     14.6274804411    10.1748708673     5.9036921810
AG     16.1252986623     7.5801520825     5.9035196097
AG      5.8482845998     3.3792351118     8.1445970887
AG      7.2889993178     5.9211476776     8.1115305311
AG      8.7560981695     3.3600543066     8.1180801991
AG      4.3961483173     5.9069468417     8.1559197548
AG      7.3129541050     0.8505706300     8.1524374158
AG     10.2453773929     5.9245160517     8.0350767636
AG      1.4530146300     0.8392360334     8.1597396226
AG      7.3143069639    10.9889908442     8.1616358597
AG     13.1811407652     0.8276948873     8.1532428703
AG      2.9191486852     3.3633243865     8.1616215078
AG      5.8602096714     8.4586469260     8.1632777237
AG      4.3725069832     0.8461108093     8.1607281834
AG      8.7507028987     8.4667930663     8.1383968848
AG     10.2503778613     0.8318203096     8.1512237435
AG     11.8485608621     3.3609411045     7.8550971168
AG     11.6600958750     8.4801868748     8.1086416206
AG     13.1515325355    10.9914428761     8.1701759287
AG     13.1882531442     5.8934439053     8.1176423528
AG     16.1030991831    10.9905052240     8.1716178171
AG     16.0944889319     5.8936470243     8.1708632778
AG     17.5699282026     8.4505968074     8.1694921713
AG     10.2183548439    10.9924761655     8.1699254238
AG     14.6419261397     3.3561718000     8.1687927405
AG     19.0355596816    10.9901135172     8.1707358110
AG     14.6401816350     8.4489034619     8.1663493557
H      12.6824236450     7.7340240221     9.7761016641
O      13.1461887994     7.8645393076    10.6373755955
H      13.8616483853     6.0712188584    11.4102279065
C      12.9456678930     6.6969000323    11.4242513721
H      12.7787597278     7.0181100431    12.4647073382
H       9.4842024133     8.1168326427    10.8124893738
H      11.8808986678     5.5911801448     9.8762288820
C      11.7711823759     5.8228051151    10.9816983108
O      10.2728662083     7.6434693560    10.4773387212
H      10.2303499413     6.6126358032    12.2676023019
O      11.9075278559     4.6293458982    11.7680705412
C      10.3692458471     6.4114388324    11.1975245541
C      10.9973515876     3.6124518125    11.4149318162
O      11.2536802720     3.0131001117    10.1499182548
C       9.2779277402     5.4184367781    10.8085968617
H       9.2682998350     5.2741020059     9.6963476112
H      11.1539611844     2.7915532505    12.1266160059
H      10.7220814515     3.5217860576     9.5247297268
C       9.5251523340     4.0875090661    11.4919360985
O       8.0271181389     5.9935977238    11.1723047112
H       9.3357723788     4.2783842238    12.5529356954
H       7.3344126153     5.5622608552    10.6240155962
O       8.5659625405     3.1720127146    10.9548862102
H       8.8365605597     2.2904555044    11.2709414038
