146
Step 1 | ATOMIC_POSITIONS (angstrom) | Cartesian Angstrom
NI      1.2189535980     0.7037631880     1.5000000000
NI      2.4379071950     2.8150527500     1.5000000000
NI      3.6568607930     4.9263423130     1.5000000000
NI      4.8758143900     7.0376318760     1.5000000000
NI      6.0947679870     9.1489214370     1.5000000000
NI      7.3137215840    11.2602110000     1.5000000000
NI      3.6568607920     0.7037631880     1.5000000000
NI      4.8758143890     2.8150527500     1.5000000000
NI      6.0947679860     4.9263423130     1.5000000000
NI      7.3137215840     7.0376318760     1.5000000000
NI      8.5326751800     9.1489214370     1.5000000000
NI      9.7516287780    11.2602110000     1.5000000000
NI      6.0947679870     0.7037631880     1.5000000000
NI      7.3137215840     2.8150527500     1.5000000000
NI      8.5326751810     4.9263423130     1.5000000000
NI      9.7516287790     7.0376318760     1.5000000000
NI     10.9705823750     9.1489214370     1.5000000000
NI     12.1895359730    11.2602110000     1.5000000000
NI      8.5326751820     0.7037631880     1.5000000000
NI      9.7516287790     2.8150527500     1.5000000000
NI     10.9705823760     4.9263423130     1.5000000000
NI     12.1895359740     7.0376318760     1.5000000000
NI     13.4084895710     9.1489214370     1.5000000000
NI     14.6274431680    11.2602110000     1.5000000000
NI     10.9705823750     0.7037631880     1.5000000000
NI     12.1895359720     2.8150527500     1.5000000000
NI     13.4084895700     4.9263423130     1.5000000000
NI     14.6274431670     7.0376318760     1.5000000000
NI     15.8463967640     9.1489214370     1.5000000000
NI     17.0653503620    11.2602110000     1.5000000000
NI     13.4084895710     0.7037631880     1.5000000000
NI     14.6274431670     2.8150527500     1.5000000000
NI     15.8463967650     4.9263423130     1.5000000000
NI     17.0653503620     7.0376318760     1.5000000000
NI     18.2843039590     9.1489214370     1.5000000000
NI     19.5032575570    11.2602110000     1.5000000000
NI     13.4348162735     7.7566451963     3.4440719638
NI     14.6274885096     9.8222384391     3.4439469460
NI     15.8199978445     7.7566716430     3.4440153491
NI     12.2348254804     9.8264273374     3.4662022016
NI     14.6274640705     5.6824551138     3.4662083497
NI     17.0200662485     9.8266282618     3.4661228604
NI     11.0223988916     7.7489989460     3.4790548984
NI     13.4279520451    11.9153208738     3.4791661416
NI     12.2219355201     5.6711935160     3.4788644587
NI     15.8271225763    11.9151831018     3.4791404286
NI     17.0328694384     5.6712409724     3.4792279797
NI     18.2326197730     7.7490073652     3.4791659590
NI      9.7967206571     9.8346260743     3.5017681529
NI     11.0085878157    11.9339370860     3.5018678541
NI     13.4155498766     3.5667203682     3.5016615367
NI     18.2461972121    11.9337712528     3.5016622037
NI     15.8392990651     3.5667065770     3.5017976424
NI     19.4581874008     9.8347779599     3.5016267135
NI      4.8420661164     5.6497280811     3.5045803187
NI      7.3137604635     1.3684763295     3.5044906761
NI      9.7855613946     5.6496641918     3.5039676591
NI      3.6444066756     3.5434139909     3.5195090064
NI      6.0671274900     7.7398712559     3.5196308258
NI      4.8909965466     1.3844108721     3.5194641963
NI      8.5603857467     7.7397778546     3.5190799040
NI      9.7364894905     1.3844748402     3.5195762979
NI     10.9830321564     3.5436327687     3.5194930713
NI      2.4502259443     1.4146870286     3.5272526045
NI      7.3136128620     9.8383456824     3.5274673575
NI     12.1772204413     1.4146868098     3.5274352583
NI      6.0886744843     3.5153390858     3.5308260755
NI      7.3137616488     5.6371922141     3.5302731878
NI      8.5388117559     3.5154021052     3.5307994581
NI      8.5524806574    11.9525885122     3.5315912941
NI     14.6273771644     1.4305411783     3.5313750685
NI     20.7023222867    11.9525040824     3.5313748563
AG     -0.0000470247     0.0000502703     5.8130545493
AG      5.8736916910     5.0546099648     5.8202406653
AG      7.3137068419     2.5591907494     5.8197955471
AG      8.7541209467     5.0547784046     5.8203632527
AG      1.4590972113     2.4930562340     5.8357885056
AG      5.8840184515    10.1576810032     5.8355631307
AG      2.8886877621     0.0171164690     5.8355725665
AG      8.7433522338    10.1574549687     5.8355869298
AG     11.7388416440     0.0169181317     5.8358526416
AG     13.1685182717     2.4932231162     5.8358790163
AG      4.3866478215     2.5326572270     5.8413211407
AG      7.3140423185     7.6016854835     5.8418869310
AG     10.2405507455     2.5328247965     5.8414796459
AG      2.9606845279     5.0209064616     5.8617781446
AG      4.4457600258     7.5932324303     5.8619198095
AG      5.8286418069     0.0535495793     5.8619958867
AG     10.1815180128     7.5926139931     5.8624605498
AG      8.7988246171     0.0534920659     5.8620076233
AG     11.6666417660     5.0212597416     5.8621903480
AG     11.6431335005    10.1680516021     5.8792467910
AG     14.6272170649     4.9990676455     5.8794304527
AG     17.6118463982    10.1682174951     5.8793564726
AG     13.1281268821     7.5794119331     5.9037974429
AG     14.6274550915    10.1761694767     5.9035290826
AG     16.1265080240     7.5797043304     5.9035558960
AG      5.8495028328     3.3771091247     8.1413906742
AG      7.3141612497     5.9130368064     8.1427530954
AG      8.7777984777     3.3758809249     8.1413415438
AG      4.3956647634     5.9074026717     8.1524341027
AG      7.3137210536     0.8532047937     8.1523824976
AG     10.2325962056     5.9075622410     8.1411191315
AG      1.4530904613     0.8388380602     8.1585939743
AG      7.3140087075    10.9895721946     8.1592827239
AG     13.1743150201     0.8390933509     8.1586975222
AG      2.9185360781     3.3635807626     8.1602232957
AG      5.8599883401     8.4587393105     8.1604082047
AG      4.3721439574     0.8457527255     8.1601481226
AG      8.7647305455     8.4613729901     8.1508099751
AG     10.2553249605     0.8460564143     8.1604440664
AG     11.7086054509     3.3611557277     8.1578588469
AG     11.6874226173     8.4510560513     8.1683827306
AG     13.1515419184    10.9899153564     8.1696381196
AG     13.1628831475     5.8969013297     8.1626788351
AG     16.1031497335    10.9900535838     8.1693210391
AG     16.0936096928     5.8947189062     8.1694501127
AG     17.5692852112     8.4506741682     8.1694763290
AG     10.2194460895    10.9900263458     8.1702460430
AG     14.6278245727     3.3548176487     8.1690579030
AG     19.0353687525    10.9900497909     8.1694401555
AG     14.6274203964     8.4451085527     8.1706936616
H      12.8800526660     3.7524502075    12.6400774588
O      12.6391624370     3.7494769822    11.6985740375
H      13.7223712074     5.5114445910    11.5846951080
C      12.7667625121     5.1097827258    11.2541015032
H      12.8047764702     5.0797082084    10.1386256411
H      10.7147947219     3.5769645415    11.5717010175
H      11.5901315325     5.9482540678    12.8171929195
C      11.5956905286     5.9691350364    11.7096693181
O       9.9513210108     4.1696981145    11.7842909538
H      10.2843806715     5.2943834390    10.0955897030
O      11.8415995249     7.3190920528    11.2655076872
C      10.2392010611     5.4311971335    11.2257836898
C      10.8469721042     8.2396545149    11.6946402943
O      10.8267788131     8.3422546612    13.1095689159
C       9.1056665020     6.4151566132    11.5188427827
H       8.8689775990     6.3476094696    12.6019382011
H      11.1350524244     9.2257551073    11.2992493486
H       9.8907274452     8.4611658061    13.3644930695
C       9.4741575762     7.8470217533    11.1631695313
O       7.9091754627     6.0407841337    10.8215331871
H       9.4670283246     7.9318780924    10.0377110298
H       7.2301454200     6.6788179136    11.1141666307
O       8.4572713474     8.7230029375    11.6628431690
H       8.5746705460     9.5956595668    11.2271536037
146
Step 2 | ATOMIC_POSITIONS (angstrom) | Cartesian Angstrom
NI      1.2189535980     0.7037631880     1.5000000000
NI      2.4379071950     2.8150527500     1.5000000000
NI      3.6568607930     4.9263423130     1.5000000000
NI      4.8758143900     7.0376318760     1.5000000000
NI      6.0947679870     9.1489214370     1.5000000000
NI      7.3137215840    11.2602110000     1.5000000000
NI      3.6568607920     0.7037631880     1.5000000000
NI      4.8758143890     2.8150527500     1.5000000000
NI      6.0947679860     4.9263423130     1.5000000000
NI      7.3137215840     7.0376318760     1.5000000000
NI      8.5326751800     9.1489214370     1.5000000000
NI      9.7516287780    11.2602110000     1.5000000000
NI      6.0947679870     0.7037631880     1.5000000000
NI      7.3137215840     2.8150527500     1.5000000000
NI      8.5326751810     4.9263423130     1.5000000000
NI      9.7516287790     7.0376318760     1.5000000000
NI     10.9705823750     9.1489214370     1.5000000000
NI     12.1895359730    11.2602110000     1.5000000000
NI      8.5326751820     0.7037631880     1.5000000000
NI      9.7516287790     2.8150527500     1.5000000000
NI     10.9705823760     4.9263423130     1.5000000000
NI     12.1895359740     7.0376318760     1.5000000000
NI     13.4084895710     9.1489214370     1.5000000000
NI     14.6274431680    11.2602110000     1.5000000000
NI     10.9705823750     0.7037631880     1.5000000000
NI     12.1895359720     2.8150527500     1.5000000000
NI     13.4084895700     4.9263423130     1.5000000000
NI     14.6274431670     7.0376318760     1.5000000000
NI     15.8463967640     9.1489214370     1.5000000000
NI     17.0653503620    11.2602110000     1.5000000000
NI     13.4084895710     0.7037631880     1.5000000000
NI     14.6274431670     2.8150527500     1.5000000000
NI     15.8463967650     4.9263423130     1.5000000000
NI     17.0653503620     7.0376318760     1.5000000000
NI     18.2843039590     9.1489214370     1.5000000000
NI     19.5032575570    11.2602110000     1.5000000000
NI     13.4347241197     7.7566527453     3.4442432293
NI     14.6274722134     9.8222695306     3.4439803538
NI     15.8199559023     7.7566872248     3.4441203794
NI     12.2347971772     9.8263367759     3.4662337811
NI     14.6274658164     5.6824791671     3.4662527621
NI     17.0200607582     9.8267218687     3.4661041869
NI     11.0224001136     7.7490469311     3.4789636499
NI     13.4280133834    11.9153446767     3.4792037808
NI     12.2218786318     5.6711959623     3.4785269178
NI     15.8271664618    11.9150751169     3.4791621777
NI     17.0328351613     5.6712345589     3.4793248393
NI     18.2327437385     7.7490229127     3.4792178374
NI      9.7967609729     9.8344580571     3.5018624166
NI     11.0085550637    11.9340191379     3.5020469721
NI     13.4155786149     3.5666471388     3.5016237540
NI     18.2461335403    11.9336991286     3.5016608501
NI     15.8392647322     3.5665741247     3.5019067527
NI     19.4582247589     9.8347777719     3.5015810377
NI      4.8422392543     5.6497085507     3.5048826277
NI      7.3137661453     1.3685947367     3.5046436030
NI      9.7855950884     5.6496489825     3.5035296757
NI      3.6444134947     3.5432552481     3.5195546675
NI      6.0671744400     7.7398785650     3.5199016591
NI      4.8909918707     1.3844468969     3.5194626597
NI      8.5604989431     7.7397054636     3.5186924454
NI      9.7364973947     1.3846206908     3.5197431152
NI     10.9830170365     3.5437824228     3.5195335518
NI      2.4502005935     1.4147148980     3.5271333145
NI      7.3135567601     9.8382827095     3.5276394952
NI     12.1772857898     1.4147483016     3.5275631945
NI      6.0886525676     3.5153684383     3.5309160747
NI      7.3138292302     5.6372214816     3.5297352235
NI      8.5388473818     3.5155411433     3.5308653555
NI      8.5524885337    11.9526887417     3.5318214130
NI     14.6273552033     1.4306667510     3.5313580412
NI     20.7023204223    11.9525203108     3.5313721430
AG     -0.0000940744     0.0000999894     5.8127207164
AG      5.8744368639     5.0549320719     5.8209043427
AG      7.3136759964     2.5593638936     5.8198995110
AG      8.7537185762     5.0552151315     5.8209377867
AG      1.4592231698     2.4929642932     5.8355720078
AG      5.8839389960    10.1577267642     5.8351284851
AG      2.8887726332     0.0172718281     5.8351408591
AG      8.7433915251    10.1574215768     5.8349419886
AG     11.7388532456     0.0168655046     5.8357318485
AG     13.1686394406     2.4933349941     5.8357302656
AG      4.3865923893     2.5326561151     5.8411568412
AG      7.3142865409     7.6007196054     5.8421854701
AG     10.2402837221     2.5330330526     5.8414316191
AG      2.9607303920     5.0208192777     5.8614309743
AG      4.4457725536     7.5932091438     5.8617476526
AG      5.8286661139     0.0535800955     5.8618923299
AG     10.1814608903     7.5919647446     5.8624500421
AG      8.7988177517     0.0534619322     5.8619199204
AG     11.6665630150     5.0214668503     5.8619030893
AG     11.6432130922    10.1678913862     5.8790198479
AG     14.6270418105     4.9990008100     5.8792734169
AG     17.6118350024    10.1682254328     5.8792718209
AG     13.1278536800     7.5792647417     5.9036937024
AG     14.6274523214    10.1761815762     5.9033840807
AG     16.1264681049     7.5797570806     5.9034497465
AG      5.8494554380     3.3769662299     8.1414370093
AG      7.3146684413     5.9127450080     8.1443642056
AG      8.7776546384     3.3742723437     8.1413271115
AG      4.3955660024     5.9075665259     8.1526536741
AG      7.3137041837     0.8531761355     8.1525400614
AG     10.2336690867     5.9075934652     8.1294577725
AG      1.4530859107     0.8386869163     8.1589028236
AG      7.3142967421    10.9893537479     8.1604178612
AG     13.1743121953     0.8392105792     8.1591473431
AG      2.9184944383     3.3636632011     8.1604457314
AG      5.8597487481     8.4591126159     8.1608620627
AG      4.3720967779     0.8456836979     8.1602783967
AG      8.7620086540     8.4646747477     8.1409031039
AG     10.2553791498     0.8462935228     8.1609521672
AG     11.7083686195     3.3584580733     8.1553825328
AG     11.6894201653     8.4515219742     8.1674346784
AG     13.1513199430    10.9897905371     8.1700754950
AG     13.1646440408     5.8992194907     8.1553305747
AG     16.1031404048    10.9900753062     8.1693758512
AG     16.0937733865     5.8947175053     8.1696465944
AG     17.5693467065     8.4506166454     8.1697237166
AG     10.2193305831    10.9900398972     8.1713424059
AG     14.6282604699     3.3541569609     8.1687579313
AG     19.0354463317    10.9900731781     8.1695819945
AG     14.6274686464     8.4451145534     8.1711403333
H      12.8786905301     3.7472810304    12.6404413607
O      12.6414976871     3.7482255328    11.6960450713
H      13.7273193905     5.5210530107    11.5870089267
C      12.7673997952     5.1118076185    11.2530104618
H      12.8023271954     5.0762284140    10.1416241687
H      10.7108260983     3.5837443760    11.5765582370
H      11.5862819649     5.9500585740    12.8181604858
C      11.5945015540     5.9703777623    11.7168548046
O       9.9453883022     4.1674817212    11.7842933165
H      10.2870030104     5.3004613135    10.0967330824
O      11.8395794713     7.3218750514    11.2651859687
C      10.2348831872     5.4292679495    11.2262520340
C      10.8471837880     8.2435673088    11.6988439758
O      10.8263572492     8.3361142957    13.1118693812
C       9.0988388432     6.4138277617    11.5247541616
H       8.8762856421     6.3486514563    12.6028619429
H      11.1433818706     9.2248514520    11.2889548899
H       9.8919603530     8.4629080092    13.3661341385
C       9.4754200754     7.8465784661    11.1644379254
O       7.9052321094     6.0363403891    10.8200124159
H       9.4760837673     7.9274291905    10.0434832673
H       7.2291785800     6.6772999270    11.1109960017
O       8.4574628156     8.7232836235    11.6681941320
H       8.5708050354     9.5905637309    11.2276287674
146
Step 3 | ATOMIC_POSITIONS (angstrom) | Cartesian Angstrom
NI      1.2189535980     0.7037631880     1.5000000000
NI      2.4379071950     2.8150527500     1.5000000000
NI      3.6568607930     4.9263423130     1.5000000000
NI      4.8758143900     7.0376318760     1.5000000000
NI      6.0947679870     9.1489214370     1.5000000000
NI      7.3137215840    11.2602110000     1.5000000000
NI      3.6568607920     0.7037631880     1.5000000000
NI      4.8758143890     2.8150527500     1.5000000000
NI      6.0947679860     4.9263423130     1.5000000000
NI      7.3137215840     7.0376318760     1.5000000000
NI      8.5326751800     9.1489214370     1.5000000000
NI      9.7516287780    11.2602110000     1.5000000000
NI      6.0947679870     0.7037631880     1.5000000000
NI      7.3137215840     2.8150527500     1.5000000000
NI      8.5326751810     4.9263423130     1.5000000000
NI      9.7516287790     7.0376318760     1.5000000000
NI     10.9705823750     9.1489214370     1.5000000000
NI     12.1895359730    11.2602110000     1.5000000000
NI      8.5326751820     0.7037631880     1.5000000000
NI      9.7516287790     2.8150527500     1.5000000000
NI     10.9705823760     4.9263423130     1.5000000000
NI     12.1895359740     7.0376318760     1.5000000000
NI     13.4084895710     9.1489214370     1.5000000000
NI     14.6274431680    11.2602110000     1.5000000000
NI     10.9705823750     0.7037631880     1.5000000000
NI     12.1895359720     2.8150527500     1.5000000000
NI     13.4084895700     4.9263423130     1.5000000000
NI     14.6274431670     7.0376318760     1.5000000000
NI     15.8463967640     9.1489214370     1.5000000000
NI     17.0653503620    11.2602110000     1.5000000000
NI     13.4084895710     0.7037631880     1.5000000000
NI     14.6274431670     2.8150527500     1.5000000000
NI     15.8463967650     4.9263423130     1.5000000000
NI     17.0653503620     7.0376318760     1.5000000000
NI     18.2843039590     9.1489214370     1.5000000000
NI     19.5032575570    11.2602110000     1.5000000000
NI     13.4346506279     7.7566466770     3.4444126396
NI     14.6274631713     9.8222640902     3.4439953308
NI     15.8199171389     7.7567044572     3.4442089746
NI     12.2347912159     9.8262157108     3.4662475520
NI     14.6274663166     5.6825291663     3.4662868249
NI     17.0200567741     9.8267827000     3.4660651684
NI     11.0224041007     7.7490636810     3.4788498432
NI     13.4280985051    11.9153674067     3.4792476096
NI     12.2218164746     5.6712011262     3.4781160292
NI     15.8272252670    11.9149636148     3.4791893893
NI     17.0328062497     5.6712528508     3.4794026866
NI     18.2328722902     7.7490255489     3.4792473951
NI      9.7968164421     9.8342362876     3.5019399446
NI     11.0085386946    11.9340853871     3.5022321705
NI     13.4155932069     3.5666075541     3.5015750816
NI     18.2460603366    11.9336221301     3.5016624216
NI     15.8392250418     3.5664762133     3.5020198461
NI     19.4582500812     9.8347508489     3.5014944259
NI      4.8424522119     5.6496760532     3.5052809474
NI      7.3137927727     1.3687632301     3.5048468650
NI      9.7856052854     5.6496091867     3.5030634666
NI      3.6444339976     3.5431261943     3.5195953620
NI      6.0672362043     7.7398677442     3.5202316717
NI      4.8910128216     1.3845125389     3.5194606039
NI      8.5605990463     7.7395945974     3.5182486601
NI      9.7365058436     1.3848059357     3.5199638315
NI     10.9829928208     3.5439743878     3.5195993537
NI      2.4501665518     1.4147674779     3.5269744076
NI      7.3134811467     9.8381743021     3.5278160001
NI     12.1773365838     1.4148322220     3.5277268911
NI      6.0886415671     3.5154477316     3.5310506918
NI      7.3139078937     5.6372471643     3.5290937415
NI      8.5388873412     3.5157408049     3.5309784480
NI      8.5524867232    11.9527844245     3.5320824170
NI     14.6273163240     1.4308205130     3.5313306965
NI     20.7023001186    11.9525328727     3.5313535904
AG     -0.0001627982     0.0001506835     5.8123761550
AG      5.8753627927     5.0553478652     5.8217506883
AG      7.3136239996     2.5595860983     5.8200097665
AG      8.7530389941     5.0556192848     5.8213645200
AG      1.4593970691     2.4928372799     5.8353249958
AG      5.8838660351    10.1577782982     5.8346471481
AG      2.8888671282     0.0174533697     5.8346789130
AG      8.7434327035    10.1576458932     5.8338986970
AG     11.7388630247     0.0168156225     5.8356135210
AG     13.1688299550     2.4934384438     5.8354801348
AG      4.3865384377     2.5326765294     5.8409800059
AG      7.3143800674     7.5993660462     5.8422977277
AG     10.2398896022     2.5332816097     5.8412661805
AG      2.9608196812     5.0207034326     5.8610333361
AG      4.4458076959     7.5931749173     5.8615655350
AG      5.8287013630     0.0536218438     5.8617946732
AG     10.1815415353     7.5913473535     5.8618677736
AG      8.7988197386     0.0534377171     5.8618367445
AG     11.6666118934     5.0214932424     5.8610274344
AG     11.6432751938    10.1677265810     5.8787734875
AG     14.6269729752     4.9988072926     5.8789044207
AG     17.6118229982    10.1682284450     5.8791920610
AG     13.1275394669     7.5792986421     5.9032214126
AG     14.6274429195    10.1761938159     5.9032472322
AG     16.1264209201     7.5798223496     5.9033568676
AG      5.8493710599     3.3767796747     8.1414977424
AG      7.3153378953     5.9123751277     8.1464245900
AG      8.7774675360     3.3722313288     8.1413207336
AG      4.3954476828     5.9077778795     8.1529209793
AG      7.3136593273     0.8530903226     8.1527377755
AG     10.2350037470     5.9075661804     8.1153249148
AG      1.4530936685     0.8384675752     8.1592747152
AG      7.3145823990    10.9892041334     8.1618277571
AG     13.1743486612     0.8392694696     8.1597046470
AG      2.9184552417     3.3637712526     8.1607077240
AG      5.8593457188     8.4595782660     8.1614211103
AG      4.3720265467     0.8455878272     8.1604319924
AG      8.7587773818     8.4687666585     8.1289467966
AG     10.2554207994     0.8464806353     8.1615870391
AG     11.7081428832     3.3551398750     8.1522612431
AG     11.6918277265     8.4521763044     8.1662845097
AG     13.1510523744    10.9896615155     8.1706300409
AG     13.1668623385     5.9019377919     8.1462667093
AG     16.1031289707    10.9901033700     8.1694369131
AG     16.0940386234     5.8947079815     8.1698705029
AG     17.5694197051     8.4505487940     8.1700278092
AG     10.2192370137    10.9900770176     8.1727069173
AG     14.6287984377     3.3533530117     8.1683681460
AG     19.0355495841    10.9901156514     8.1697471787
AG     14.6276340310     8.4452027228     8.1717016051
H      12.8766180668     3.7406065933    12.6395010560
O      12.6450004804     3.7483877274    11.6940811516
H      13.7302028229     5.5316745597    11.5886021106
C      12.7703103492     5.1145367100    11.2547966422
H      12.7991677733     5.0725556441    10.1449168903
H      10.7078699192     3.5900026878    11.5825170862
H      11.5817390964     5.9526439644    12.8223375841
C      11.5920015027     5.9723848877    11.7208322859
O       9.9359829325     4.1661603523    11.7847543356
H      10.2899489585     5.3084171065    10.0999505098
O      11.8369221394     7.3223811129    11.2662936195
C      10.2305345566     5.4294936112    11.2252407239
C      10.8484700621     8.2471594324    11.7018469657
O      10.8267746184     8.3294732578    13.1149711529
C       9.0950821346     6.4114285092    11.5273888544
H       8.8832498282     6.3495360207    12.6073047149
H      11.1526887933     9.2227420072    11.2779050153
H       9.8929908617     8.4655020462    13.3685215406
C       9.4751104931     7.8459558995    11.1663584021
O       7.9015793890     6.0320333612    10.8203535045
H       9.4871547121     7.9220997302    10.0506819144
H       7.2267488320     6.6754416527    11.1065693529
O       8.4579569771     8.7216833485    11.6749693142
H       8.5657097373     9.5857717921    11.2274754675
