148
Step 1 | ATOMIC_POSITIONS (angstrom) | Cartesian Angstrom
NI      1.2189535980     0.7037631880     1.5000000000
NI      2.4379071950     2.8150527500     1.5000000000
NI      3.6568607930     4.9263423130     1.5000000000
NI      4.8758143900     7.0376318760     1.5000000000
NI      6.0947679870     9.1489214370     1.5000000000
NI      7.3137215840    11.2602110000     1.5000000000
NI      3.6568607920     0.7037631880     1.5000000000
NI      4.8758143890     2.8150527500     1.5000000000
NI      6.0947679860     4.9263423130     1.5000000000
NI      7.3137215840     7.0376318760     1.5000000000
NI      8.5326751800     9.1489214370     1.5000000000
NI      9.7516287780    11.2602110000     1.5000000000
NI      6.0947679870     0.7037631880     1.5000000000
NI      7.3137215840     2.8150527500     1.5000000000
NI      8.5326751810     4.9263423130     1.5000000000
NI      9.7516287790     7.0376318760     1.5000000000
NI     10.9705823750     9.1489214370     1.5000000000
NI     12.1895359730    11.2602110000     1.5000000000
NI      8.5326751820     0.7037631880     1.5000000000
NI      9.7516287790     2.8150527500     1.5000000000
NI     10.9705823760     4.9263423130     1.5000000000
NI     12.1895359740     7.0376318760     1.5000000000
NI     13.4084895710     9.1489214370     1.5000000000
NI     14.6274431680    11.2602110000     1.5000000000
NI     10.9705823750     0.7037631880     1.5000000000
NI     12.1895359720     2.8150527500     1.5000000000
NI     13.4084895700     4.9263423130     1.5000000000
NI     14.6274431670     7.0376318760     1.5000000000
NI     15.8463967640     9.1489214370     1.5000000000
NI     17.0653503620    11.2602110000     1.5000000000
NI     13.4084895710     0.7037631880     1.5000000000
NI     14.6274431670     2.8150527500     1.5000000000
NI     15.8463967650     4.9263423130     1.5000000000
NI     17.0653503620     7.0376318760     1.5000000000
NI     18.2843039590     9.1489214370     1.5000000000
NI     19.5032575570    11.2602110000     1.5000000000
NI     13.4349127008     7.7566331280     3.4439489659
NI     14.6274213318     9.8221884747     3.4439505713
NI     15.8199784196     7.7566239514     3.4439600999
NI     12.2348545013     9.8265439942     3.4661683833
NI     14.6274729565     5.6824239828     3.4661770736
NI     17.0200731319     9.8265249687     3.4661655290
NI     11.0224416108     7.7489561303     3.4790966781
NI     13.4278417608    11.9153055781     3.4791553445
NI     12.2219965420     5.6712087921     3.4791351424
NI     15.8270432759    11.9153185816     3.4791283938
NI     17.0328711630     5.6712012744     3.4791446542
NI     18.2324760768     7.7489728217     3.4791567397
NI      9.7967469849     9.8347840215     3.5016746377
NI     11.0086532827    11.9338644761     3.5016913191
NI     13.4155168579     3.5668390193     3.5017027373
NI     18.2462502760    11.9338479459     3.5016896505
NI     15.8393486147     3.5668502364     3.5017050104
NI     19.4581253882     9.8347948033     3.5016815906
NI      4.8418896139     5.6496735669     3.5043724757
NI      7.3137354059     1.3683650029     3.5043481244
NI      9.7855469027     5.6496689267     3.5042893640
NI      3.6444029297     3.5435425018     3.5194523705
NI      6.0671284109     7.7398332326     3.5194175502
NI      4.8909771859     1.3843529171     3.5194442315
NI      8.5602899704     7.7398500706     3.5194452052
NI      9.7364471279     1.3843790936     3.5194529221
NI     10.9830606691     3.5435177695     3.5194260422
NI      2.4502814044     1.4146636428     3.5273474228
NI      7.3137047038     9.8384279068     3.5273195340
NI     12.1771863799     1.4146583590     3.5273374300
NI      6.0886748195     3.5152973219     3.5307698636
NI      7.3137518475     5.6371299123     3.5307615369
NI      8.5387586983     3.5153107538     3.5307756779
NI      8.5525207902    11.9524941431     3.5314042537
NI     14.6274366813     1.4304457343     3.5314020729
NI     20.7023509399    11.9525102805     3.5313888309
AG      0.0000126169    -0.0000102219     5.8133388378
AG      5.8730820162     5.0543574457     5.8196186253
AG      7.3137121364     2.5590520095     5.8196086970
AG      8.7544383864     5.0543831679     5.8196457710
AG      1.4590103489     2.4931359315     5.8359135991
AG      5.8841161247    10.1576352785     5.8359021297
AG      2.8886032470     0.0169431871     5.8359307224
AG      8.7433316186    10.1577273295     5.8356442609
AG     11.7388134892     0.0169588761     5.8359184324
AG     13.1684527380     2.4931425661     5.8359316254
AG      4.3866842341     2.5326580126     5.8414210693
AG      7.3136714238     7.6023717112     5.8411256025
AG     10.2407389165     2.5326900582     5.8414313962
AG      2.9606422979     5.0209599366     5.8620325320
AG      4.4457876201     7.5932499591     5.8620338302
AG      5.8286277155     0.0535117640     5.8620383367
AG     10.1817190946     7.5931862661     5.8616762819
AG      8.7988221374     0.0535153270     5.8620617495
AG     11.6667616843     5.0209733973     5.8619170472
AG     11.6430344955    10.1682062660     5.8793543759
AG     14.6273997764     4.9990798666     5.8794307197
AG     17.6118364033    10.1682132617     5.8793994548
AG     13.1283332359     7.5796578922     5.9035634367
AG     14.6274627850    10.1761757592     5.9035847985
AG     16.1265450110     7.5796692887     5.9036023855
AG      5.8495344718     3.3772300910     8.1414213470
AG      7.3131435879     5.9129173786     8.1411141950
AG      8.7777191432     3.3768395147     8.1411632664
AG      4.3957592311     5.9072619834     8.1523096951
AG      7.3137243596     0.8532079345     8.1522907704
AG     10.2172238846     5.9033628801     8.1222761495
AG      1.4530981182     0.8389467487     8.1583630585
AG      7.3135139703    10.9902132390     8.1582695181
AG     13.1743540084     0.8389417721     8.1583887319
AG      2.9185762206     3.3635148571     8.1600472623
AG      5.8597002282     8.4584155215     8.1599800519
AG      4.3721721367     0.8458029016     8.1600627668
AG      8.7668826911     8.4594479436     7.8954451614
AG     10.2552599091     0.8458217494     8.1600840996
AG     11.7090800651     3.3628905676     8.1598168506
AG     11.6863035383     8.4519366099     8.1687254951
AG     13.1517194692    10.9900372874     8.1693218664
AG     13.1644250826     5.8940519740     8.1675422636
AG     16.1031576479    10.9900453763     8.1692834294
AG     16.0935022356     5.8947124589     8.1693048773
AG     17.5692312198     8.4507232277     8.1693068598
AG     10.2197799861    10.9904101053     8.1692736424
AG     14.6274294378     3.3553750409     8.1693520845
AG     19.0353229120    10.9900431340     8.1693534566
AG     14.6274190247     8.4451462097     8.1703896900
H      12.0000428134     6.5194356471     9.8515885578
O      11.3894514568     6.1654050936     9.2297710817
H       9.4526679626     6.6529980195     9.4823199841
C      10.1595691537     5.8904953652     9.8889537867
H       9.7327369579     4.9656954047     9.4304313732
H      12.6141169810     3.7936743923    11.7093325859
H      10.7128678538     6.8648407107    11.7277475246
C      10.2184316568     5.9231342469    11.3970127554
O      12.2646511676     4.6771096344    11.5455719267
H      10.4247280950     3.7304136867    11.6873723855
O       8.8723725596     5.9611164798    11.8331598433
C      10.9141455272     4.6972971751    11.9599487801
C       8.6701008444     6.0004619613    13.2312019569
O       9.0234184683     7.3273332108    13.5408164002
C      10.9096582469     4.7455698233    13.4803533964
H      11.4800556915     5.5974712605    13.9228925431
H       7.5631736701     5.9308011528    13.3182431537
H       9.9255607147     7.3296065300    13.8723611583
C       9.4693379345     4.9204836655    13.9296832501
O      11.3772138024     3.5161093006    14.0020241694
H       8.9077879346     3.9868390816    13.6906517763
H      11.6802531253     3.6718584571    14.9037110520
O       9.3985320357     5.0422929356    15.3355169904
H       8.5127698893     5.3461968327    15.5623176906
O       8.7672409935     8.4584009085     9.4219717217
H       8.7672739937     8.4585285358    10.1639434513
148
Step 2 | ATOMIC_POSITIONS (angstrom) | Cartesian Angstrom
NI      1.2189535980     0.7037631880     1.5000000000
NI      2.4379071950     2.8150527500     1.5000000000
NI      3.6568607930     4.9263423130     1.5000000000
NI      4.8758143900     7.0376318760     1.5000000000
NI      6.0947679870     9.1489214370     1.5000000000
NI      7.3137215840    11.2602110000     1.5000000000
NI      3.6568607920     0.7037631880     1.5000000000
NI      4.8758143890     2.8150527500     1.5000000000
NI      6.0947679860     4.9263423130     1.5000000000
NI      7.3137215840     7.0376318760     1.5000000000
NI      8.5326751800     9.1489214370     1.5000000000
NI      9.7516287780    11.2602110000     1.5000000000
NI      6.0947679870     0.7037631880     1.5000000000
NI      7.3137215840     2.8150527500     1.5000000000
NI      8.5326751810     4.9263423130     1.5000000000
NI      9.7516287790     7.0376318760     1.5000000000
NI     10.9705823750     9.1489214370     1.5000000000
NI     12.1895359730    11.2602110000     1.5000000000
NI      8.5326751820     0.7037631880     1.5000000000
NI      9.7516287790     2.8150527500     1.5000000000
NI     10.9705823760     4.9263423130     1.5000000000
NI     12.1895359740     7.0376318760     1.5000000000
NI     13.4084895710     9.1489214370     1.5000000000
NI     14.6274431680    11.2602110000     1.5000000000
NI     10.9705823750     0.7037631880     1.5000000000
NI     12.1895359720     2.8150527500     1.5000000000
NI     13.4084895700     4.9263423130     1.5000000000
NI     14.6274431670     7.0376318760     1.5000000000
NI     15.8463967640     9.1489214370     1.5000000000
NI     17.0653503620    11.2602110000     1.5000000000
NI     13.4084895710     0.7037631880     1.5000000000
NI     14.6274431670     2.8150527500     1.5000000000
NI     15.8463967650     4.9263423130     1.5000000000
NI     17.0653503620     7.0376318760     1.5000000000
NI     18.2843039590     9.1489214370     1.5000000000
NI     19.5032575570    11.2602110000     1.5000000000
NI     13.4349607744     7.7566528771     3.4441154557
NI     14.6271291105     9.8220234632     3.4442058443
NI     15.8197460578     7.7564745387     3.4442596309
NI     12.2350159881     9.8269008679     3.4663010688
NI     14.6280301462     5.6823045527     3.4662039492
NI     17.0204041201     9.8266663549     3.4661555676
NI     11.0230150698     7.7488475440     3.4781880681
NI     13.4275849837    11.9153039249     3.4794863304
NI     12.2216473506     5.6714377363     3.4791686599
NI     15.8272939993    11.9154672967     3.4791207811
NI     17.0326079118     5.6710306150     3.4793753561
NI     18.2328714684     7.7490557253     3.4794728819
NI      9.7967942268     9.8344565869     3.5011827483
NI     11.0086543677    11.9337907772     3.5019256906
NI     13.4152954404     3.5667189347     3.5019433848
NI     18.2463005367    11.9337153643     3.5017421213
NI     15.8393256295     3.5670766971     3.5021001088
NI     19.4580497868     9.8349609480     3.5018861625
NI      4.8418510933     5.6497825393     3.5048238412
NI      7.3137797338     1.3681284432     3.5045082444
NI      9.7857842298     5.6494823079     3.5033331981
NI      3.6445478331     3.5434839250     3.5196174514
NI      6.0669831740     7.7397787114     3.5191251546
NI      4.8909591608     1.3843752919     3.5194675280
NI      8.5600137555     7.7403886876     3.5191393462
NI      9.7364703588     1.3845133057     3.5197684245
NI     10.9831209366     3.5432736138     3.5190796028
NI      2.4503795189     1.4145924932     3.5274852268
NI      7.3135111999     9.8384252907     3.5267560813
NI     12.1772252717     1.4147365799     3.5274464084
NI      6.0885117438     3.5152845848     3.5310861448
NI      7.3140819764     5.6370348936     3.5309521983
NI      8.5387814731     3.5158050724     3.5313020249
NI      8.5524749089    11.9522215210     3.5318968777
NI     14.6274248335     1.4303842837     3.5315354744
NI     20.7024045726    11.9522771248     3.5315077831
AG      0.0002295367    -0.0002301783     5.8132675425
AG      5.8733472534     5.0546091192     5.8190217086
AG      7.3135320717     2.5591519747     5.8187338295
AG      8.7549932740     5.0551057482     5.8191415874
AG      1.4591367143     2.4932256047     5.8353107299
AG      5.8844872869    10.1573258861     5.8358286500
AG      2.8884160627     0.0165335110     5.8357332665
AG      8.7432097841    10.1625750659     5.8275113514
AG     11.7386218282     0.0168023434     5.8353569868
AG     13.1685395692     2.4934071057     5.8356090913
AG      4.3865084472     2.5326072506     5.8411686052
AG      7.3100753218     7.5999756407     5.8324286530
AG     10.2407195737     2.5332133292     5.8412571922
AG      2.9604399550     5.0208432802     5.8614781021
AG      4.4462343331     7.5933194697     5.8617225512
AG      5.8286987782     0.0533988170     5.8615533166
AG     10.1860966214     7.5903454751     5.8502647971
AG      8.7988130482     0.0534925047     5.8617243597
AG     11.6666382799     5.0209612308     5.8593245584
AG     11.6425973174    10.1678716347     5.8790334899
AG     14.6266802593     4.9993705237     5.8794858990
AG     17.6117119098    10.1682550104     5.8791017833
AG     13.1278818260     7.5796275783     5.9025385204
AG     14.6277313958    10.1763196210     5.9028152122
AG     16.1267342465     7.5798666614     5.9030937481
AG      5.8496035970     3.3772521267     8.1419763293
AG      7.3058968551     5.9101083757     8.1373538650
AG      8.7748429183     3.3706486244     8.1380536068
AG      4.3959083155     5.9072752041     8.1527863868
AG      7.3135669789     0.8532731201     8.1526020793
AG     10.0419942443     5.8591204297     7.7394505601
AG      1.4531626077     0.8387968696     8.1586541706
AG      7.3116839529    10.9931875052     8.1571817122
AG     13.1745289522     0.8388623840     8.1591022881
AG      2.9185682397     3.3634788160     8.1601102896
AG      5.8563977043     8.4584886993     8.1590504742
AG      4.3720824833     0.8457641435     8.1603053140
AG      8.7625953012     8.4677355723     7.7005698598
AG     10.2552822834     0.8460704188     8.1607321222
AG     11.7120828724     3.3537796294     8.1563240445
AG     11.6926235967     8.4695454171     8.1602142119
AG     13.1515857242    10.9899026744     8.1699208195
AG     13.2101773009     5.8836703356     8.1403974845
AG     16.1032355535    10.9899895346     8.1692847217
AG     16.0933327691     5.8947585844     8.1696578233
AG     17.5692963737     8.4507778044     8.1695400178
AG     10.2213985039    10.9932348707     8.1683752282
AG     14.6271893834     3.3550365225     8.1696999654
AG     19.0354881692    10.9900060853     8.1696004992
AG     14.6270034003     8.4450560186     8.1710601542
H      12.0243618120     6.5342180962     9.8799099097
O      11.5546435968     6.2038597297     9.4264753910
H       9.4392434477     6.6684037326     9.5214039419
C      10.1264776869     5.8940701792    10.0193446864
H       9.7264048321     4.9363049316     9.4695256056
H      12.6173341244     3.7892639063    11.7102706596
H      10.7168826235     6.8623737914    11.7259800257
C      10.2168603851     5.9192950686    11.3987915300
O      12.2705063779     4.6840400366    11.5333933459
H      10.4221078175     3.7383145038    11.6842574130
O       8.8622491331     5.9427557996    11.8130072910
C      10.9238303537     4.6888315826    11.9752389614
C       8.6745746321     6.0205334024    13.2141448448
O       9.0179283037     7.3341751695    13.5585152664
C      10.8937321702     4.7537684123    13.4919632335
H      11.4823502256     5.5948366799    13.9150238164
H       7.5690071508     5.9278522823    13.3223633762
H       9.9318834531     7.3321793172    13.8779962878
C       9.4458939165     4.9058729438    13.9313490898
O      11.3838268409     3.5117537849    13.9956868807
H       8.9134204975     3.9870094067    13.6856054716
H      11.6809093551     3.6710699796    14.9085464538
O       9.4091654254     5.0469011733    15.3440138869
H       8.5081766643     5.3475405024    15.5660211303
O       8.7688406922     8.4580597768     9.2739074293
H       8.7647063910     8.4612045823    10.5403723406
148
Step 3 | ATOMIC_POSITIONS (angstrom) | Cartesian Angstrom
NI      1.2189535980     0.7037631880     1.5000000000
NI      2.4379071950     2.8150527500     1.5000000000
NI      3.6568607930     4.9263423130     1.5000000000
NI      4.8758143900     7.0376318760     1.5000000000
NI      6.0947679870     9.1489214370     1.5000000000
NI      7.3137215840    11.2602110000     1.5000000000
NI      3.6568607920     0.7037631880     1.5000000000
NI      4.8758143890     2.8150527500     1.5000000000
NI      6.0947679860     4.9263423130     1.5000000000
NI      7.3137215840     7.0376318760     1.5000000000
NI      8.5326751800     9.1489214370     1.5000000000
NI      9.7516287780    11.2602110000     1.5000000000
NI      6.0947679870     0.7037631880     1.5000000000
NI      7.3137215840     2.8150527500     1.5000000000
NI      8.5326751810     4.9263423130     1.5000000000
NI      9.7516287790     7.0376318760     1.5000000000
NI     10.9705823750     9.1489214370     1.5000000000
NI     12.1895359730    11.2602110000     1.5000000000
NI      8.5326751820     0.7037631880     1.5000000000
NI      9.7516287790     2.8150527500     1.5000000000
NI     10.9705823760     4.9263423130     1.5000000000
NI     12.1895359740     7.0376318760     1.5000000000
NI     13.4084895710     9.1489214370     1.5000000000
NI     14.6274431680    11.2602110000     1.5000000000
NI     10.9705823750     0.7037631880     1.5000000000
NI     12.1895359720     2.8150527500     1.5000000000
NI     13.4084895700     4.9263423130     1.5000000000
NI     14.6274431670     7.0376318760     1.5000000000
NI     15.8463967640     9.1489214370     1.5000000000
NI     17.0653503620    11.2602110000     1.5000000000
NI     13.4084895710     0.7037631880     1.5000000000
NI     14.6274431670     2.8150527500     1.5000000000
NI     15.8463967650     4.9263423130     1.5000000000
NI     17.0653503620     7.0376318760     1.5000000000
NI     18.2843039590     9.1489214370     1.5000000000
NI     19.5032575570    11.2602110000     1.5000000000
NI     13.4351225612     7.7566615972     3.4440054532
NI     14.6267960013     9.8218267273     3.4444920938
NI     15.8195026980     7.7563009193     3.4446184956
NI     12.2351500732     9.8271978998     3.4664890597
NI     14.6285087519     5.6821696851     3.4661651562
NI     17.0208236056     9.8267903003     3.4660512714
NI     11.0241949572     7.7487851517     3.4757921656
NI     13.4272685198    11.9153012337     3.4798631744
NI     12.2214590021     5.6718445127     3.4785394125
NI     15.8275706171    11.9155839103     3.4790637748
NI     17.0322962454     5.6707864176     3.4796641110
NI     18.2332124170     7.7491657362     3.4798861859
NI      9.7971011629     9.8338815950     3.5003218790
NI     11.0086757717    11.9336565133     3.5022716084
NI     13.4149375452     3.5667508718     3.5021826585
NI     18.2464497484    11.9335241062     3.5017786614
NI     15.8393329730     3.5674183342     3.5026582944
NI     19.4579791222     9.8352554006     3.5021647552
NI      4.8419445926     5.6498509290     3.5053008069
NI      7.3139006812     1.3679524886     3.5045254668
NI      9.7860405389     5.6492718377     3.5018442192
NI      3.6446493294     3.5433931607     3.5197807159
NI      6.0666513389     7.7396276263     3.5185747548
NI      4.8908322408     1.3843135661     3.5194716993
NI      8.5598237151     7.7409670059     3.5184445194
NI      9.7365040803     1.3847592064     3.5202951896
NI     10.9831667672     3.5429805164     3.5184312233
NI      2.4505308467     1.4145347298     3.5276529640
NI      7.3131718480     9.8383848436     3.5259090449
NI     12.1773269095     1.4148479765     3.5276150090
NI      6.0884372065     3.5153571587     3.5316066782
NI      7.3143907600     5.6369398886     3.5310086750
NI      8.5387991902     3.5163708231     3.5319953210
NI      8.5524225338    11.9518050995     3.5324952458
NI     14.6274053435     1.4302847059     3.5318066904
NI     20.7024457536    11.9519668446     3.5316212563
AG      0.0004966973    -0.0003658354     5.8131581697
AG      5.8735213729     5.0549109236     5.8180986767
AG      7.3131617836     2.5591247051     5.8173369902
AG      8.7398760658     5.0456178384     5.7939685265
AG      1.4593182257     2.4932870333     5.8344289144
AG      5.8848160352    10.1570050219     5.8356983924
AG      2.8881650541     0.0161109774     5.8353838695
AG      8.7428508185    10.1799463347     5.8063510283
AG     11.7383736283     0.0165759417     5.8345565945
AG     13.1686580418     2.4937712067     5.8351643374
AG      4.3862796057     2.5325520839     5.8408415435
AG      7.2958108480     7.5917390405     5.8100855937
AG     10.2407850737     2.5335680396     5.8407489424
AG      2.9602274576     5.0206595304     5.8608098052
AG      4.4467868267     7.5933869956     5.8613523180
AG      5.8287642067     0.0532520416     5.8609291644
AG     10.2033751709     7.5913845163     5.8137194671
AG      8.7988188497     0.0535004315     5.8614417346
AG     11.6738114060     5.0175261434     5.8498061062
AG     11.6422727262    10.1674937000     5.8785379071
AG     14.6259279942     4.9996024751     5.8790832527
AG     17.6115363903    10.1683288683     5.8786617624
AG     13.1269289102     7.5796215766     5.9012764705
AG     14.6279937392    10.1765286117     5.9018036746
AG     16.1269791771     7.5800969919     5.9024199332
AG      5.8496838004     3.3772724376     8.1428958665
AG      7.2911587220     5.9060868476     8.1335584134
AG      8.7701995648     3.3603497648     8.1348418895
AG      4.3958983190     5.9073174839     8.1533585399
AG      7.3133741713     0.8532035923     8.1529738794
AG      9.9388063477     5.8302167602     7.4949385923
AG      1.4532122467     0.8386372657     8.1590167947
AG      7.3089903750    10.9976770044     8.1555707878
AG     13.1747710024     0.8387256723     8.1601871827
AG      2.9185496330     3.3634711574     8.1602180078
AG      5.8514070049     8.4585598448     8.1578315908
AG      4.3720097286     0.8457563306     8.1606964257
AG      8.7555518439     8.4800794515     7.6068964428
AG     10.2552786155     0.8462822594     8.1616787669
AG     11.7154371825     3.3436644305     8.1517265243
AG     11.6996095834     8.4886005478     8.1490497347
AG     13.1514905533    10.9897867678     8.1707917537
AG     13.2627177106     5.8683083161     8.1022920844
AG     16.1033073164    10.9899475797     8.1692565431
AG     16.0938145658     5.8948960164     8.1702642470
AG     17.5692980071     8.4507763795     8.1699632127
AG     10.2237919205    10.9976931650     8.1672883084
AG     14.6273010891     3.3540386321     8.1702052266
AG     19.0357099497    10.9899910254     8.1699081431
AG     14.6270004489     8.4452861798     8.1719069474
H      12.2833265512     6.7212707107    10.1576991038
O      11.3783703715     6.0509784419     9.3311624120
H       9.4402014524     6.6785246862     9.5681994838
C      10.1126478309     5.9020823891    10.0346268570
H       9.7362631217     4.9214849831     9.5168479256
H      12.6209421449     3.7891597943    11.7109403897
H      10.7209549353     6.8578945910    11.7257136521
C      10.2159117737     5.9134890117    11.4476381963
O      12.2796797494     4.6843698349    11.5215610286
H      10.4185928099     3.7490443648    11.6800661870
O       8.8445515337     5.9185966567    11.7961095879
C      10.9365852740     4.6828489944    11.9946431011
C       8.6745651887     6.0414659126    13.1938675184
O       9.0143525538     7.3429480390    13.5832535694
C      10.8734528844     4.7579190119    13.5053884548
H      11.4848661562     5.5923733162    13.9047604322
H       7.5785811138     5.9252915764    13.3273768015
H       9.9381061701     7.3364116956    13.8850691965
C       9.4223308090     4.8978610759    13.9346438547
O      11.3944287388     3.5092997592    13.9925291045
H       8.9163245344     3.9806672062    13.6771855153
H      11.6802214699     3.6681731286    14.9111780858
O       9.4151756086     5.0556778783    15.3545079649
H       8.5075512581     5.3473891246    15.5717674541
O       8.7713917845     8.4569591206     9.2402521749
H       8.7618553490     8.4643224335    10.7483627123
