146
Step 1 | ATOMIC_POSITIONS (angstrom) | Cartesian Angstrom
NI      1.2189535980     0.7037631880     1.5000000000
NI      2.4379071950     2.8150527500     1.5000000000
NI      3.6568607930     4.9263423130     1.5000000000
NI      4.8758143900     7.0376318760     1.5000000000
NI      6.0947679870     9.1489214370     1.5000000000
NI      7.3137215840    11.2602110000     1.5000000000
NI      3.6568607920     0.7037631880     1.5000000000
NI      4.8758143890     2.8150527500     1.5000000000
NI      6.0947679860     4.9263423130     1.5000000000
NI      7.3137215840     7.0376318760     1.5000000000
NI      8.5326751800     9.1489214370     1.5000000000
NI      9.7516287780    11.2602110000     1.5000000000
NI      6.0947679870     0.7037631880     1.5000000000
NI      7.3137215840     2.8150527500     1.5000000000
NI      8.5326751810     4.9263423130     1.5000000000
NI      9.7516287790     7.0376318760     1.5000000000
NI     10.9705823750     9.1489214370     1.5000000000
NI     12.1895359730    11.2602110000     1.5000000000
NI      8.5326751820     0.7037631880     1.5000000000
NI      9.7516287790     2.8150527500     1.5000000000
NI     10.9705823760     4.9263423130     1.5000000000
NI     12.1895359740     7.0376318760     1.5000000000
NI     13.4084895710     9.1489214370     1.5000000000
NI     14.6274431680    11.2602110000     1.5000000000
NI     10.9705823750     0.7037631880     1.5000000000
NI     12.1895359720     2.8150527500     1.5000000000
NI     13.4084895700     4.9263423130     1.5000000000
NI     14.6274431670     7.0376318760     1.5000000000
NI     15.8463967640     9.1489214370     1.5000000000
NI     17.0653503620    11.2602110000     1.5000000000
NI     13.4084895710     0.7037631880     1.5000000000
NI     14.6274431670     2.8150527500     1.5000000000
NI     15.8463967650     4.9263423130     1.5000000000
NI     17.0653503620     7.0376318760     1.5000000000
NI     18.2843039590     9.1489214370     1.5000000000
NI     19.5032575570    11.2602110000     1.5000000000
NI     13.4348374482     7.7566170250     3.4439134502
NI     14.6274304152     9.8222147791     3.4439138739
NI     15.8200112349     7.7566478842     3.4439004007
NI     12.2348510864     9.8265198381     3.4661512034
NI     14.6273984297     5.6824433303     3.4661954765
NI     17.0199861141     9.8264908175     3.4661711227
NI     11.0224305558     7.7489865865     3.4791649075
NI     13.4278369713    11.9152438369     3.4791157625
NI     12.2220159564     5.6712402076     3.4792276763
NI     15.8269889790    11.9152862620     3.4791191372
NI     17.0328773404     5.6712540301     3.4791204983
NI     18.2324123938     7.7489551206     3.4791275706
NI      9.7967839331     9.8347511798     3.5016872104
NI     11.0086945025    11.9338489721     3.5016424507
NI     13.4155182511     3.5668710384     3.5017405423
NI     18.2462011565    11.9338651137     3.5016833894
NI     15.8393702545     3.5668492977     3.5016536164
NI     19.4581197441     9.8347515026     3.5016870908
NI      4.8419043407     5.6496931995     3.5043276236
NI      7.3137385289     1.3683876845     3.5043451526
NI      9.7855409628     5.6496692846     3.5041995682
NI      3.6443444614     3.5435375564     3.5194266613
NI      6.0671603355     7.7398053399     3.5194242263
NI      4.8909696450     1.3843094725     3.5194210465
NI      8.5603417179     7.7398315394     3.5194210117
NI      9.7364409076     1.3844058866     3.5194472128
NI     10.9830091137     3.5435483802     3.5193356405
NI      2.4503152325     1.4146690415     3.5273063939
NI      7.3137551418     9.8383744818     3.5273117866
NI     12.1771170989     1.4147176594     3.5273164078
NI      6.0887230651     3.5152844436     3.5307404911
NI      7.3137725092     5.6371354914     3.5307883355
NI      8.5388053611     3.5153109319     3.5306514415
NI      8.5525639530    11.9525031240     3.5313797814
NI     14.6274675995     1.4304573048     3.5313800549
NI     20.7023667190    11.9524876074     3.5313936888
AG     -0.0000060525     0.0000107111     5.8134243281
AG      5.8730575840     5.0543271238     5.8196996598
AG      7.3137530929     2.5590654287     5.8197745745
AG      8.7545222184     5.0543244887     5.8199010147
AG      1.4589782191     2.4931207843     5.8360107719
AG      5.8841223320    10.1576434087     5.8360216472
AG      2.8886138462     0.0169622341     5.8360180503
AG      8.7433426909    10.1576562281     5.8359621687
AG     11.7388243564     0.0169735142     5.8360166254
AG     13.1684598914     2.4930792594     5.8359034691
AG      4.3867127791     2.5326507024     5.8414893040
AG      7.3137205513     7.6024123150     5.8414842644
AG     10.2407003226     2.5327642606     5.8416450722
AG      2.9606627012     5.0209710542     5.8621363159
AG      4.4457635969     7.5932538636     5.8621155387
AG      5.8286231394     0.0535278621     5.8621272845
AG     10.1816590702     7.5931047232     5.8621651986
AG      8.7988307149     0.0535129366     5.8621411529
AG     11.6665576176     5.0209689622     5.8620638474
AG     11.6430253288    10.1682233472     5.8794435376
AG     14.6275458030     4.9990552846     5.8792792035
AG     17.6118460268    10.1682136996     5.8794889430
AG     13.1283856766     7.5797546162     5.9035545912
AG     14.6274485477    10.1761731730     5.9037394927
AG     16.1265393351     7.5796694640     5.9037082727
AG      5.8495623826     3.3772666032     8.1414342473
AG      7.3137738156     5.9133170258     8.1415060880
AG      8.7779996468     3.3773021275     8.1417190244
AG      4.3957757082     5.9072621778     8.1523021815
AG      7.3137273712     0.8532099010     8.1523150453
AG     10.2318038563     5.9069277039     8.1536792827
AG      1.4530965322     0.8389570172     8.1583214159
AG      7.3137314391    10.9898260695     8.1583400050
AG     13.1743126166     0.8390011782     8.1584293005
AG      2.9185766294     3.3635124387     8.1600288809
AG      5.8601585161     8.4583976878     8.1600915673
AG      4.3721850982     0.8458122172     8.1600404973
AG      8.7674074804     8.4582776424     8.1603340720
AG     10.2552822499     0.8458643866     8.1601016613
AG     11.7089480781     3.3635375616     8.1602173610
AG     11.6856144998     8.4505074714     8.1697193543
AG     13.1517187566    10.9900279580     8.1692925015
AG     13.1612562885     5.8946657995     8.1697366727
AG     16.1031536286    10.9900430247     8.1692905262
AG     16.0934679328     5.8947013943     8.1693519422
AG     17.5692325865     8.4507145603     8.1692860626
AG     10.2195754956    10.9899976633     8.1693820394
AG     14.6272857613     3.3554944667     8.1696006166
AG     19.0353144902    10.9900423426     8.1693305831
AG     14.6273690592     8.4451027817     8.1704457170
H      11.5535494912     5.0015974778    11.1690761519
O      10.6192899489     4.8604642883    11.3965259701
H      10.5513779247     6.9123612664    11.6829031112
C      10.2122795093     6.0027954732    12.1862557249
H       9.1164313525     6.0201914314    12.1906691906
H      10.5382780466     3.5096668664    12.7865639861
H      11.8596961642     5.8786351444    13.5470477226
C      10.7574512069     5.9144317066    13.6112613295
O      10.8021721722     3.4778345090    13.7348830379
H       9.1556461846     4.5896346381    14.2786969802
O      10.3618456207     7.1233223905    14.2974030513
C      10.2631415927     4.6486690140    14.3415149748
C      10.8574589895     7.1957091973    15.6243062072
O      12.2772191015     7.2416035765    15.6386751403
C      10.6542076573     4.6791879104    15.8299985072
H      11.7387984589     4.4665522338    15.9129206565
H      10.4988024017     8.1478547604    16.0471133021
H      12.5616809024     6.7348522467    16.4237298311
C      10.3282458612     6.0319273927    16.4623917300
O       9.9721130997     3.6518092909    16.5460371895
H       9.2320060458     6.1077867234    16.5806376105
H      10.3120054407     3.7055369426    17.4601238340
O      10.9139593885     6.0578609566    17.7862223105
H      10.5165998699     6.8092578721    18.2617250336
146
Step 2 | ATOMIC_POSITIONS (angstrom) | Cartesian Angstrom
NI      1.2189535980     0.7037631880     1.5000000000
NI      2.4379071950     2.8150527500     1.5000000000
NI      3.6568607930     4.9263423130     1.5000000000
NI      4.8758143900     7.0376318760     1.5000000000
NI      6.0947679870     9.1489214370     1.5000000000
NI      7.3137215840    11.2602110000     1.5000000000
NI      3.6568607920     0.7037631880     1.5000000000
NI      4.8758143890     2.8150527500     1.5000000000
NI      6.0947679860     4.9263423130     1.5000000000
NI      7.3137215840     7.0376318760     1.5000000000
NI      8.5326751800     9.1489214370     1.5000000000
NI      9.7516287780    11.2602110000     1.5000000000
NI      6.0947679870     0.7037631880     1.5000000000
NI      7.3137215840     2.8150527500     1.5000000000
NI      8.5326751810     4.9263423130     1.5000000000
NI      9.7516287790     7.0376318760     1.5000000000
NI     10.9705823750     9.1489214370     1.5000000000
NI     12.1895359730    11.2602110000     1.5000000000
NI      8.5326751820     0.7037631880     1.5000000000
NI      9.7516287790     2.8150527500     1.5000000000
NI     10.9705823760     4.9263423130     1.5000000000
NI     12.1895359740     7.0376318760     1.5000000000
NI     13.4084895710     9.1489214370     1.5000000000
NI     14.6274431680    11.2602110000     1.5000000000
NI     10.9705823750     0.7037631880     1.5000000000
NI     12.1895359720     2.8150527500     1.5000000000
NI     13.4084895700     4.9263423130     1.5000000000
NI     14.6274431670     7.0376318760     1.5000000000
NI     15.8463967640     9.1489214370     1.5000000000
NI     17.0653503620    11.2602110000     1.5000000000
NI     13.4084895710     0.7037631880     1.5000000000
NI     14.6274431670     2.8150527500     1.5000000000
NI     15.8463967650     4.9263423130     1.5000000000
NI     17.0653503620     7.0376318760     1.5000000000
NI     18.2843039590     9.1489214370     1.5000000000
NI     19.5032575570    11.2602110000     1.5000000000
NI     13.4347959435     7.7566052231     3.4438455874
NI     14.6274391530     9.8222330486     3.4438855528
NI     15.8200537191     7.7566736974     3.4438368067
NI     12.2348689876     9.8265259776     3.4661400226
NI     14.6273695529     5.6824741633     3.4662095844
NI     17.0199225519     9.8264403706     3.4661963102
NI     11.0224397524     7.7490386929     3.4792408664
NI     13.4278266282    11.9151628556     3.4791267514
NI     12.2220432380     5.6712812793     3.4793812980
NI     15.8269345350    11.9152481877     3.4791315807
NI     17.0328912534     5.6713203592     3.4791149223
NI     18.2323277196     7.7489533959     3.4791462464
NI      9.7968244933     9.8347267590     3.5017299448
NI     11.0087561498    11.9338558846     3.5016216464
NI     13.4155100449     3.5668957227     3.5018318598
NI     18.2461570707    11.9338536457     3.5017125488
NI     15.8394295216     3.5668559151     3.5016137752
NI     19.4580782817     9.8347147330     3.5017273131
NI      4.8418794789     5.6497121884     3.5043243695
NI      7.3137511217     1.3684017564     3.5043852374
NI      9.7855293089     5.6496524581     3.5039715780
NI      3.6442752289     3.5435522825     3.5194325435
NI      6.0671901912     7.7397719423     3.5194336794
NI      4.8909403433     1.3842384366     3.5194321108
NI      8.5603544829     7.7398415945     3.5194248873
NI      9.7364236450     1.3844425522     3.5195036388
NI     10.9829434163     3.5435425746     3.5191770879
NI      2.4503725158     1.4146824854     3.5273027564
NI      7.3137799356     9.8383465595     3.5273170666
NI     12.1770540672     1.4147605319     3.5273079449
NI      6.0887644039     3.5152576740     3.5307765873
NI      7.3138291925     5.6371353643     3.5309137309
NI      8.5388492212     3.5153224533     3.5305364538
NI      8.5525920885    11.9525008850     3.5314055146
NI     14.6275102474     1.4304439151     3.5313845981
NI     20.7023781830    11.9524407152     3.5314317282
AG     -0.0000166248     0.0000207678     5.8134919330
AG      5.8730502029     5.0543010746     5.8197132258
AG      7.3138113018     2.5590962454     5.8199274893
AG      8.7547842129     5.0543034714     5.8203045826
AG      1.4589389184     2.4931070896     5.8360676379
AG      5.8841405040    10.1576471273     5.8360924842
AG      2.8886158676     0.0169485966     5.8360864325
AG      8.7433567754    10.1576805445     5.8359440683
AG     11.7388151268     0.0169710750     5.8360787541
AG     13.1684978039     2.4929900443     5.8357895142
AG      4.3867392909     2.5326330315     5.8415166663
AG      7.3137159890     7.6024154019     5.8415174794
AG     10.2406174916     2.5329390988     5.8419624436
AG      2.9606794773     5.0209764547     5.8621985849
AG      4.4457669726     7.5932716470     5.8621443437
AG      5.8286372469     0.0535428006     5.8621796631
AG     10.1816218582     7.5928156328     5.8623604202
AG      8.7988421777     0.0534962911     5.8622169062
AG     11.6661381002     5.0209872537     5.8620828233
AG     11.6430011135    10.1682509753     5.8794470749
AG     14.6277220269     4.9990343313     5.8790189941
AG     17.6118471800    10.1682260830     5.8795458996
AG     13.1284375628     7.5799202782     5.9034009359
AG     14.6274663184    10.1762022659     5.9038551480
AG     16.1265608721     7.5796966280     5.9037689048
AG      5.8496068946     3.3773303522     8.1415466747
AG      7.3138574293     5.9134007082     8.1417417558
AG      8.7781492188     3.3774093701     8.1423406781
AG      4.3958072167     5.9072599410     8.1523700197
AG      7.3137371967     0.8532154580     8.1524109039
AG     10.2320227272     5.9063284675     8.1562654278
AG      1.4530892246     0.8389730515     8.1583012919
AG      7.3137519179    10.9897936235     8.1583484010
AG     13.1742631017     0.8390892033     8.1586049020
AG      2.9185746177     3.3635046723     8.1600163873
AG      5.8602281626     8.4583667149     8.1601882579
AG      4.3721965058     0.8458253272     8.1600479594
AG      8.7675612386     8.4580299035     8.1608665888
AG     10.2553145938     0.8459620494     8.1602234149
AG     11.7091110006     3.3635511261     8.1605228484
AG     11.6855384170     8.4501272364     8.1705069053
AG     13.1516879816    10.9900080830     8.1693283475
AG     13.1610779799     5.8945900491     8.1705222908
AG     16.1031580939    10.9900510526     8.1693225139
AG     16.0933784141     5.8946750847     8.1694933361
AG     17.5692449759     8.4507055446     8.1693064578
AG     10.2195748075    10.9899131730     8.1694875118
AG     14.6270101021     3.3556820316     8.1700899009
AG     19.0353253194    10.9900408712     8.1693409866
AG     14.6272354544     8.4450049844     8.1706672019
H      11.5561282749     4.9958936827    11.1656836674
O      10.6125940393     4.8618944096    11.3880877916
H      10.5539031386     6.9247405368    11.6869170973
C      10.2097914742     6.0094740627    12.1873387518
H       9.1123896477     6.0149429620    12.1905166959
H      10.5459349012     3.5124398660    12.7951170485
H      11.8629415607     5.8757825363    13.5520484957
C      10.7605536606     5.9116359629    13.6124707692
O      10.8056894846     3.4721417795    13.7407132230
H       9.1526217816     4.5999904873    14.2838952635
O      10.3630411420     7.1270597513    14.3019336861
C      10.2603783529     4.6407270660    14.3460887866
C      10.8600219781     7.1998618306    15.6269880868
O      12.2793195012     7.2341091403    15.6340042730
C      10.6546903179     4.6706532113    15.8360807730
H      11.7432549096     4.4774787009    15.9037193314
H      10.4856688996     8.1552532993    16.0361562505
H      12.5637638622     6.7367691250    16.4240722146
C      10.3264811091     6.0314484113    16.4585536229
O       9.9667888239     3.6461923566    16.5465271759
H       9.2315394360     6.1093008930    16.5691320403
H      10.3068741638     3.7027534452    17.4560578037
O      10.9199930624     6.0553831749    17.7829052401
H      10.5196136969     6.8045515241    18.2637540705
146
Step 3 | ATOMIC_POSITIONS (angstrom) | Cartesian Angstrom
NI      1.2189535980     0.7037631880     1.5000000000
NI      2.4379071950     2.8150527500     1.5000000000
NI      3.6568607930     4.9263423130     1.5000000000
NI      4.8758143900     7.0376318760     1.5000000000
NI      6.0947679870     9.1489214370     1.5000000000
NI      7.3137215840    11.2602110000     1.5000000000
NI      3.6568607920     0.7037631880     1.5000000000
NI      4.8758143890     2.8150527500     1.5000000000
NI      6.0947679860     4.9263423130     1.5000000000
NI      7.3137215840     7.0376318760     1.5000000000
NI      8.5326751800     9.1489214370     1.5000000000
NI      9.7516287780    11.2602110000     1.5000000000
NI      6.0947679870     0.7037631880     1.5000000000
NI      7.3137215840     2.8150527500     1.5000000000
NI      8.5326751810     4.9263423130     1.5000000000
NI      9.7516287790     7.0376318760     1.5000000000
NI     10.9705823750     9.1489214370     1.5000000000
NI     12.1895359730    11.2602110000     1.5000000000
NI      8.5326751820     0.7037631880     1.5000000000
NI      9.7516287790     2.8150527500     1.5000000000
NI     10.9705823760     4.9263423130     1.5000000000
NI     12.1895359740     7.0376318760     1.5000000000
NI     13.4084895710     9.1489214370     1.5000000000
NI     14.6274431680    11.2602110000     1.5000000000
NI     10.9705823750     0.7037631880     1.5000000000
NI     12.1895359720     2.8150527500     1.5000000000
NI     13.4084895700     4.9263423130     1.5000000000
NI     14.6274431670     7.0376318760     1.5000000000
NI     15.8463967640     9.1489214370     1.5000000000
NI     17.0653503620    11.2602110000     1.5000000000
NI     13.4084895710     0.7037631880     1.5000000000
NI     14.6274431670     2.8150527500     1.5000000000
NI     15.8463967650     4.9263423130     1.5000000000
NI     17.0653503620     7.0376318760     1.5000000000
NI     18.2843039590     9.1489214370     1.5000000000
NI     19.5032575570    11.2602110000     1.5000000000
NI     13.4347424764     7.7565757041     3.4437706446
NI     14.6274557537     9.8222392823     3.4439038322
NI     15.8200838122     7.7567033522     3.4437975086
NI     12.2348918654     9.8265121954     3.4661710495
NI     14.6273171590     5.6825173954     3.4662432554
NI     17.0198534473     9.8264014031     3.4662602737
NI     11.0224353845     7.7490968872     3.4794430312
NI     13.4278260274    11.9150615702     3.4791853005
NI     12.2220825147     5.6713281238     3.4796911147
NI     15.8268942813    11.9152161194     3.4791767936
NI     17.0329070795     5.6713887942     3.4791493512
NI     18.2322316774     7.7489633189     3.4792020256
NI      9.7968592775     9.8346968193     3.5018216685
NI     11.0088030852    11.9338843181     3.5016134738
NI     13.4155029327     3.5669086023     3.5020053142
NI     18.2461193265    11.9338528558     3.5017493725
NI     15.8395004585     3.5668312784     3.5015755432
NI     19.4580309644     9.8346957246     3.5017846777
NI      4.8418878725     5.6497114311     3.5043218292
NI      7.3137841446     1.3684666953     3.5044695816
NI      9.7854642524     5.6496059564     3.5036685481
NI      3.6441912757     3.5435691958     3.5194480194
NI      6.0672515264     7.7397100617     3.5194450065
NI      4.8908986668     1.3841735689     3.5194566173
NI      8.5603592240     7.7398355693     3.5194592794
NI      9.7364184408     1.3845071665     3.5196257697
NI     10.9828374774     3.5435031515     3.5189865263
NI      2.4504201305     1.4147046067     3.5272952081
NI      7.3137968019     9.8383305558     3.5273155125
NI     12.1769758667     1.4147937438     3.5272951308
NI      6.0888443891     3.5152348228     3.5308261672
NI      7.3139249330     5.6371036170     3.5311290275
NI      8.5388905682     3.5153600587     3.5303744510
NI      8.5525919753    11.9525237811     3.5314322973
NI     14.6275582456     1.4304020984     3.5313809269
NI     20.7023887809    11.9523923133     3.5314662917
AG     -0.0000455452     0.0000416577     5.8135905794
AG      5.8730667591     5.0542581571     5.8197328804
AG      7.3139375464     2.5591701242     5.8201913788
AG      8.7552645531     5.0542977369     5.8210386991
AG      1.4588493237     2.4930961498     5.8361655537
AG      5.8841721985    10.1576548917     5.8361897079
AG      2.8886136101     0.0169237585     5.8361848446
AG      8.7433840963    10.1576893743     5.8359319191
AG     11.7387961237     0.0169860382     5.8361689813
AG     13.1685538483     2.4928569574     5.8356226382
AG      4.3867875199     2.5326116981     5.8415471433
AG      7.3137316677     7.6024125566     5.8415878871
AG     10.2404806162     2.5332327380     5.8424854363
AG      2.9607030029     5.0209881097     5.8622952890
AG      4.4457777697     7.5933009292     5.8621840631
AG      5.8286712681     0.0535695523     5.8622562947
AG     10.1815771973     7.5922258421     5.8628452889
AG      8.7988763555     0.0534833158     5.8623339071
AG     11.6654021513     5.0210724285     5.8622436227
AG     11.6429524219    10.1682477275     5.8794898434
AG     14.6279709386     4.9989875809     5.8786706862
AG     17.6118499959    10.1682511469     5.8796208926
AG     13.1284970071     7.5801641574     5.9032418675
AG     14.6274964003    10.1762366124     5.9040334240
AG     16.1265795386     7.5797402022     5.9038651807
AG      5.8496982130     3.3774477427     8.1417367223
AG      7.3140140608     5.9135387614     8.1421402330
AG      8.7783944880     3.3775824358     8.1434389721
AG      4.3958621388     5.9072547944     8.1524784354
AG      7.3137618756     0.8532361757     8.1525737405
AG     10.2324093471     5.9052818406     8.1607924105
AG      1.4530617812     0.8390142955     8.1582579849
AG      7.3137947737    10.9897319434     8.1583530436
AG     13.1741808984     0.8392461542     8.1588868051
AG      2.9185525995     3.3634934872     8.1599839118
AG      5.8603587955     8.4583094769     8.1603483672
AG      4.3722154741     0.8458486513     8.1600563326
AG      8.7678406380     8.4575815966     8.1617567706
AG     10.2553699541     0.8461351068     8.1604280650
AG     11.7094055929     3.3635609737     8.1610445577
AG     11.6854126127     8.4494580660     8.1718072096
AG     13.1516216097    10.9899532623     8.1693841372
AG     13.1607837596     5.8944682279     8.1718056112
AG     16.1031657136    10.9900644505     8.1693765251
AG     16.0932030186     5.8946244576     8.1697142596
AG     17.5692591476     8.4506846748     8.1693361902
AG     10.2195759870    10.9897427839     8.1696583602
AG     14.6265394188     3.3560170778     8.1708885305
AG     19.0353459531    10.9900464905     8.1693526935
AG     14.6269890787     8.4448214373     8.1710301599
H      11.5511751940     4.9849345429    11.1620123912
O      10.6088921918     4.8721826973    11.3758807388
H      10.5557522291     6.9420223880    11.6960965830
C      10.2090474334     6.0151941263    12.1851485689
H       9.1074453510     6.0079608767    12.1907994031
H      10.5589601687     3.5158546231    12.8053291102
H      11.8672035393     5.8708970552    13.5602932632
C      10.7627234873     5.9095771911    13.6189745732
O      10.8095129783     3.4636574468    13.7536491036
H       9.1486778242     4.6149239482    14.2924262005
O      10.3667570761     7.1263793574    14.3027449266
C      10.2580572447     4.6346087671    14.3542409253
C      10.8613026918     7.2046831424    15.6277109666
O      12.2813217038     7.2241487564    15.6266278061
C      10.6542611217     4.6644966164    15.8350748517
H      11.7492968092     4.4931483254    15.8906910465
H      10.4674481150     8.1648813943    16.0189635888
H      12.5676089694     6.7398085214    16.4260477218
C      10.3271341422     6.0292025380    16.4577937041
O       9.9596898942     3.6377726575    16.5439481805
H       9.2302576400     6.1121710497    16.5507258476
H      10.2987470822     3.6964204835    17.4560306209
O      10.9258138113     6.0536989135    17.7770046372
H      10.5264694808     6.7936392727    18.2659199315
146
Step 4 | ATOMIC_POSITIONS (angstrom) | Cartesian Angstrom
NI      1.2189535980     0.7037631880     1.5000000000
NI      2.4379071950     2.8150527500     1.5000000000
NI      3.6568607930     4.9263423130     1.5000000000
NI      4.8758143900     7.0376318760     1.5000000000
NI      6.0947679870     9.1489214370     1.5000000000
NI      7.3137215840    11.2602110000     1.5000000000
NI      3.6568607920     0.7037631880     1.5000000000
NI      4.8758143890     2.8150527500     1.5000000000
NI      6.0947679860     4.9263423130     1.5000000000
NI      7.3137215840     7.0376318760     1.5000000000
NI      8.5326751800     9.1489214370     1.5000000000
NI      9.7516287780    11.2602110000     1.5000000000
NI      6.0947679870     0.7037631880     1.5000000000
NI      7.3137215840     2.8150527500     1.5000000000
NI      8.5326751810     4.9263423130     1.5000000000
NI      9.7516287790     7.0376318760     1.5000000000
NI     10.9705823750     9.1489214370     1.5000000000
NI     12.1895359730    11.2602110000     1.5000000000
NI      8.5326751820     0.7037631880     1.5000000000
NI      9.7516287790     2.8150527500     1.5000000000
NI     10.9705823760     4.9263423130     1.5000000000
NI     12.1895359740     7.0376318760     1.5000000000
NI     13.4084895710     9.1489214370     1.5000000000
NI     14.6274431680    11.2602110000     1.5000000000
NI     10.9705823750     0.7037631880     1.5000000000
NI     12.1895359720     2.8150527500     1.5000000000
NI     13.4084895700     4.9263423130     1.5000000000
NI     14.6274431670     7.0376318760     1.5000000000
NI     15.8463967640     9.1489214370     1.5000000000
NI     17.0653503620    11.2602110000     1.5000000000
NI     13.4084895710     0.7037631880     1.5000000000
NI     14.6274431670     2.8150527500     1.5000000000
NI     15.8463967650     4.9263423130     1.5000000000
NI     17.0653503620     7.0376318760     1.5000000000
NI     18.2843039590     9.1489214370     1.5000000000
NI     19.5032575570    11.2602110000     1.5000000000
NI     13.4347205808     7.7565534197     3.4437235411
NI     14.6274615061     9.8222322492     3.4439617965
NI     15.8200842113     7.7567033938     3.4438084972
NI     12.2348919994     9.8265055489     3.4662178123
NI     14.6272942246     5.6825393035     3.4662304362
NI     17.0198350734     9.8263987014     3.4663150963
NI     11.0223972590     7.7491193113     3.4796620037
NI     13.4278280493    11.9150242589     3.4792456148
NI     12.2220939699     5.6713286909     3.4799408469
NI     15.8268884630    11.9152204065     3.4792260634
NI     17.0329129358     5.6714078526     3.4791908510
NI     18.2322001778     7.7489737595     3.4792502454
NI      9.7968691459     9.8346932197     3.5018955012
NI     11.0087989343    11.9339119187     3.5016218218
NI     13.4154986761     3.5669115712     3.5021212171
NI     18.2461096183    11.9338599511     3.5017742756
NI     15.8395322988     3.5667988121     3.5015592164
NI     19.4580112549     9.8346912176     3.5018247768
NI      4.8419058147     5.6496991349     3.5043261590
NI      7.3138003035     1.3685187234     3.5045524568
NI      9.7853950994     5.6495630127     3.5035290198
NI      3.6441535525     3.5435780553     3.5194630523
NI      6.0672874519     7.7396726796     3.5194576642
NI      4.8908756386     1.3841497542     3.5194743534
NI      8.5603660955     7.7398298693     3.5195172785
NI      9.7364315856     1.3845591150     3.5197523353
NI     10.9827793298     3.5434577763     3.5189190282
NI      2.4504305626     1.4147119692     3.5272925727
NI      7.3137997321     9.8383342324     3.5273165271
NI     12.1769400404     1.4148018137     3.5272895523
NI      6.0888867388     3.5152180113     3.5308711048
NI      7.3140005751     5.6370697857     3.5313213905
NI      8.5389079929     3.5153987488     3.5303093006
NI      8.5525813076    11.9525501309     3.5314475059
NI     14.6275818981     1.4303672327     3.5313720939
NI     20.7023935946    11.9523742836     3.5314850447
AG     -0.0000762983     0.0000540749     5.8136663504
AG      5.8731186416     5.0542315720     5.8197693354
AG      7.3140701585     2.5592539218     5.8204233709
AG      8.7556811870     5.0543379528     5.8216996196
AG      1.4587584078     2.4931029947     5.8362603346
AG      5.8841991586    10.1576557430     5.8362545201
AG      2.8886110240     0.0168986415     5.8362530286
AG      8.7434134771    10.1576449388     5.8359674481
AG     11.7387745148     0.0170182576     5.8362405456
AG     13.1685858933     2.4927811573     5.8355474362
AG      4.3868316078     2.5326042629     5.8415691884
AG      7.3137733668     7.6024056427     5.8416807648
AG     10.2403742277     2.5334513360     5.8428815692
AG      2.9607219819     5.0210045003     5.8623726902
AG      4.4457956444     7.5933231429     5.8622202876
AG      5.8287094738     0.0535913818     5.8623149449
AG     10.1815706431     7.5916330948     5.8634531612
AG      8.7989168688     0.0534918758     5.8624294148
AG     11.6648000407     5.0212244871     5.8625704977
AG     11.6429025717    10.1681775690     5.8795873910
AG     14.6280936768     4.9989413121     5.8785429785
AG     17.6118547910    10.1682719667     5.8796712849
AG     13.1285023948     7.5803066942     5.9032712126
AG     14.6275194071    10.1762489554     5.9041652901
AG     16.1265779611     7.5797740145     5.9039464662
AG      5.8497802793     3.3775465715     8.1418869272
AG      7.3141411097     5.9136445418     8.1424508408
AG      8.7785596882     3.3776819688     8.1443336654
AG      4.3959039364     5.9072521006     8.1525600054
AG      7.3137865042     0.8532603682     8.1527068549