88
Step 1 | ATOMIC_POSITIONS (angstrom) | Cartesian Angstrom
NI      2.6797587120     1.5471594140     1.5000001930
NI      5.3595174250     1.5471594140     1.5000001930
NI      8.0392761370     1.5471594140     1.5000001930
NI     10.7190348500     1.5471594140     1.5000001930
NI      4.0196380690     3.8678985350     1.5000001930
NI      6.6993967810     3.8678985350     1.5000001930
NI      9.3791554940     3.8678985350     1.5000001930
NI     12.0589142060     3.8678985350     1.5000001930
NI      5.3595174250     6.1886376560     1.5000001930
NI      8.0392761370     6.1886376560     1.5000001930
NI     10.7190348500     6.1886376560     1.5000001930
NI     13.3987935620     6.1886376560     1.5000001930
NI      6.6993967810     8.5093767770     1.5000001930
NI      9.3791554940     8.5093767770     1.5000001930
NI     12.0589142060     8.5093767770     1.5000001930
NI     14.7386729180     8.5093767770     1.5000001930
NI      1.3397749898     0.7735163387     3.3684286419
NI      9.3792473014     0.7735459948     3.3684370072
NI      5.3595461473     7.7358816133     3.3684333762
NI      5.3595465242     3.0943451495     3.3684702576
NI      4.0195704291     0.7736343316     3.3684427748
NI      6.6994748630     0.7736551338     3.3684584775
NI      2.6798007960     3.0942275768     3.3684615045
NI      8.0392330376     3.0942468562     3.3684502938
NI      4.0197775674     5.4150832733     3.3684790441
NI      6.6992945360     5.4150655493     3.3684524960
NI     10.7190027592     3.0940918939     3.3684476024
NI      8.0390786958     7.7359072001     3.3684224474
NI     13.3989802252     7.7359297086     3.3684573700
NI      9.3790204261     5.4149804614     3.3684356668
NI     12.0590138019     5.4149923582     3.3684759730
NI     10.7190144987     7.7359445877     3.3684438495
AG      5.3595132531     9.2829575910     5.5907346310
AG      4.0196735296     2.3207613556     5.5907771332
AG      6.6993593855     2.3207658840     5.5907934396
AG      5.3595211428     4.6414525384     5.5908710826
AG      1.3398711208     2.3207376973     5.5907771345
AG      9.3791588377     2.3207297447     5.5907857857
AG      4.0196523149     6.9621943061     5.5907563602
AG      6.6994000195     6.9622102278     5.5907637000
AG      8.0392687815     9.2829571841     5.5908019146
AG     13.3988083774     9.2829632271     5.5907699970
AG      2.6798113082     4.6414722909     5.5908112559
AG      8.0392332900     4.6414588015     5.5908005175
AG     10.7190394055     9.2829758269     5.5908299579
AG     10.7190292792     4.6414577367     5.5908976030
AG      9.3791495846     6.9622317716     5.5908809950
AG     12.0589129697     6.9622217744     5.5908977657
AG      5.3595657028     1.5472369240     8.3503721948
AG      4.0197866604     3.8679090455     8.3508434318
AG      6.6993062813     3.8679605527     8.3512132504
AG      2.6797794036     1.5471817948     8.3500961918
AG      8.0392670591     1.5472772894     8.3503166189
AG      5.3596126739     6.1884984808     8.3507304574
AG      9.3790273574     3.8680075389     8.3504289694
AG     12.0588975560     3.8679098058     8.3500960538
AG      8.0393332571     6.1884958390     8.3502053026
AG     13.3987858640     6.1886280436     8.3500885756
AG      9.3791596219     8.5093471029     8.3500234734
AG     12.0588937004     8.5093971026     8.3500388381
AG     10.7189183804     6.1885687364     8.3500636717
AG     10.7189885319     1.5471971991     8.3501110277
AG      6.6993960205     8.5093259602     8.3500790084
AG     14.7386913849     8.5093667151     8.3500701727
O       6.0930887739     4.1361332334    12.2463188873
C       7.1647207871     3.8754264396    12.5194340408
C       7.8829673892     4.4483703109    13.7360546681
O       9.2973632349     4.4134990669    13.6303519333
C       7.4318117991     3.7180713474    14.9946116600
O       6.0187281283     3.6079919687    14.9375809840
C       7.9736145802     4.3483989089    16.2772989075
O       7.5241619800     5.7146873804    16.3363485881
C       7.6468133305     3.5607935407    17.5939139806
O       7.9421613085     2.1948777622    17.3222111992
C       8.5131870930     4.0585764892    18.7666841855
O       8.0788927660     3.3430677068    19.9473666531
H       7.7600527690     4.3240574247    11.5944969067
H       7.5153802899     5.5037843110    13.6569944656
H       9.5475026133     5.0380726098    12.9154670673
H       7.8277831455     2.7211535176    14.8371878340
H       5.6519544440     3.9383782086    15.7724454197
H       9.0402235825     4.3880679686    16.1309688849
H       7.1355018350     5.8890865478    17.2020455104
H       6.5919335020     3.6518703791    17.9206984259
H       7.6162252630     1.6874618071    18.0990689799
H       9.5731203522     3.8813736755    18.6071297859
H       8.4311824355     5.1202207963    18.9521167742
H       8.6590228143     3.6741286887    20.6691558878
88
Step 2 | ATOMIC_POSITIONS (angstrom) | Cartesian Angstrom
NI      2.6797587120     1.5471594140     1.5000001930
NI      5.3595174250     1.5471594140     1.5000001930
NI      8.0392761370     1.5471594140     1.5000001930
NI     10.7190348500     1.5471594140     1.5000001930
NI      4.0196380690     3.8678985350     1.5000001930
NI      6.6993967810     3.8678985350     1.5000001930
NI      9.3791554940     3.8678985350     1.5000001930
NI     12.0589142060     3.8678985350     1.5000001930
NI      5.3595174250     6.1886376560     1.5000001930
NI      8.0392761370     6.1886376560     1.5000001930
NI     10.7190348500     6.1886376560     1.5000001930
NI     13.3987935620     6.1886376560     1.5000001930
NI      6.6993967810     8.5093767770     1.5000001930
NI      9.3791554940     8.5093767770     1.5000001930
NI     12.0589142060     8.5093767770     1.5000001930
NI     14.7386729180     8.5093767770     1.5000001930
NI      1.3397729114     0.7735170964     3.3684080485
NI      9.3792504971     0.7735560464     3.3684299508
NI      5.3595656235     7.7358793764     3.3684067863
NI      5.3595502074     3.0943560415     3.3684594334
NI      4.0195697379     0.7735885440     3.3683960420
NI      6.6994727024     0.7736161928     3.3684333605
NI      2.6797833667     3.0942448319     3.3684230045
NI      8.0392661667     3.0942831653     3.3684282008
NI      4.0197592336     5.4150975125     3.3684452575
NI      6.6993241670     5.4150743304     3.3684227906
NI     10.7189803930     3.0941289722     3.3684080320
NI      8.0391106880     7.7359034527     3.3683635651
NI     13.3989422648     7.7359262556     3.3684126422
NI      9.3790575820     5.4149911617     3.3683516148
NI     12.0589662148     5.4150221152     3.3684065236
NI     10.7190007843     7.7359132636     3.3683660558
AG      5.3595172977     9.2829531307     5.5905569092
AG      4.0196735044     2.3207621541     5.5906262227
AG      6.6993575191     2.3207709738     5.5906450476
AG      5.3595288664     4.6414449228     5.5907672709
AG      1.3398753927     2.3207342332     5.5905938514
AG      9.3791478794     2.3207384571     5.5906396061
AG      4.0196470100     6.9621886486     5.5905900839
AG      6.6994082084     6.9622087361     5.5905832518
AG      8.0392601384     9.2829641221     5.5906530971
AG     13.3988121345     9.2829577798     5.5905773581
AG      2.6798331465     4.6414704615     5.5906310498
AG      8.0392318316     4.6414473555     5.5906259883
AG     10.7190428996     9.2829769845     5.5906547228
AG     10.7190054985     4.6414499372     5.5907396483
AG      9.3791489271     6.9622263927     5.5907157707
AG     12.0589161642     6.9622252793     5.5907336893
AG      5.3596061397     1.5473107805     8.3507305046
AG      4.0199011876     3.8679143969     8.3515745159
AG      6.6993105821     3.8680201133     8.3521904625
AG      2.6797965434     1.5471963251     8.3502211982
AG      8.0392413795     1.5473582292     8.3506105650
AG      5.3596781545     6.1884054123     8.3513184893
AG      9.3788670800     3.8681093204     8.3512218140
AG     12.0588678954     3.8679235917     8.3502292298
AG      8.0393493523     6.1883440248     8.3506494974
AG     13.3987819953     6.1886183661     8.3502034378
AG      9.3791548808     8.5093173345     8.3500952028
AG     12.0588827192     8.5094124229     8.3501314343
AG     10.7188600316     6.1885251785     8.3501859554
AG     10.7189618623     1.5472357338     8.3502595151
AG      6.6994103775     8.5092723197     8.3501929054
AG     14.7386957363     8.5093615805     8.3501674738
O       5.9878050337     4.1105251059    12.2382551061
C       7.2103649460     3.9483058997    12.5158635815
C       7.8876970199     4.4429785156    13.7538429930
O       9.3007663348     4.4145805840    13.6331557026
C       7.4307006506     3.7116521177    14.9944412356
O       6.0093371596     3.6064053390    14.9419000346
C       7.9741737819     4.3457928380    16.2727991319
O       7.5195180658     5.7189548544    16.3354423417
C       7.6588328289     3.5633891104    17.5968877767
O       7.9392354284     2.1864092619    17.3224094623
C       8.5176486608     4.0632436172    18.7714342018
O       8.0783055129     3.3414905801    19.9519909994
H       7.8056786899     4.3005853364    11.5596802053
H       7.5164261696     5.4950516926    13.6647354060
H       9.5490553529     5.0353956080    12.9163212804
H       7.8363403453     2.7149938527    14.8492470490
H       5.6483881614     3.9422895510    15.7751728168
H       9.0520827364     4.3832585795    16.1359729280
H       7.1315230490     5.8925033723    17.2092511688
H       6.5904517161     3.6570916148    17.9136760696
H       7.6196826691     1.6878967146    18.0974078015
H       9.5767812348     3.8737925623    18.5966533613
H       8.4224731490     5.1317678768    18.9473600720
H       8.6541659544     3.6691859185    20.6679612313
