146
Step 1 | ATOMIC_POSITIONS (angstrom) | Cartesian Angstrom
NI      1.2189535980     0.7037631880     1.4255056150
NI      2.4379071950     2.8150527500     1.4255056150
NI      3.6568607930     4.9263423130     1.4255056150
NI      4.8758143900     7.0376318760     1.4255056150
NI      6.0947679870     9.1489214370     1.4255056150
NI      7.3137215840    11.2602110000     1.4255056150
NI      3.6568607920     0.7037631880     1.4255056150
NI      4.8758143890     2.8150527500     1.4255056150
NI      6.0947679860     4.9263423130     1.4255056150
NI      7.3137215840     7.0376318760     1.4255056150
NI      8.5326751800     9.1489214370     1.4255056150
NI      9.7516287780    11.2602110000     1.4255056150
NI      6.0947679870     0.7037631880     1.4255056150
NI      7.3137215840     2.8150527500     1.4255056150
NI      8.5326751810     4.9263423130     1.4255056150
NI      9.7516287790     7.0376318760     1.4255056150
NI     10.9705823750     9.1489214370     1.4255056150
NI     12.1895359730    11.2602110000     1.4255056150
NI      8.5326751820     0.7037631880     1.4255056150
NI      9.7516287790     2.8150527500     1.4255056150
NI     10.9705823760     4.9263423130     1.4255056150
NI     12.1895359740     7.0376318760     1.4255056150
NI     13.4084895710     9.1489214370     1.4255056150
NI     14.6274431680    11.2602110000     1.4255056150
NI     10.9705823750     0.7037631880     1.4255056150
NI     12.1895359720     2.8150527500     1.4255056150
NI     13.4084895700     4.9263423130     1.4255056150
NI     14.6274431670     7.0376318760     1.4255056150
NI     15.8463967640     9.1489214370     1.4255056150
NI     17.0653503620    11.2602110000     1.4255056150
NI     13.4084895710     0.7037631880     1.4255056150
NI     14.6274431670     2.8150527500     1.4255056150
NI     15.8463967650     4.9263423130     1.4255056150
NI     17.0653503620     7.0376318760     1.4255056150
NI     18.2843039590     9.1489214370     1.4255056150
NI     19.5032575570    11.2602110000     1.4255056150
NI     13.4434264587     7.7582325370     3.3649170929
NI     14.6339941241     9.8232652083     3.3701360793
NI     15.8266175783     7.7590680485     3.3662481520
NI     12.2385283267     9.8274724617     3.3938308968
NI     14.6322629847     5.6847247719     3.3886230860
NI     17.0232922134     9.8268565657     3.3870486840
NI     11.0248187570     7.7485025769     3.4008962093
NI     13.4320254046    11.9166334551     3.4079692635
NI     12.2262391749     5.6700595507     3.3980285315
NI     15.8308397737    11.9139514626     3.4009838578
NI     17.0361827132     5.6735419905     3.4058006499
NI     18.2324130065     7.7510583003     3.3990515277
NI      9.7942127386     9.8338739966     3.4282155089
NI     11.0090912878    11.9351987703     3.4291211804
NI     13.4158062195     3.5661245842     3.4267661010
NI     18.2454711488    11.9311324858     3.4235552345
NI     15.8413690448     3.5674878089     3.4270005545
NI     19.4553804385     9.8340894128     3.4218759221
NI      4.8406478288     5.6520617165     3.4252623443
NI      7.3160574026     1.3674994736     3.4288470757
NI      9.7854784794     5.6489320965     3.4237554249
NI      3.6454049099     3.5459611352     3.4451034878
NI      6.0614297212     7.7404579109     3.4341290636
NI      4.8929224532     1.3859903377     3.4458417304
NI      8.5564368639     7.7395108357     3.4419724326
NI      9.7363215459     1.3806269750     3.4365837449
NI     10.9833980390     3.5412043395     3.4421599115
NI      2.4502968863     1.4161895217     3.4478955647
NI      7.3065764712     9.8375645307     3.4523663637
NI     12.1748205724     1.4102872545     3.4530095638
NI      6.0886041811     3.5164199132     3.4493052623
NI      7.3090811109     5.6385766254     3.4579626377
NI      8.5387451747     3.5129747214     3.4610265896
NI      8.5479823236    11.9530880254     3.4597637004
NI     14.6257185109     1.4284230874     3.4583025738
NI     20.6979441575    11.9503227129     3.4536229248
AG     -0.0549472214    -0.0116458815     5.7411158907
AG      5.8251812119     5.0352704684     5.7389627969
AG      7.2622233773     2.5518221999     5.7399048013
AG      8.7065062592     5.0510986730     5.7351482599
AG      1.4134929201     2.4713488489     5.7561942917
AG      5.8263373540    10.1455977192     5.7664521057
AG      2.8353677201     0.0082812951     5.7550676793
AG      8.6902020959    10.1560436376     5.7511087839
AG     11.6804822412     0.0052976443     5.7674101923
AG     13.1186041851     2.4823137385     5.7518526229
AG      4.3338942230     2.5136052834     5.7687703539
AG      7.2556726032     7.5961760714     5.7538611224
AG     10.1863435519     2.5206263184     5.7524917296
AG      2.9126154676     5.0025161977     5.7929775415
AG      4.3817792905     7.5719476536     5.7920832697
AG      5.7739996504     0.0416716540     5.7912590518
AG     10.1172740036     7.5944845196     5.7681579874
AG      8.7326392102     0.0402025482     5.7903862927
AG     11.5997295748     5.0137314197     5.7672500260
AG     11.5780543249    10.1739550969     5.7901684115
AG     14.5855185716     4.9655858929     5.7832871556
AG     17.5438100550    10.1503162944     5.8139461357
AG     13.0516068149     7.5727003717     5.8057577336
AG     14.5575421478    10.1599899911     5.8300858618
AG     16.0506973352     7.5572324645     5.8291493450
AG      5.7963063776     3.3630573870     8.0656408632
AG      7.2525655859     5.9031881797     8.0455630020
AG      8.7265489474     3.3660417367     8.0517666302
AG      4.3464950086     5.8898217455     8.0807826488
AG      7.2584682997     0.8475557712     8.0793610305
AG     10.1725833646     5.9143841382     8.0079353784
AG      1.3940897437     0.8211946788     8.0846362252
AG      7.2479059408    10.9793219861     8.0869061639
AG     13.1133182582     0.8275177516     8.0850431376
AG      2.8639948887     3.3473716189     8.0893961500
AG      5.7998750766     8.4396304819     8.0824419907
AG      4.3164870078     0.8285185273     8.0900496123
AG      8.6934027968     8.4659793744     8.0554928723
AG     10.1941029810     0.8433566239     8.0823042202
AG     11.6589654080     3.3455641066     8.0581697119
AG     11.6318151939     8.4584654636     8.0648106657
AG     13.0942718871    10.9781711207     8.1003720893
AG     13.1334533633     5.8735451076     8.0396326334
AG     16.0388127182    10.9756894642     8.0985477831
AG     16.0412225283     5.8751817072     8.0947811306
AG     17.5039124471     8.4309940730     8.0952453646
AG     10.1573398794    10.9789604095     8.0925160130
AG     14.5739545088     3.3346142860     8.0884630091
AG     18.9708733682    10.9768821774     8.0997418139
AG     14.5546837811     8.4221889311     8.0894637368
O      10.1129885526     6.2517010378    10.4579920165
H      12.0169814526     5.5045396770    10.5839906946
C      10.9826888476     5.5586353078    10.9814296118
H       8.8655105243     5.2881579845    11.7472715079
O       9.2567541440     4.6483619369    12.3789775788
C      10.6516054994     4.7623237614    12.2154245805
H      11.1091088423     3.7604815028    12.1253780787
O      12.5945701255     5.9857097487    12.9169542391
C      11.3175346421     5.5372242918    13.3871106654
H      10.6439450846     6.3916928016    13.5935110824
H      13.0316490278     6.4020773613    13.6876195225
H      12.3958266394     4.0871080236    14.5179709823
C      11.4794821453     4.6972357812    14.6640302127
O      10.3326647168     3.8796948236    14.8397234875
O      12.7990407196     6.5005412457    15.6176370712
C      11.6927274390     5.6053124053    15.8898566529
H      10.3089380724     3.6029390325    15.7795703738
H      10.7614021944     6.1769985687    16.0457328474
H      12.6303390466     7.3518102388    16.0524574509
H      12.9351130990     4.2124693936    16.9610885447
C      12.0332039820     4.8166935205    17.1560246900
O      10.9059986241     3.9832946116    17.4942416589
H      12.2540335689     5.5167903664    17.9791620802
H      11.1834840709     3.3138558976    18.1394579547
146
Step 2 | ATOMIC_POSITIONS (angstrom) | Cartesian Angstrom
NI      1.2189535980     0.7037631880     1.4255056150
NI      2.4379071950     2.8150527500     1.4255056150
NI      3.6568607930     4.9263423130     1.4255056150
NI      4.8758143900     7.0376318760     1.4255056150
NI      6.0947679870     9.1489214370     1.4255056150
NI      7.3137215840    11.2602110000     1.4255056150
NI      3.6568607920     0.7037631880     1.4255056150
NI      4.8758143890     2.8150527500     1.4255056150
NI      6.0947679860     4.9263423130     1.4255056150
NI      7.3137215840     7.0376318760     1.4255056150
NI      8.5326751800     9.1489214370     1.4255056150
NI      9.7516287780    11.2602110000     1.4255056150
NI      6.0947679870     0.7037631880     1.4255056150
NI      7.3137215840     2.8150527500     1.4255056150
NI      8.5326751810     4.9263423130     1.4255056150
NI      9.7516287790     7.0376318760     1.4255056150
NI     10.9705823750     9.1489214370     1.4255056150
NI     12.1895359730    11.2602110000     1.4255056150
NI      8.5326751820     0.7037631880     1.4255056150
NI      9.7516287790     2.8150527500     1.4255056150
NI     10.9705823760     4.9263423130     1.4255056150
NI     12.1895359740     7.0376318760     1.4255056150
NI     13.4084895710     9.1489214370     1.4255056150
NI     14.6274431680    11.2602110000     1.4255056150
NI     10.9705823750     0.7037631880     1.4255056150
NI     12.1895359720     2.8150527500     1.4255056150
NI     13.4084895700     4.9263423130     1.4255056150
NI     14.6274431670     7.0376318760     1.4255056150
NI     15.8463967640     9.1489214370     1.4255056150
NI     17.0653503620    11.2602110000     1.4255056150
NI     13.4084895710     0.7037631880     1.4255056150
NI     14.6274431670     2.8150527500     1.4255056150
NI     15.8463967650     4.9263423130     1.4255056150
NI     17.0653503620     7.0376318760     1.4255056150
NI     18.2843039590     9.1489214370     1.4255056150
NI     19.5032575570    11.2602110000     1.4255056150
NI     13.4426596736     7.7578852938     3.3658438742
NI     14.6347341648     9.8242041685     3.3699195619
NI     15.8278672396     7.7592925360     3.3661894774
NI     12.2385260627     9.8271711865     3.3938322174
NI     14.6319383199     5.6847071804     3.3881472203
NI     17.0237070201     9.8270659189     3.3873708126
NI     11.0243429960     7.7481992898     3.4032920662
NI     13.4321474251    11.9168176846     3.4079300951
NI     12.2257376544     5.6701983295     3.4012767646
NI     15.8311855345    11.9137259836     3.4013642883
NI     17.0365059007     5.6735669372     3.4056393087
NI     18.2326346003     7.7514692982     3.3992667755
NI      9.7941460777     9.8345913819     3.4293591019
NI     11.0086891087    11.9356934397     3.4293614602
NI     13.4164586167     3.5656932946     3.4274181821
NI     18.2456110515    11.9308087282     3.4235285440
NI     15.8416763082     3.5669660461     3.4269509741
NI     19.4550720055     9.8342196373     3.4218394734
NI      4.8406483551     5.6524413919     3.4249598441
NI      7.3163470351     1.3674225545     3.4284095010
NI      9.7844922337     5.6484079063     3.4256616124
NI      3.6451503363     3.5457022848     3.4451307006
NI      6.0612579575     7.7406190422     3.4355753066
NI      4.8925057451     1.3859475602     3.4459388787
NI      8.5552245174     7.7393494494     3.4424133975
NI      9.7363295727     1.3802259740     3.4373502424
NI     10.9826935036     3.5403597072     3.4427415111
NI      2.4502140969     1.4163198028     3.4489722977
NI      7.3062225905     9.8376648321     3.4521578752
NI     12.1747350556     1.4099859522     3.4524658935
NI      6.0888646649     3.5166604181     3.4502847748
NI      7.3095401879     5.6378662877     3.4568630423
NI      8.5383712734     3.5136938573     3.4596705807
NI      8.5481167540    11.9532188726     3.4599018477
NI     14.6260048167     1.4285345119     3.4579819682
NI     20.6977900651    11.9501372485     3.4535243923
AG     -0.0546825245    -0.0114301099     5.7404879855
AG      5.8240893435     5.0355248572     5.7393060388
AG      7.2616419736     2.5510212057     5.7403635488
AG      8.7062158341     5.0507796633     5.7336299442
AG      1.4129130750     2.4719542680     5.7562497025
AG      5.8263817232    10.1455601901     5.7660078084
AG      2.8353055060     0.0080485372     5.7551841578
AG      8.6896214373    10.1568887819     5.7512737107
AG     11.6804133660     0.0054998780     5.7671413458
AG     13.1188965580     2.4811804887     5.7522024856
AG      4.3339185212     2.5138835623     5.7691501587
AG      7.2563396089     7.5952658734     5.7544124462
AG     10.1856483267     2.5212567925     5.7532509312
AG      2.9117291296     5.0021246288     5.7924760264
AG      4.3823616970     7.5725345692     5.7915860839
AG      5.7734695211     0.0414866424     5.7908664667
AG     10.1185489194     7.5957799896     5.7653162260
AG      8.7337089245     0.0403733252     5.7898838289
AG     11.6013305993     5.0144130344     5.7653220226
AG     11.5785463437    10.1733489120     5.7906818410
AG     14.5852365170     4.9661927290     5.7840378143
AG     17.5440637275    10.1505083377     5.8137015916
AG     13.0508373998     7.5720645470     5.8073240001
AG     14.5574920107    10.1600676140     5.8303701170
AG     16.0510719749     7.5571996984     5.8295708103
AG      5.7963818485     3.3631793444     8.0661634664
AG      7.2519156606     5.9029441372     8.0467971849
AG      8.7263212153     3.3664323056     8.0532632394
AG      4.3452958379     5.8896771802     8.0811988197
AG      7.2578478357     0.8467325447     8.0798452243
AG     10.1713785314     5.9143167036     8.0052394640
AG      1.3947289467     0.8217481150     8.0844233783
AG      7.2480823330    10.9798115576     8.0866399547
AG     13.1137198654     0.8271516513     8.0851456507
AG      2.8641462944     3.3466424159     8.0890199880
AG      5.7985962382     8.4408469059     8.0831592483
AG      4.3159828232     0.8291055461     8.0895798371
AG      8.6941309711     8.4659926045     8.0567998226
AG     10.1943310158     0.8416748702     8.0831748720
AG     11.6588776541     3.3464482920     8.0594283738
AG     11.6318809735     8.4575586613     8.0654545063
AG     13.0940146021    10.9790050882     8.0997736979
AG     13.1324699654     5.8740688942     8.0410724506
AG     16.0387695368    10.9756977230     8.0981059037
AG     16.0418867645     5.8748897322     8.0945655417
AG     17.5038207188     8.4310902867     8.0950476608
AG     10.1577861573    10.9794915856     8.0925553915
AG     14.5742529267     3.3350281493     8.0892861707
AG     18.9707194373    10.9767052978     8.0993438045
AG     14.5564154847     8.4232862212     8.0902635216
O      10.1146270613     6.2498323178    10.4566398283
H      12.0132781541     5.5088776863    10.5818015780
C      10.9832960518     5.5562138444    10.9852495199
H       8.8648337842     5.2889799233    11.7462462128
O       9.2572010442     4.6495667384    12.3772808555
C      10.6517420949     4.7625952844    12.2189991900
H      11.1077098895     3.7614908850    12.1272933361
O      12.5921781271     5.9854374528    12.9201364192
C      11.3165884489     5.5360887715    13.3894185185
H      10.6438341014     6.3918401233    13.5919097981
H      13.0323701175     6.4018779660    13.6891142342
H      12.3965267366     4.0842331256    14.5188302146
C      11.4807088301     4.6965249370    14.6648853458
O      10.3341552459     3.8796515550    14.8397013406
O      12.7978105250     6.4999793295    15.6176535473
C      11.6929070373     5.6042912886    15.8906282197
H      10.3103378049     3.6036811992    15.7788448270
H      10.7608195355     6.1763661412    16.0459617760
H      12.6310387608     7.3506869216    16.0540347976
H      12.9357896253     4.2119436853    16.9613863841
C      12.0330971480     4.8165538311    17.1572629662
O      10.9059666505     3.9831957105    17.4965676683
H      12.2546363302     5.5180678393    17.9786744531
H      11.1852113345     3.3142600528    18.1414960197
146
Step 3 | ATOMIC_POSITIONS (angstrom) | Cartesian Angstrom
NI      1.2189535980     0.7037631880     1.4255056150
NI      2.4379071950     2.8150527500     1.4255056150
NI      3.6568607930     4.9263423130     1.4255056150
NI      4.8758143900     7.0376318760     1.4255056150
NI      6.0947679870     9.1489214370     1.4255056150
NI      7.3137215840    11.2602110000     1.4255056150
NI      3.6568607920     0.7037631880     1.4255056150
NI      4.8758143890     2.8150527500     1.4255056150
NI      6.0947679860     4.9263423130     1.4255056150
NI      7.3137215840     7.0376318760     1.4255056150
NI      8.5326751800     9.1489214370     1.4255056150
NI      9.7516287780    11.2602110000     1.4255056150
NI      6.0947679870     0.7037631880     1.4255056150
NI      7.3137215840     2.8150527500     1.4255056150
NI      8.5326751810     4.9263423130     1.4255056150
NI      9.7516287790     7.0376318760     1.4255056150
NI     10.9705823750     9.1489214370     1.4255056150
NI     12.1895359730    11.2602110000     1.4255056150
NI      8.5326751820     0.7037631880     1.4255056150
NI      9.7516287790     2.8150527500     1.4255056150
NI     10.9705823760     4.9263423130     1.4255056150
NI     12.1895359740     7.0376318760     1.4255056150
NI     13.4084895710     9.1489214370     1.4255056150
NI     14.6274431680    11.2602110000     1.4255056150
NI     10.9705823750     0.7037631880     1.4255056150
NI     12.1895359720     2.8150527500     1.4255056150
NI     13.4084895700     4.9263423130     1.4255056150
NI     14.6274431670     7.0376318760     1.4255056150
NI     15.8463967640     9.1489214370     1.4255056150
NI     17.0653503620    11.2602110000     1.4255056150
NI     13.4084895710     0.7037631880     1.4255056150
NI     14.6274431670     2.8150527500     1.4255056150
NI     15.8463967650     4.9263423130     1.4255056150
NI     17.0653503620     7.0376318760     1.4255056150
NI     18.2843039590     9.1489214370     1.4255056150
NI     19.5032575570    11.2602110000     1.4255056150
NI     13.4422332478     7.7577178042     3.3667420986
NI     14.6352783330     9.8247810251     3.3697343927
NI     15.8286604180     7.7595071895     3.3661702389
NI     12.2385397789     9.8269627701     3.3938310401
NI     14.6317016906     5.6846865109     3.3877966559
NI     17.0240572471     9.8272603307     3.3876067320
NI     11.0240506847     7.7479710822     3.4047165272
NI     13.4322240797    11.9169579272     3.4078528648
NI     12.2253955048     5.6703697886     3.4035038941
NI     15.8314801926    11.9135762094     3.4016378409
NI     17.0367203658     5.6735933695     3.4054472784
NI     18.2328496645     7.7518147096     3.3993986072
NI      9.7941133868     9.8351158164     3.4303363386
NI     11.0084435648    11.9360779763     3.4295112395
NI     13.4168956495     3.5653839703     3.4279937812
NI     18.2457503507    11.9305608867     3.4234753864
NI     15.8419405296     3.5666239323     3.4268302306
NI     19.4548439499     9.8343572971     3.4217745030
NI      4.8406788548     5.6527179217     3.4247060230
NI      7.3165681404     1.3673881476     3.4280365766
NI      9.7838386023     5.6480502392     3.4271242414
NI      3.6450246111     3.5455054061     3.4451520082
NI      6.0610912528     7.7407363193     3.4369367090
NI      4.8922191874     1.3859599476     3.4460286830
NI      8.5541899418     7.7392924864     3.4427070858
NI      9.7363113043     1.3798853392     3.4381133747
NI     10.9821725231     3.5396118725     3.4431949232
NI      2.4501504225     1.4164253322     3.4499804299
NI      7.3059305929     9.8377856814     3.4519593633
NI     12.1746912737     1.4097251921     3.4519662083
NI      6.0889870374     3.5167902237     3.4512373248
NI      7.3097344980     5.6373302661     3.4558394897
NI      8.5380314196     3.5140643885     3.4584124208
NI      8.5481877418    11.9533563064     3.4599826481
NI     14.6262241476     1.4285682903     3.4576418938
NI     20.6976746245    11.9500048748     3.4534320323
AG     -0.0544283996    -0.0111979676     5.7398785733
AG      5.8229931844     5.0357993212     5.7397044331
AG      7.2610839604     2.5502102451     5.7408724067
AG      8.7057452906     5.0503494277     5.7324092365
AG      1.4122976347     2.4725530932     5.7563632248
AG      5.8264667378    10.1455174976     5.7655978773
AG      2.8352362579     0.0078359306     5.7553356161
AG      8.6890248888    10.1576635956     5.7515727932
AG     11.6803591746     0.0057356242     5.7668964724
AG     13.1191084626     2.4801093028     5.7526518924
AG      4.3339409819     2.5141702946     5.7694753876
AG      7.2570969871     7.5943459278     5.7552796996
AG     10.1849662778     2.5219679023     5.7542452610
AG      2.9108221822     5.0017395576     5.7919983510
AG      4.3830023885     7.5731000974     5.7912344798
AG      5.7729425978     0.0413092368     5.7904699359
AG     10.1194810959     7.5971479932     5.7631523711
AG      8.7347640008     0.0406043547     5.7895123219
AG     11.6028099331     5.0147613295     5.7640887273
AG     11.5790445651    10.1727270066     5.7912013190
AG     14.5848827979     4.9668649568     5.7847666236
AG     17.5443293641    10.1507058071     5.8135021785
AG     13.0502415760     7.5714825269     5.8089520892
AG     14.5574291506    10.1600939493     5.8305550043
AG     16.0514006559     7.5571833522     5.8299041050
AG      5.7964758653     3.3633133746     8.0667299098
AG      7.2511870503     5.9027385785     8.0480131279
AG      8.7260662991     3.3667652516     8.0547512392
AG      4.3440632338     5.8895653461     8.0815697595
AG      7.2572601623     0.8459019240     8.0802827175
AG     10.1701353308     5.9142843835     8.0023975927
AG      1.3953348031     0.8223150854     8.0841950075
AG      7.2482844240    10.9803067608     8.0863541826
AG     13.1141263030     0.8268174101     8.0852529833
AG      2.8643020306     3.3459444123     8.0886605361
AG      5.7973768512     8.4420497209     8.0838472765
AG      4.3155108929     0.8297111173     8.0891185334
AG      8.6948821335     8.4659865916     8.0579710549
AG     10.1945641009     0.8400606570     8.0840518896
AG     11.6587678447     3.3473501839     8.0605742123
AG     11.6319260617     8.4566527923     8.0661969608
AG     13.0937264068    10.9798270230     8.0991946760
AG     13.1314961427     5.8745994548     8.0426303664
AG     16.0387315219    10.9757323158     8.0976529320
AG     16.0425021570     5.8745899228     8.0943938612
AG     17.5037616402     8.4312003509     8.0948544125
AG     10.1582468649    10.9799920060     8.0926047159
AG     14.5744946550     3.3354785194     8.0901496057
AG     18.9705896516    10.9765392041     8.0989300518
AG     14.5581469192     8.4243904410     8.0910983954
O      10.1154224659     6.2468992823    10.4566142667
H      12.0109494966     5.5123033808    10.5802613123
C      10.9839355044     5.5564151494    10.9862464566
H       8.8645729118     5.2903082533    11.7446753105
O       9.2563677849     4.6498577313    12.3771471269
C      10.6509863752     4.7632687729    12.2209801219
H      11.1067403659     3.7613657644    12.1295970494
O      12.5914363619     5.9855183618    12.9224130337
C      11.3161119398     5.5361053029    13.3925153682
H      10.6432930701     6.3917389848    13.5910894656
H      13.0324246564     6.4013260968    13.6907282264
H      12.3969053752     4.0818836356    14.5197343610
C      11.4819677593     4.6952386760    14.6661152123
O      10.3351772568     3.8794369960    14.8388564580
O      12.7972016611     6.4993731762    15.6176830986
C      11.6920691485     5.6039188724    15.8916478843
H      10.3115700574     3.6038362107    15.7794701371
H      10.7607904257     6.1750367639    16.0460820853
H      12.6316685137     7.3495951429    16.0559880628
H      12.9356284035     4.2119135930    16.9621289145
C      12.0338998216     4.8155724769    17.1579344791
O      10.9063153967     3.9834937791    17.4989707014
H      12.2553178468     5.5195137639    17.9785581543
H      11.1870509418     3.3145251370    18.1439008430
146
Step 4 | ATOMIC_POSITIONS (angstrom) | Cartesian Angstrom
NI      1.2189535980     0.7037631880     1.4255056150
NI      2.4379071950     2.8150527500     1.4255056150
NI      3.6568607930     4.9263423130     1.4255056150
NI      4.8758143900     7.0376318760     1.4255056150
NI      6.0947679870     9.1489214370     1.4255056150
NI      7.3137215840    11.2602110000     1.4255056150
NI      3.6568607920     0.7037631880     1.4255056150
NI      4.8758143890     2.8150527500     1.4255056150
NI      6.0947679860     4.9263423130     1.4255056150
NI      7.3137215840     7.0376318760     1.4255056150
NI      8.5326751800     9.1489214370     1.4255056150
NI      9.7516287780    11.2602110000     1.4255056150
NI      6.0947679870     0.7037631880     1.4255056150
NI      7.3137215840     2.8150527500     1.4255056150
NI      8.5326751810     4.9263423130     1.4255056150
NI      9.7516287790     7.0376318760     1.4255056150
NI     10.9705823750     9.1489214370     1.4255056150
NI     12.1895359730    11.2602110000     1.4255056150
NI      8.5326751820     0.7037631880     1.4255056150
NI      9.7516287790     2.8150527500     1.4255056150
NI     10.9705823760     4.9263423130     1.4255056150
NI     12.1895359740     7.0376318760     1.4255056150
NI     13.4084895710     9.1489214370     1.4255056150
NI     14.6274431680    11.2602110000     1.4255056150
NI     10.9705823750     0.7037631880     1.4255056150
NI     12.1895359720     2.8150527500     1.4255056150
NI     13.4084895700     4.9263423130     1.4255056150
NI     14.6274431670     7.0376318760     1.4255056150
NI     15.8463967640     9.1489214370     1.4255056150
NI     17.0653503620    11.2602110000     1.4255056150
NI     13.4084895710     0.7037631880     1.4255056150
NI     14.6274431670     2.8150527500     1.4255056150
NI     15.8463967650     4.9263423130     1.4255056150
NI     17.0653503620     7.0376318760     1.4255056150
NI     18.2843039590     9.1489214370     1.4255056150
NI     19.5032575570    11.2602110000     1.4255056150
NI     13.4420891179     7.7577091030     3.3677743274
NI     14.6356904005     9.8250794944     3.3695574660
NI     15.8291197647     7.7597238223     3.3661869782
NI     12.2385598508     9.8268359512     3.3938415967
NI     14.6315492052     5.6846552816     3.3875619525
NI     17.0243725264     9.8274370773     3.3877694012
NI     11.0239181257     7.7478113163     3.4052952772
NI     13.4322809726    11.9170588557     3.4077163265
NI     12.2251910599     5.6706034699     3.4049421253
NI     15.8317373773    11.9134738988     3.4018277067
NI     17.0368703028     5.6736518689     3.4051849336
NI     18.2330704055     7.7521113446     3.3994479498
NI      9.7940976613     9.8354961388     3.4312629746
NI     11.0083177084    11.9363863070     3.4295840499
NI     13.4171657918     3.5651600285     3.4285871224
NI     18.2459069090    11.9303560285     3.4233817905
NI     15.8421944051     3.5664259672     3.4266240835
NI     19.4546828987     9.8345004665     3.4216552144
NI      4.8407301358     5.6529265582     3.4244556298
NI      7.3167301245     1.3673896526     3.4276872345
NI      9.7834339702     5.6478327609     3.4282959075
NI      3.6450132310     3.5453690761     3.4451619634
NI      6.0609191451     7.7408259339     3.4383741304
NI      4.8920290406     1.3860326295     3.4461201043
NI      8.5532145710     7.7393308726     3.4428838235
NI      9.7362774340     1.3795757254     3.4389841775
NI     10.9817705040     3.5388910176     3.4435904035
NI      2.4501042215     1.4165227580     3.4510365086
NI      7.3056750164     9.8379269059     3.4517395940
NI     12.1746877458     1.4094761425     3.4514616873
NI      6.0889825586     3.5168409194     3.4522670226
NI      7.3096715540     5.6369240547     3.4547672888
NI      8.5376783616     3.5141353569     3.4571116435
NI      8.5482144448    11.9534985134     3.4600018866
NI     14.6264048003     1.4285371739     3.4572381113
NI     20.6975896145    11.9498989489     3.4533257762
AG     -0.0541565250    -0.0109164554     5.7392229418
AG      5.8217510845     5.0361261053     5.7402192097
AG      7.2604767516     2.5492914788     5.7415088249
AG      8.7049888731     5.0497298698     5.7313508626
AG      1.4115572647     2.4732256259     5.7565473488
AG      5.8266137580    10.1454613454     5.7651742307
AG      2.8351510208     0.0076194583     5.7555318940
AG      8.6883498489    10.1584491598     5.7520497207
AG     11.6803176451     0.0060418050     5.7666520970
AG     13.1192540834     2.4789986656     5.7532704490
AG      4.3339582168     2.5145047584     5.7697697212
AG      7.2580429487     7.5933063100     5.7566044733
AG     10.1842162120     2.5228568907     5.7556298172
AG      2.9097718844     5.0013205051     5.7914859930
AG      4.3837904428     7.5737091646     5.7909978994
AG      5.7723534655     0.0411165576     5.7900180915
AG     10.1201487789     7.5987841701     5.7614498879
AG      8.7359281320     0.0409336351     5.7892448282
AG     11.6043519562     5.0147722958     5.7634517327
AG     11.5796057626    10.1720020280     5.7917879333
AG     14.5843830962     4.9677019144     5.7855744673
AG     17.5446413800    10.1509295252     5.8133168375
AG     13.0497869580     7.5708897931     5.8108313419
AG     14.5573457839    10.1600629889     5.8306419095
AG     16.0517220546     7.5571849695     5.8301728388
AG      5.7965997504     3.3634797182     8.0674272095
AG      7.2502529825     5.9025536530     8.0493698437
AG      8.7257342102     3.3670596071     8.0564265154
AG      4.3426330997     5.8894812924     8.0819335814
AG      7.2566403196     0.8449608185     8.0807214594