88
Step 1 | ATOMIC_POSITIONS (angstrom) | Cartesian Angstrom
Ni      2.6797587124     1.5471594140     1.5000001930
Ni      5.3595174249     1.5471594140     1.5000001930
Ni      8.0392761373     1.5471594140     1.5000001930
Ni     10.7190348497     1.5471594140     1.5000001930
Ni      4.0196380686     3.8678985350     1.5000001930
Ni      6.6993967811     3.8678985350     1.5000001930
Ni      9.3791554935     3.8678985350     1.5000001930
Ni     12.0589142059     3.8678985350     1.5000001930
Ni      5.3595174249     6.1886376559     1.5000001930
Ni      8.0392761373     6.1886376559     1.5000001930
Ni     10.7190348497     6.1886376559     1.5000001930
Ni     13.3987935621     6.1886376559     1.5000001930
Ni      6.6993967811     8.5093767769     1.5000001930
Ni      9.3791554935     8.5093767769     1.5000001930
Ni     12.0589142059     8.5093767769     1.5000001930
Ni     14.7386729183     8.5093767769     1.5000001930
Ni      1.3397867331     0.7737149581     3.3677855521
Ni      9.3793118287     0.7734627159     3.3680680358
Ni      5.3593363759     7.7360719350     3.3684348709
Ni      5.3593133374     3.0942222183     3.3680990277
Ni      4.0195327781     0.7739966444     3.3682111368
Ni      6.6994132182     0.7736587496     3.3680768554
Ni      2.6798629331     3.0942275808     3.3677662018
Ni      8.0391929974     3.0942975247     3.3687728461
Ni      4.0194411670     5.4149862967     3.3682460956
Ni      6.6995993247     5.4150352090     3.3683737986
Ni     10.7192397668     3.0941595711     3.3682415181
Ni      8.0392202514     7.7357263210     3.3683737942
Ni     13.3989475590     7.7357865114     3.3679580940
Ni      9.3787543711     5.4150476139     3.3680232192
Ni     12.0592614602     5.4149600993     3.3681881786
Ni     10.7191417907     7.7359997734     3.3685779954
Ag      5.3598231389     9.2828274889     5.5908146536
Ag      4.0197276300     2.3206837865     5.5909828971
Ag      6.6993662963     2.3207782070     5.5909057656
Ag      5.3600784354     4.6417312433     5.5908137988
Ag      1.3398088761     2.3209614067     5.5913262938
Ag      9.3791861339     2.3205271391     5.5907544261
Ag      4.0198471693     6.9622557437     5.5902835902
Ag      6.6999072018     6.9616088122     5.5920130838
Ag      8.0391320510     9.2825267937     5.5911397482
Ag     13.3987491664     9.2827811665     5.5909741199
Ag      2.6794000834     4.6413082624     5.5910577157
Ag      8.0390044868     4.6428847891     5.5932040301
Ag     10.7189474914     9.2829229349     5.5905324949
Ag     10.7191890406     4.6414107957     5.5905886178
Ag      9.3779569581     6.9618703719     5.5921250129
Ag     12.0592045038     6.9621968949     5.5907387466
Ag      5.3591531074     1.5468720663     8.3503713161
Ag      4.0197195372     3.8681182095     8.3500389847
Ag      6.6930455496     3.8613461365     8.3418773583
Ag      2.6792377877     1.5475720273     8.3495219663
Ag      8.0391688101     1.5461171204     8.3511712786
Ag      5.3560148510     6.1891297246     8.3497819729
Ag      9.3834163895     3.8652513926     8.3464697185
Ag     12.0584525216     3.8679886845     8.3499992535
Ag      8.0472529355     6.1908438934     8.3256032589
Ag     13.3994044295     6.1885986695     8.3502792243
Ag      9.3811663709     8.5106142528     8.3502353540
Ag     12.0590556897     8.5098899759     8.3497719905
Ag     10.7208683980     6.1882060599     8.3492955880
Ag     10.7199718499     1.5467543433     8.3503261537
Ag      6.6971919497     8.5124646233     8.3502857796
Ag     14.7381938763     8.5096615907     8.3502392875
H       7.6917940151     4.3618907724    10.1259100134
O       7.5843293452     6.6799498058    10.4602324441
C       7.5520433114     5.3496705595    10.8390832462
O       7.9369032449     2.1227209359    11.7809782345
H       5.5628278069     4.6374050476    11.9110289971
H       8.5331464979     1.3445852627    12.1051459287
C       6.7954288676     4.8699785002    12.1185558432
H       6.2438088442     6.9430757868    12.7716057051
C       7.6938880799     3.2934457711    12.8148784647
O       6.8902585329     6.1833261663    13.0271744208
H       8.8213860987     3.6266937343    13.1846276009
H       5.6926493454     1.9974362625    13.4753874871
C       6.7005400051     2.5191909457    13.9262359039
O       7.6203923922     1.2118327927    14.3801195621
H       5.3999232554     4.4910877422    14.6217295782
C       6.1133628671     3.6041859312    15.0744755605
H       7.3830039053     0.9526975498    15.3120918640
H       8.3501249058     4.9853428149    15.3405714544
O       5.0261220830     2.7197634064    15.8334194928
C       7.4739824849     4.4137613780    15.9503270993
H       8.1654114496     3.5931271993    16.5276601258
O       6.8476697708     5.6010941548    16.7892568681
H       5.1173577180     2.9318902370    16.7801208270
H       7.5513580643     6.0221833205    17.2973319947
