146
Step 1 | ATOMIC_POSITIONS (angstrom) | Cartesian Angstrom
NI      1.2189535980     0.7037631880     1.5000000000
NI      2.4379071950     2.8150527500     1.5000000000
NI      3.6568607930     4.9263423130     1.5000000000
NI      4.8758143900     7.0376318760     1.5000000000
NI      6.0947679870     9.1489214370     1.5000000000
NI      7.3137215840    11.2602110000     1.5000000000
NI      3.6568607920     0.7037631880     1.5000000000
NI      4.8758143890     2.8150527500     1.5000000000
NI      6.0947679860     4.9263423130     1.5000000000
NI      7.3137215840     7.0376318760     1.5000000000
NI      8.5326751800     9.1489214370     1.5000000000
NI      9.7516287780    11.2602110000     1.5000000000
NI      6.0947679870     0.7037631880     1.5000000000
NI      7.3137215840     2.8150527500     1.5000000000
NI      8.5326751810     4.9263423130     1.5000000000
NI      9.7516287790     7.0376318760     1.5000000000
NI     10.9705823750     9.1489214370     1.5000000000
NI     12.1895359730    11.2602110000     1.5000000000
NI      8.5326751820     0.7037631880     1.5000000000
NI      9.7516287790     2.8150527500     1.5000000000
NI     10.9705823760     4.9263423130     1.5000000000
NI     12.1895359740     7.0376318760     1.5000000000
NI     13.4084895710     9.1489214370     1.5000000000
NI     14.6274431680    11.2602110000     1.5000000000
NI     10.9705823750     0.7037631880     1.5000000000
NI     12.1895359720     2.8150527500     1.5000000000
NI     13.4084895700     4.9263423130     1.5000000000
NI     14.6274431670     7.0376318760     1.5000000000
NI     15.8463967640     9.1489214370     1.5000000000
NI     17.0653503620    11.2602110000     1.5000000000
NI     13.4084895710     0.7037631880     1.5000000000
NI     14.6274431670     2.8150527500     1.5000000000
NI     15.8463967650     4.9263423130     1.5000000000
NI     17.0653503620     7.0376318760     1.5000000000
NI     18.2843039590     9.1489214370     1.5000000000
NI     19.5032575570    11.2602110000     1.5000000000
NI     13.4346570472     7.7564631033     3.4441684984
NI     14.6275156765     9.8224342022     3.4439638357
NI     15.8201919309     7.7566908094     3.4438998116
NI     12.2347047107     9.8264581848     3.4663702381
NI     14.6270972166     5.6823527888     3.4664684291
NI     17.0199698635     9.8264768492     3.4662124345
NI     11.0225576819     7.7495673953     3.4789027540
NI     13.4278701784    11.9150935770     3.4791837168
NI     12.2223003150     5.6714331780     3.4786212402
NI     15.8270297177    11.9153413265     3.4790521932
NI     17.0331500904     5.6713520113     3.4791723666
NI     18.2322272222     7.7489509382     3.4791886537
NI      9.7968739653     9.8342582452     3.5022947819
NI     11.0087820701    11.9341629872     3.5016174777
NI     13.4157187657     3.5669393769     3.5019917289
NI     18.2461949237    11.9339930974     3.5017250068
NI     15.8395037278     3.5666301714     3.5016513148
NI     19.4580250478     9.8348652729     3.5017457902
NI      4.8420407466     5.6496621844     3.5042842181
NI      7.3137641335     1.3685434251     3.5045547964
NI      9.7857714125     5.6493848806     3.5034198421
NI      3.6440883730     3.5435126434     3.5194863810
NI      6.0675193656     7.7395453550     3.5196693118
NI      4.8908729039     1.3842967522     3.5195400193
NI      8.5601411613     7.7400430001     3.5192642290
NI      9.7364488049     1.3840019134     3.5196313890
NI     10.9827308802     3.5438484610     3.5192512451
NI      2.4504899328     1.4147710702     3.5274614162
NI      7.3137977234     9.8384591263     3.5274230383
NI     12.1770654146     1.4145212900     3.5273585267
NI      6.0889043957     3.5152931286     3.5309485214
NI      7.3133766499     5.6373169776     3.5309267745
NI      8.5388994878     3.5154694622     3.5308041704
NI      8.5524022789    11.9526526354     3.5314533500
NI     14.6273434904     1.4304785852     3.5317130998
NI     20.7023986803    11.9523845535     3.5314669648
AG     -0.0000521590     0.0001697469     5.8132254659
AG      5.8728802987     5.0541502725     5.8191143478
AG      7.3138331389     2.5591969825     5.8194163975
AG      8.7551342250     5.0550323766     5.8190163909
AG      1.4588567192     2.4930232403     5.8357280785
AG      5.8841717655    10.1576490795     5.8358356210
AG      2.8886151992     0.0169596026     5.8358176285
AG      8.7435272379    10.1578778601     5.8352843491
AG     11.7387269325     0.0167182557     5.8355941643
AG     13.1681391752     2.4933714774     5.8358686849
AG      4.3868286480     2.5325743161     5.8411692364
AG      7.3138307157     7.6021933297     5.8413056176
AG     10.2406461585     2.5332113190     5.8412554372
AG      2.9606302008     5.0209020329     5.8620996018
AG      4.4457953114     7.5933300032     5.8619202126
AG      5.8287000376     0.0536426152     5.8619613181
AG     10.1813839648     7.5900563772     5.8639840602
AG      8.7988657035     0.0532810980     5.8617737518
AG     11.6663162694     5.0210856665     5.8600886493
AG     11.6428210195    10.1683392717     5.8788430545
AG     14.6279411400     4.9988986758     5.8782343774
AG     17.6118659344    10.1682485090     5.8793706832
AG     13.1280332418     7.5798375090     5.9031136321
AG     14.6274440152    10.1762277924     5.9035165711
AG     16.1264868569     7.5797087876     5.9035146568
AG      5.8497784449     3.3775371617     8.1421090590
AG      7.3099045988     5.9135009220     8.1393397649
AG      8.7675099969     3.3682719441     8.1341719459
AG      4.3957843000     5.9072559735     8.1525387776
AG      7.3138164781     0.8532409843     8.1528946869
AG     10.1724378912     6.0197951522     7.9316071140
AG      1.4530544388     0.8389945085     8.1582796226
AG      7.3138229374    10.9898073504     8.1583957469
AG     13.1742804474     0.8387133861     8.1590031535
AG      2.9185733584     3.3634697968     8.1600297630
AG      5.8602799838     8.4583122323     8.1604788957
AG      4.3722436257     0.8458107754     8.1600374943
AG      8.7650663535     8.4610741475     8.1580296355
AG     10.2551049648     0.8459763272     8.1603523170
AG     11.7337487448     3.3184023111     8.1246658774
AG     11.6884668159     8.4544427495     8.1671029402
AG     13.1516600580    10.9901461724     8.1694269305
AG     13.1729581209     5.8983769977     8.1641256927
AG     16.1032198914    10.9900481155     8.1693694183
AG     16.0938131757     5.8947574762     8.1696184165
AG     17.5692563317     8.4507303971     8.1693583182
AG     10.2195618006    10.9898258493     8.1696489366
AG     14.6272119038     3.3558613634     8.1703008212
AG     19.0352243538    10.9900162224     8.1693330257
AG     14.6273100334     8.4451481090     8.1708163284
H      11.6286077184     4.9258387249     9.3271405769
O      10.6438051228     4.6971293605     9.7151961000
H      10.5882308249     6.8426801533     9.8441407171
C      10.2273906658     5.9263366373    10.4078631646
H       9.1450541959     5.9394383154    10.3411210916
H      10.5662510380     3.4238449633    10.9370566995
H      11.8891930477     5.7983435095    11.6923663148
C      10.7897394840     5.8338699891    11.7635638659
O      10.8317213525     3.3987711725    11.8775108252
H       9.1847528451     4.5089601762    12.4247619587
O      10.3899825479     7.0412683461    12.4388367346
C      10.2904740889     4.5682701876    12.4880802173
C      10.8885246780     7.1154242084    13.7727145039
O      12.3049852419     7.1608697455    13.7841427928
C      10.6837137434     4.5983385104    13.9770405180
H      11.7678446141     4.3860713449    14.0589436260
H      10.5277542275     8.0672069284    14.1927022456
H      12.5909065130     6.6543040777    14.5699603977
C      10.3570383008     5.9517044090    14.6092817023
O      10.0013085103     3.5718361013    14.6911014978
H       9.2610319542     6.0272325692    14.7267530502
H      10.3411247384     3.6249912248    15.6063548303
O      10.9428627670     5.9772922096    15.9312106282
H      10.5456077865     6.7287416998    16.4080461158
146
Step 2 | ATOMIC_POSITIONS (angstrom) | Cartesian Angstrom
NI      1.2189535980     0.7037631880     1.5000000000
NI      2.4379071950     2.8150527500     1.5000000000
NI      3.6568607930     4.9263423130     1.5000000000
NI      4.8758143900     7.0376318760     1.5000000000
NI      6.0947679870     9.1489214370     1.5000000000
NI      7.3137215840    11.2602110000     1.5000000000
NI      3.6568607920     0.7037631880     1.5000000000
NI      4.8758143890     2.8150527500     1.5000000000
NI      6.0947679860     4.9263423130     1.5000000000
NI      7.3137215840     7.0376318760     1.5000000000
NI      8.5326751800     9.1489214370     1.5000000000
NI      9.7516287780    11.2602110000     1.5000000000
NI      6.0947679870     0.7037631880     1.5000000000
NI      7.3137215840     2.8150527500     1.5000000000
NI      8.5326751810     4.9263423130     1.5000000000
NI      9.7516287790     7.0376318760     1.5000000000
NI     10.9705823750     9.1489214370     1.5000000000
NI     12.1895359730    11.2602110000     1.5000000000
NI      8.5326751820     0.7037631880     1.5000000000
NI      9.7516287790     2.8150527500     1.5000000000
NI     10.9705823760     4.9263423130     1.5000000000
NI     12.1895359740     7.0376318760     1.5000000000
NI     13.4084895710     9.1489214370     1.5000000000
NI     14.6274431680    11.2602110000     1.5000000000
NI     10.9705823750     0.7037631880     1.5000000000
NI     12.1895359720     2.8150527500     1.5000000000
NI     13.4084895700     4.9263423130     1.5000000000
NI     14.6274431670     7.0376318760     1.5000000000
NI     15.8463967640     9.1489214370     1.5000000000
NI     17.0653503620    11.2602110000     1.5000000000
NI     13.4084895710     0.7037631880     1.5000000000
NI     14.6274431670     2.8150527500     1.5000000000
NI     15.8463967650     4.9263423130     1.5000000000
NI     17.0653503620     7.0376318760     1.5000000000
NI     18.2843039590     9.1489214370     1.5000000000
NI     19.5032575570    11.2602110000     1.5000000000
NI     13.4344867688     7.7562981739     3.4443019691
NI     14.6275860661     9.8225196082     3.4440079265
NI     15.8203624019     7.7567419226     3.4438605179
NI     12.2345769089     9.8264252028     3.4664835380
NI     14.6268140884     5.6822918580     3.4666322526
NI     17.0200298764     9.8264146544     3.4662420354
NI     11.0225350400     7.7497871493     3.4787204006
NI     13.4278587429    11.9149866881     3.4792518500
NI     12.2225001173     5.6717194597     3.4780725721
NI     15.8271177853    11.9154746128     3.4790151062
NI     17.0333632980     5.6714164940     3.4792029947
NI     18.2321205752     7.7490331116     3.4792123655
NI      9.7968715527     9.8339236577     3.5027493400
NI     11.0087428432    11.9343005624     3.5015721542
NI     13.4157100278     3.5670270271     3.5022305062
NI     18.2462500887    11.9341364029     3.5017408071
NI     15.8396068934     3.5664432399     3.5015928786
NI     19.4579687059     9.8348665254     3.5017267054
NI      4.8421687080     5.6497024293     3.5042115017
NI      7.3138386786     1.3687151612     3.5047584973
NI      9.7858536007     5.6493490529     3.5024616195
NI      3.6438301492     3.5435138981     3.5195227071
NI      6.0678405118     7.7394180706     3.5199227244
NI      4.8907882968     1.3842772449     3.5196354543
NI      8.5600607393     7.7400518104     3.5188916256
NI      9.7365007509     1.3838067320     3.5197238529
NI     10.9825345990     3.5439266973     3.5187978188
NI      2.4505623901     1.4148336365     3.5275035283
NI      7.3139042110     9.8384572126     3.5274363255
NI     12.1769484885     1.4144355374     3.5272467484
NI      6.0891604565     3.5153117318     3.5312045210
NI      7.3132597976     5.6374458885     3.5310384932
NI      8.5390456774     3.5156240438     3.5306624810
NI      8.5523096274    11.9526859441     3.5314072259
NI     14.6272142196     1.4304274187     3.5319716913
NI     20.7024199536    11.9524060984     3.5314546281
AG     -0.0000504794     0.0002828636     5.8130718596
AG      5.8726186369     5.0539411748     5.8184611869
AG      7.3138921547     2.5592703775     5.8190320777
AG      8.7508030692     5.0512345716     5.8119335077
AG      1.4587374429     2.4929247419     5.8355397184
AG      5.8842591645    10.1576602367     5.8357627973
AG      2.8886254217     0.0169646263     5.8356940835
AG      8.7436970737    10.1581475785     5.8347043455
AG     11.7386035216     0.0164725673     5.8353118407
AG     13.1689704969     2.4929858622     5.8340846976
AG      4.3869179877     2.5325009945     5.8409252090
AG      7.3134026567     7.6022478198     5.8408068725
AG     10.2398735596     2.5336163308     5.8403751088
AG      2.9606283275     5.0207826555     5.8620766759
AG      4.4458617661     7.5933679152     5.8617683086
AG      5.8287556233     0.0537617603     5.8618179356
AG     10.1815422257     7.6007947164     5.8480653378
AG      8.7988740481     0.0531220693     5.8615388496
AG     11.6694286844     5.0182739011     5.8553362407
AG     11.6425659214    10.1685311777     5.8783168761
AG     14.6286556705     4.9985932107     5.8768704741
AG     17.6118599361    10.1682952949     5.8793133281
AG     13.1280049966     7.5803091814     5.9022493909
AG     14.6274293046    10.1762974563     5.9034604867
AG     16.1264008726     7.5797464912     5.9034434747
AG      5.8497756300     3.3777718048     8.1428671803
AG      7.3049394194     5.9134926321     8.1376989217
AG      8.7620012456     3.3639979514     8.1291167323
AG      4.3957798390     5.9072401833     8.1528812274
AG      7.3137642310     0.8529823212     8.1535081951
AG     10.1601827624     6.0343617235     7.8866355439
AG      1.4530008177     0.8390211672     8.1582467680
AG      7.3138332021    10.9898576412     8.1585084524
AG     13.1750315234     0.8370286467     8.1597218212
AG      2.9185617214     3.3634477270     8.1599970436
AG      5.8602745202     8.4582960549     8.1608880628
AG      4.3722932532     0.8458350250     8.1600308117
AG      8.7607188356     8.4674428762     8.1570503647
AG     10.2545892179     0.8451036207     8.1605405842
AG     11.7491538757     3.2924313083     8.0997065023
AG     11.6919970469     8.4589494971     8.1659255202
AG     13.1516770631    10.9902880337     8.1696003652
AG     13.1790716440     5.8998644758     8.1608693264
AG     16.1032604182    10.9900886210     8.1694859194
AG     16.0943495481     5.8948112305     8.1699333213
AG     17.5692948732     8.4507622648     8.1694299581
AG     10.2195397031    10.9896808000     8.1699734110
AG     14.6280094127     3.3561838466     8.1712354689
AG     19.0351841635    10.9899671581     8.1693821380
AG     14.6273740187     8.4452949278     8.1712811036
H      11.6072901694     4.9179112995     9.3460419589
O      10.6648681694     4.7173928349     9.7384116885
H      10.5897061617     6.8345554286     9.8617680580
C      10.2304701400     5.9272814739    10.4059881769
H       9.1330173285     5.9390237406    10.3503623361
H      10.5692316394     3.4239565254    10.9419390617
H      11.8914448339     5.7966981402    11.6938725714
C      10.7933530026     5.8407793899    11.7933705349
O      10.8354234754     3.3907743405    11.8949045544
H       9.1842370416     4.5153800516    12.4277280220
O      10.3933157798     7.0446252297    12.4500780775
C      10.2880033760     4.5593768937    12.4932489739
C      10.8876764146     7.1203551247    13.7718867611
O      12.3070438054     7.1556531541    13.7820250834
C      10.6872161636     4.5943765455    13.9771330789
H      11.7690223833     4.3925911792    14.0536265378
H      10.5204588585     8.0707918472    14.1861495177
H      12.5921471017     6.6559720314    14.5693118994
C      10.3539002820     5.9508688275    14.6092507845
O       9.9981667296     3.5679829916    14.6937409469
H       9.2619873968     6.0283531156    14.7196208578
H      10.3372646442     3.6228848281    15.6027861074
O      10.9462867803     5.9760214907    15.9288760734
H      10.5475139154     6.7256625610    16.4091719537
146
Step 3 | ATOMIC_POSITIONS (angstrom) | Cartesian Angstrom
NI      1.2189535980     0.7037631880     1.5000000000
NI      2.4379071950     2.8150527500     1.5000000000
NI      3.6568607930     4.9263423130     1.5000000000
NI      4.8758143900     7.0376318760     1.5000000000
NI      6.0947679870     9.1489214370     1.5000000000
NI      7.3137215840    11.2602110000     1.5000000000
NI      3.6568607920     0.7037631880     1.5000000000
NI      4.8758143890     2.8150527500     1.5000000000
NI      6.0947679860     4.9263423130     1.5000000000
NI      7.3137215840     7.0376318760     1.5000000000
NI      8.5326751800     9.1489214370     1.5000000000
NI      9.7516287780    11.2602110000     1.5000000000
NI      6.0947679870     0.7037631880     1.5000000000
NI      7.3137215840     2.8150527500     1.5000000000
NI      8.5326751810     4.9263423130     1.5000000000
NI      9.7516287790     7.0376318760     1.5000000000
NI     10.9705823750     9.1489214370     1.5000000000
NI     12.1895359730    11.2602110000     1.5000000000
NI      8.5326751820     0.7037631880     1.5000000000
NI      9.7516287790     2.8150527500     1.5000000000
NI     10.9705823760     4.9263423130     1.5000000000
NI     12.1895359740     7.0376318760     1.5000000000
NI     13.4084895710     9.1489214370     1.5000000000
NI     14.6274431680    11.2602110000     1.5000000000
NI     10.9705823750     0.7037631880     1.5000000000
NI     12.1895359720     2.8150527500     1.5000000000
NI     13.4084895700     4.9263423130     1.5000000000
NI     14.6274431670     7.0376318760     1.5000000000
NI     15.8463967640     9.1489214370     1.5000000000
NI     17.0653503620    11.2602110000     1.5000000000
NI     13.4084895710     0.7037631880     1.5000000000
NI     14.6274431670     2.8150527500     1.5000000000
NI     15.8463967650     4.9263423130     1.5000000000
NI     17.0653503620     7.0376318760     1.5000000000
NI     18.2843039590     9.1489214370     1.5000000000
NI     19.5032575570    11.2602110000     1.5000000000
NI     13.4343931221     7.7561648501     3.4443316047
NI     14.6276568474     9.8225800337     3.4439677892
NI     15.8204930389     7.7567835796     3.4437163018
NI     12.2345111464     9.8263816515     3.4665342311
NI     14.6265200880     5.6823261500     3.4666466283
NI     17.0200600337     9.8263300510     3.4662113902
NI     11.0232798438     7.7500096319     3.4766876654
NI     13.4278567522    11.9148205612     3.4792528105
NI     12.2228401179     5.6723146349     3.4767249388
NI     15.8271803125    11.9155696361     3.4788562705
NI     17.0335833735     5.6715161957     3.4791614252
NI     18.2319718382     7.7491561327     3.4791734267
NI      9.7969375899     9.8336458248     3.5032246242
NI     11.0086969325    11.9344750097     3.5014248677
NI     13.4157268654     3.5672457016     3.5023565012
NI     18.2462901567    11.9342495560     3.5017047464
NI     15.8397173689     3.5662277421     3.5014247933
NI     19.4578633891     9.8348278946     3.5016763954
NI      4.8422682011     5.6497672151     3.5039985647
NI      7.3138923405     1.3688930697     3.5049478641
NI      9.7861162166     5.6494038786     3.5007857957
NI      3.6435044222     3.5435245287     3.5194852861
NI      6.0681779708     7.7392790642     3.5202237488
NI      4.8906755418     1.3842327955     3.5196474390
NI      8.5597746632     7.7399833706     3.5180749933
NI      9.7365443449     1.3835377501     3.5198111511
NI     10.9823289780     3.5440139315     3.5179475896
NI      2.4506753050     1.4149097824     3.5274757885
NI      7.3140172490     9.8384749004     3.5274452141
NI     12.1767787005     1.4143540819     3.5270413010
NI      6.0894592955     3.5153035912     3.5314845576
NI      7.3129997228     5.6376882960     3.5309531378
NI      8.5392033391     3.5156406333     3.5301385186
NI      8.5522424115    11.9527469259     3.5313041169
NI     14.6270738695     1.4304193918     3.5322752554
NI     20.7024553295    11.9524316615     3.5314182488
AG     -0.0000093374     0.0004007731     5.8128693641
AG      5.8719132820     5.0535780588     5.8174462752
AG      7.3135683007     2.5590009000     5.8181986529
AG      8.7427162272     5.0443418532     5.7991792427
AG      1.4586415315     2.4927464921     5.8353016020
AG      5.8843769825    10.1576809737     5.8356935135
AG      2.8886408838     0.0169949727     5.8355571958
AG      8.7437627134    10.1589702912     5.8338315726
AG     11.7384128333     0.0160681925     5.8349334208
AG     13.1715678148     2.4916040782     5.8297167313
AG      4.3870426763     2.5324029677     5.8406536967
AG      7.3126713549     7.6023521522     5.8400350271
AG     10.2380808723     2.5339812922     5.8382761287
AG      2.9606204426     5.0206024408     5.8620866006
AG      4.4459444051     7.5934190267     5.8616029356
AG      5.8288425382     0.0539324421     5.8616650272
AG     10.1814284774     7.6212255821     5.8206131194
AG      8.7988645758     0.0528764970     5.8612373674
AG     11.6750799659     5.0134021553     5.8477176678
AG     11.6423168033    10.1692255589     5.8775155464
AG     14.6299273744     4.9980067501     5.8748987126
AG     17.6118418362    10.1683561754     5.8792850239
AG     13.1279519202     7.5810235321     5.9009889790
AG     14.6274011765    10.1763888263     5.9034263552
AG     16.1262639700     7.5798129820     5.9033731362
AG      5.8495256030     3.3780537851     8.1440692535
AG      7.2973024315     5.9134346501     8.1352139509
AG      8.7549559536     3.3584264603     8.1217733548
AG      4.3956120287     5.9072173149     8.1534533865
AG      7.3135505813     0.8523722197     8.1544988753
AG     10.1454053248     6.0476105529     7.8367183888
AG      1.4529645592     0.8390625013     8.1582450340
AG      7.3137504175    10.9901151374     8.1587651770
AG     13.1769354977     0.8332034842     8.1609547393
AG      2.9185669105     3.3633994628     8.1599833645
AG      5.8600616491     8.4583335868     8.1615672679
AG      4.3723644590     0.8458817250     8.1600447266
AG      8.7541266744     8.4775460279     8.1553889666
AG     10.2534428865     0.8432015360     8.1609395297
AG     11.7692975820     3.2572820086     8.0650481434
AG     11.6971309781     8.4655685667     8.1639106763
AG     13.1517869602    10.9906525589     8.1699239690
AG     13.1881913646     5.9020902344     8.1548957198
AG     16.1032966559    10.9901219268     8.1697054721
AG     16.0953608321     5.8948938262     8.1704838965
AG     17.5693451669     8.4508022542     8.1695578467
AG     10.2195424494    10.9896049073     8.1705388048
AG     14.6297607447     3.3567385691     8.1727164239
AG     19.0351196824    10.9898456885     8.1695091133
AG     14.6276119940     8.4456274991     8.1720862701
H      11.5841189859     4.9102143064     9.3726771783
O      10.6850485200     4.7403645771     9.7612198708
H      10.5935364913     6.8284780944     9.8838774593
C      10.2297354517     5.9280511272    10.4255772379
H       9.1253116420     5.9376774571    10.3639203550
H      10.5789467427     3.4223978523    10.9623628032
H      11.8944736149     5.7949590027    11.6997799786
C      10.7922101987     5.8468237238    11.8106625222
O      10.8355058616     3.3796254493    11.9060195899
H       9.1820360738     4.5237989044    12.4323496507
O      10.3971614535     7.0494496581    12.4646107198
C      10.2887610523     4.5525066677    12.5077970295
C      10.8878166337     7.1253909846    13.7785513656
O      12.3080346623     7.1505755472    13.7767489848
C      10.6840468058     4.5894618536    13.9797210382
H      11.7732428877     4.4011378075    14.0462111713
H      10.5104544094     8.0773594812    14.1779000979
H      12.5944224856     6.6573562450    14.5708810940
C      10.3554892367     5.9501729655    14.6080068526
O       9.9942914377     3.5636138681    14.6912926890
H       9.2603802641     6.0299260395    14.7096513641
H      10.3331958049     3.6192890503    15.6041828308
O      10.9496653149     5.9749062068    15.9256173943
H      10.5512052071     6.7197748880    16.4106141357
146
Step 4 | ATOMIC_POSITIONS (angstrom) | Cartesian Angstrom
NI      1.2189535980     0.7037631880     1.5000000000
NI      2.4379071950     2.8150527500     1.5000000000
NI      3.6568607930     4.9263423130     1.5000000000
NI      4.8758143900     7.0376318760     1.5000000000
NI      6.0947679870     9.1489214370     1.5000000000
NI      7.3137215840    11.2602110000     1.5000000000
NI      3.6568607920     0.7037631880     1.5000000000
NI      4.8758143890     2.8150527500     1.5000000000
NI      6.0947679860     4.9263423130     1.5000000000
NI      7.3137215840     7.0376318760     1.5000000000
NI      8.5326751800     9.1489214370     1.5000000000
NI      9.7516287780    11.2602110000     1.5000000000
NI      6.0947679870     0.7037631880     1.5000000000
NI      7.3137215840     2.8150527500     1.5000000000
NI      8.5326751810     4.9263423130     1.5000000000
NI      9.7516287790     7.0376318760     1.5000000000
NI     10.9705823750     9.1489214370     1.5000000000
NI     12.1895359730    11.2602110000     1.5000000000
NI      8.5326751820     0.7037631880     1.5000000000
NI      9.7516287790     2.8150527500     1.5000000000
NI     10.9705823760     4.9263423130     1.5000000000
NI     12.1895359740     7.0376318760     1.5000000000
NI     13.4084895710     9.1489214370     1.5000000000
NI     14.6274431680    11.2602110000     1.5000000000
NI     10.9705823750     0.7037631880     1.5000000000
NI     12.1895359720     2.8150527500     1.5000000000
NI     13.4084895700     4.9263423130     1.5000000000
NI     14.6274431670     7.0376318760     1.5000000000
NI     15.8463967640     9.1489214370     1.5000000000
NI     17.0653503620    11.2602110000     1.5000000000
NI     13.4084895710     0.7037631880     1.5000000000
NI     14.6274431670     2.8150527500     1.5000000000
NI     15.8463967650     4.9263423130     1.5000000000
NI     17.0653503620     7.0376318760     1.5000000000
NI     18.2843039590     9.1489214370     1.5000000000
NI     19.5032575570    11.2602110000     1.5000000000
NI     13.4344749535     7.7561287082     3.4441898347
NI     14.6277088300     9.8226150822     3.4439224267
NI     15.8205644629     7.7567754520     3.4435429422
NI     12.2344837101     9.8263304203     3.4665497124
NI     14.6262494205     5.6825277887     3.4663805402
NI     17.0201241864     9.8262732773     3.4661929908
NI     11.0260526468     7.7501241667     3.4692206130
NI     13.4278557892    11.9146360945     3.4792735440
NI     12.2233491986     5.6735033334     3.4735954603
NI     15.8272434008    11.9156793371     3.4785952053
NI     17.0338455370     5.6716316201     3.4791263527
NI     18.2318742376     7.7493388430     3.4791247991
NI      9.7970599567     9.8335582165     3.5035663306
NI     11.0085860419    11.9346690224     3.5011939470
NI     13.4157210917     3.5677728598     3.5020053332
NI     18.2463442231    11.9343367319     3.5016113471
NI     15.8398291790     3.5659701237     3.5011876538
NI     19.4577632389     9.8347438280     3.5016273378
NI      4.8423571775     5.6498635539     3.5035866750
NI      7.3139524001     1.3691075670     3.5051348177
NI      9.7867840978     5.6496765145     3.4976609577
NI      3.6431755690     3.5435679167     3.5194328278
NI      6.0685421096     7.7391564524     3.5205891832
NI      4.8905573504     1.3841905752     3.5196230745
NI      8.5588904142     7.7397584229     3.5161612038
NI      9.7365632286     1.3831527300     3.5197932719
NI     10.9820569991     3.5440765139     3.5162780800
NI      2.4508427367     1.4149726117     3.5274275284
NI      7.3141408887     9.8384974783     3.5274352480
NI     12.1764119733     1.4142492606     3.5265900988
NI      6.0898465704     3.5152792561     3.5318571764
NI      7.3123667324     5.6382079648     3.5302283692
NI      8.5393645982     3.5151819743     3.5285949503
NI      8.5522076659    11.9527972900     3.5311464392
NI     14.6269135433     1.4304385413     3.5326524938
NI     20.7025068789    11.9524343997     3.5313776593
AG      0.0001704119     0.0004074300     5.8124770844
AG      5.8700632810     5.0528931095     5.8156897107
AG      7.3121489382     2.5577110584     5.8163634187
AG      8.7278349356     5.0320078425     5.7761631968
AG      1.4587433665     2.4923871550     5.8349252697
AG      5.8845223085    10.1577169788     5.8355696927
AG      2.8886670876     0.0171123767     5.8353485894
AG      8.7433491985    10.1613603379     5.8323246329
AG     11.7380946886     0.0153790108     5.8343385064
AG     13.1786440344     2.4875799762     5.8191509656
AG      4.3872074135     2.5322610995     5.8403018332
AG      7.3114623833     7.6024841970     5.8387434431
AG     10.2339768532     2.5340553936     5.8333199565
AG      2.9606145437     5.0203262813     5.8620805979
AG      4.4460394883     7.5934928411     5.8613771067
AG      5.8289828131     0.0541838031     5.8614415000
AG     10.1801826214     7.6585361975     5.7756233830
AG      8.7987910751     0.0524574027     5.8607507787
AG     11.6851105019     5.0049615719     5.8353458987
AG     11.6423013784    10.1713496810     5.8761726018
AG     14.6324132283     4.9968050993     5.8718226823
AG     17.6118108765    10.1684337457     5.8792560168
AG     13.1277628358     7.5821605044     5.8989722179
AG     14.6273504287    10.1765207298     5.9033849135
AG     16.1260521187     7.5799371226     5.9032569527
AG      5.8486597718     3.3783362506     8.1459623577
AG      7.2853590306     5.9133130793     8.1310638352
AG      8.7459458593     3.3511963356     8.1106180560
AG      4.3949836847     5.9071837099     8.1543623223
AG      7.3129438193     0.8510118794     8.1560838981