148
Step 1 | ATOMIC_POSITIONS (angstrom) | Cartesian Angstrom
NI      1.2254504230     0.7101865830     1.4556095020
NI      2.4444040200     2.8214761450     1.4556095020
NI      3.6633576180     4.9327657080     1.4556095020
NI      4.8823112150     7.0440552710     1.4556095020
NI      6.1012648120     9.1553448320     1.4556095020
NI      7.3202184090    11.2666343950     1.4556095020
NI      3.6633576170     0.7101865830     1.4556095020
NI      4.8823112140     2.8214761450     1.4556095020
NI      6.1012648110     4.9327657080     1.4556095020
NI      7.3202184090     7.0440552710     1.4556095020
NI      8.5391720050     9.1553448320     1.4556095020
NI      9.7581256030    11.2666343950     1.4556095020
NI      6.1012648120     0.7101865830     1.4556095020
NI      7.3202184090     2.8214761450     1.4556095020
NI      8.5391720060     4.9327657080     1.4556095020
NI      9.7581256040     7.0440552710     1.4556095020
NI     10.9770792000     9.1553448320     1.4556095020
NI     12.1960327980    11.2666343950     1.4556095020
NI      8.5391720070     0.7101865830     1.4556095020
NI      9.7581256040     2.8214761450     1.4556095020
NI     10.9770792010     4.9327657080     1.4556095020
NI     12.1960327990     7.0440552710     1.4556095020
NI     13.4149863960     9.1553448320     1.4556095020
NI     14.6339399930    11.2666343950     1.4556095020
NI     10.9770792000     0.7101865830     1.4556095020
NI     12.1960327970     2.8214761450     1.4556095020
NI     13.4149863950     4.9327657080     1.4556095020
NI     14.6339399920     7.0440552710     1.4556095020
NI     15.8528935890     9.1553448320     1.4556095020
NI     17.0718471870    11.2666343950     1.4556095020
NI     13.4149863960     0.7101865830     1.4556095020
NI     14.6339399920     2.8214761450     1.4556095020
NI     15.8528935900     4.9327657080     1.4556095020
NI     17.0718471870     7.0440552710     1.4556095020
NI     18.2908007840     9.1553448320     1.4556095020
NI     19.5097543820    11.2666343950     1.4556095020
NI     13.4456097922     7.7631807977     3.4052922560
NI     14.6385803537     9.8290136636     3.3983364762
NI     15.8301738452     7.7656032356     3.3985648297
NI     12.2441614376     9.8347450747     3.4254139058
NI     14.6395671656     5.6891289847     3.4242201120
NI     17.0282100748     9.8335558304     3.4158575317
NI     11.0293355347     7.7535210465     3.4348356495
NI     13.4379202120    11.9248799499     3.4377236821
NI     12.2306423932     5.6754891346     3.4399008802
NI     15.8362000542    11.9209764288     3.4316862574
NI     17.0440450427     5.6790707027     3.4358050095
NI     18.2385682503     7.7573242127     3.4306828180
NI      9.7991421057     9.8404477032     3.4605991260
NI     11.0142281053    11.9411005648     3.4579778339
NI     13.4209480699     3.5701424010     3.4624308366
NI     18.2514602885    11.9368537275     3.4545881022
NI     15.8466945838     3.5733513834     3.4552170731
NI     19.4607224870     9.8405654340     3.4525167787
NI      4.8472087895     5.6581322089     3.4567168257
NI      7.3218763810     1.3746255176     3.4586270074
NI      9.7890510755     5.6540552954     3.4665970969
NI      3.6514836975     3.5525201105     3.4765329121
NI      6.0686958018     7.7467522459     3.4736775005
NI      4.8981570159     1.3920370508     3.4778454022
NI      8.5601549382     7.7456702926     3.4741068069
NI      9.7424631051     1.3869439332     3.4739230920
NI     10.9871602118     3.5454210427     3.4772419533
NI      2.4552902996     1.4225975040     3.4857533960
NI      7.3130450194     9.8435914509     3.4807170410
NI     12.1805078132     1.4163199925     3.4816187096
NI      6.0936138231     3.5221148644     3.4878441619
NI      7.3155938640     5.6431052841     3.4892494598
NI      8.5430991829     3.5193145925     3.4923499651
NI      8.5542281786    11.9576548080     3.4892223221
NI     14.6309119234     1.4342886459     3.4867475310
NI     20.7042223899    11.9568084279     3.4848887966
AG     -0.0433460712    -0.0063682396     5.7703362129
AG      5.8197396494     5.0375592410     5.7792189720
AG      7.2608724591     2.5473164751     5.7794851244
AG      8.7049052896     5.0484676306     5.7780850050
AG      1.4050476979     2.4823466774     5.7886752082
AG      5.8474867964    10.1470011991     5.7948877203
AG      2.8401669020     0.0076665184     5.7863493453
AG      8.7046233089    10.1518075903     5.7878936136
AG     11.6929316749     0.0142954632     5.7975008145
AG     13.1146320577     2.4918458693     5.7919109702
AG      4.3324216465     2.5169227404     5.8004979254
AG      7.2769892923     7.5888790603     5.7994198933
AG     10.1884905240     2.5298938433     5.7991768221
AG      2.9002661055     5.0029176109     5.8257657443
AG      4.4026965444     7.5751957656     5.8229820898
AG      5.7738892263     0.0365156746     5.8228745052
AG     10.1322512499     7.5940264813     5.8078722041
AG      8.7464865058     0.0446000515     5.8227994030
AG     11.6030732896     5.0209754948     5.8119123165
AG     11.5932623799    10.1596228608     5.8307364312
AG     14.5683540035     4.9856401111     5.8322897575
AG     17.5671098910    10.1547560889     5.8382971408
AG     13.0750712439     7.5683809055     5.8540504339
AG     14.5757605484    10.1606786819     5.8592404682
AG     16.0732851324     7.5602288450     5.8613335605
AG      5.7973059416     3.3641374047     8.1051404529
AG      7.2510225923     5.9018992641     8.0959803719
AG      8.7248556034     3.3683692478     8.1046245882
AG      4.3389543697     5.8966335086     8.1140743864
AG      7.2680401252     0.8408003827     8.1132012421
AG     10.1688794722     5.9048315752     8.0736472811
AG      1.4128830317     0.8332583121     8.1146642171
AG      7.2702301905    10.9875175060     8.1162156544
AG     13.1274141962     0.8387008891     8.1179359860
AG      2.8647887272     3.3523490692     8.1219017158
AG      5.8125291521     8.4497664553     8.1173577564
AG      4.3250076455     0.8319379997     8.1200536181
AG      8.7106901733     8.4666429343     8.0818549857
AG     10.2080339371     0.8401296236     8.1181089635
AG     11.6542172143     3.3618906651     8.1219610525
AG     11.6415129384     8.4502074111     8.1081252135
AG     13.1075295393    10.9767739392     8.1289766795
AG     13.1156852896     5.8838786475     8.1107742193
AG     16.0595379531    10.9766203634     8.1221098255
AG     16.0371836538     5.8840529732     8.1329620826
AG     17.5208090083     8.4394560098     8.1228439242
AG     10.1750393344    10.9841916567     8.1263940755
AG     14.5738440865     3.3464318147     8.1305830209
AG     18.9925767828    10.9819275074     8.1217949438
AG     14.5747701168     8.4311220303     8.1296640258
O      10.6856550031     6.2685624801    10.3222679171
H      12.1143220131     4.8623154287    10.2731216762
C      11.1614946181     5.3360768791    10.7454085742
H       9.0971647227     4.0576899754    11.4577983246
O       9.4012966489     4.5601764429    12.2465469679
C      10.8029897091     4.6523873234    12.1089411700
H      11.2484171113     3.6618845938    12.1236116671
O      12.6297855568     6.0083882865    12.8647462757
C      11.3647307565     5.5195358870    13.2752684279
H      10.6972325924     6.4026091106    13.3476445883
H      13.3097450951     5.4093228196    13.2235544734
H      12.2117006501     3.9042261483    14.5226031270
C      11.4222022608     4.7125199573    14.5922885013
O      10.2170871244     4.0125301938    14.7902763560
O      12.8609322115     6.4116175301    15.5291831853
C      11.6951837143     5.6382640060    15.8047805098
H       9.5194445270     4.7063391640    14.8891956649
H      10.8441734563     6.3243896800    15.9757493712
H      12.9265895015     7.0631304177    16.2556094871
H      12.7548422111     4.1953891916    17.0632347473
C      11.9079475261     4.8722870819    17.1147281891
O      10.7163734357     4.1627024765    17.4445001970
H      12.1627904390     5.5525887355    17.9451456797
H      10.9008471587     3.7200948110    18.2913447403
O       8.7221583904     8.4581287759    10.1259961689
H       8.3807294733     8.7784639617    10.9565501214
148
Step 2 | ATOMIC_POSITIONS (angstrom) | Cartesian Angstrom
NI      1.2254504230     0.7101865830     1.4556095020
NI      2.4444040200     2.8214761450     1.4556095020
NI      3.6633576180     4.9327657080     1.4556095020
NI      4.8823112150     7.0440552710     1.4556095020
NI      6.1012648120     9.1553448320     1.4556095020
NI      7.3202184090    11.2666343950     1.4556095020
NI      3.6633576170     0.7101865830     1.4556095020
NI      4.8823112140     2.8214761450     1.4556095020
NI      6.1012648110     4.9327657080     1.4556095020
NI      7.3202184090     7.0440552710     1.4556095020
NI      8.5391720050     9.1553448320     1.4556095020
NI      9.7581256030    11.2666343950     1.4556095020
NI      6.1012648120     0.7101865830     1.4556095020
NI      7.3202184090     2.8214761450     1.4556095020
NI      8.5391720060     4.9327657080     1.4556095020
NI      9.7581256040     7.0440552710     1.4556095020
NI     10.9770792000     9.1553448320     1.4556095020
NI     12.1960327980    11.2666343950     1.4556095020
NI      8.5391720070     0.7101865830     1.4556095020
NI      9.7581256040     2.8214761450     1.4556095020
NI     10.9770792010     4.9327657080     1.4556095020
NI     12.1960327990     7.0440552710     1.4556095020
NI     13.4149863960     9.1553448320     1.4556095020
NI     14.6339399930    11.2666343950     1.4556095020
NI     10.9770792000     0.7101865830     1.4556095020
NI     12.1960327970     2.8214761450     1.4556095020
NI     13.4149863950     4.9327657080     1.4556095020
NI     14.6339399920     7.0440552710     1.4556095020
NI     15.8528935890     9.1553448320     1.4556095020
NI     17.0718471870    11.2666343950     1.4556095020
NI     13.4149863960     0.7101865830     1.4556095020
NI     14.6339399920     2.8214761450     1.4556095020
NI     15.8528935900     4.9327657080     1.4556095020
NI     17.0718471870     7.0440552710     1.4556095020
NI     18.2908007840     9.1553448320     1.4556095020
NI     19.5097543820    11.2666343950     1.4556095020
NI     13.4457479880     7.7632660313     3.4050763768
NI     14.6385356774     9.8293291795     3.3984108183
NI     15.8303888336     7.7654867269     3.3986075797
NI     12.2439766955     9.8347724115     3.4254755013
NI     14.6395022665     5.6889679476     3.4241732593
NI     17.0283738802     9.8335449059     3.4160694224
NI     11.0294839131     7.7535583868     3.4348152344
NI     13.4378412145    11.9246324427     3.4377737005
NI     12.2305880755     5.6754918937     3.4396620386
NI     15.8362801814    11.9209072305     3.4318022732
NI     17.0439058660     5.6791142189     3.4358346478
NI     18.2386708465     7.7573852409     3.4311397557
NI      9.7994885937     9.8405699793     3.4600290189
NI     11.0143068528    11.9411057094     3.4581670871
NI     13.4210269308     3.5704021423     3.4623255154
NI     18.2516268013    11.9368422702     3.4546069515
NI     15.8468119706     3.5734043507     3.4554721719
NI     19.4607626372     9.8407681242     3.4527145837
NI      4.8472431469     5.6582052064     3.4568728647
NI      7.3220528983     1.3746027544     3.4586502988
NI      9.7891751384     5.6541455523     3.4662080073
NI      3.6514179522     3.5524646421     3.4765017461
NI      6.0687986861     7.7467325498     3.4735930165
NI      4.8980434064     1.3919292771     3.4777959212
NI      8.5600103984     7.7458214480     3.4737140763
NI      9.7424096045     1.3869789398     3.4740362417
NI     10.9872486246     3.5452951611     3.4772936692
NI      2.4553506939     1.4225539076     3.4856873739
NI      7.3130414928     9.8435650354     3.4804721562
NI     12.1806062442     1.4162625809     3.4817586919
NI      6.0937505975     3.5222607613     3.4877534190
NI      7.3155192338     5.6432331667     3.4892067234
NI      8.5430238495     3.5193343213     3.4925475943
NI      8.5542719763    11.9575487704     3.4894775245
NI     14.6310062961     1.4341321143     3.4870393819
NI     20.7040540583    11.9566716560     3.4848064160
AG     -0.0432675887    -0.0066945929     5.7706671628
AG      5.8201038401     5.0379288985     5.7792955203
AG      7.2608374266     2.5473260652     5.7791912497
AG      8.7053212465     5.0491913147     5.7784811146
AG      1.4050355720     2.4824594830     5.7884575181
AG      5.8479974137    10.1466600225     5.7951188740
AG      2.8400539238     0.0071629668     5.7865857575
AG      8.7044721143    10.1506838433     5.7882722411
AG     11.6928788085     0.0141680976     5.7972325704
AG     13.1145673373     2.4919051039     5.7921696235
AG      4.3323790653     2.5169310233     5.8007230876
AG      7.2780385055     7.5896772666     5.7993702944
AG     10.1885391586     2.5300690808     5.7989740573
AG      2.9002964222     5.0029677510     5.8255797309
AG      4.4032102354     7.5754178149     5.8229642447
AG      5.7740420550     0.0365757370     5.8227058333
AG     10.1308626849     7.5946296447     5.8084340755
AG      8.7465014134     0.0446393219     5.8225840915
AG     11.6029577580     5.0213361725     5.8118377536
AG     11.5927189400    10.1594149147     5.8308625489
AG     14.5682918686     4.9856066730     5.8321504656
AG     17.5670894903    10.1547894126     5.8381793494
AG     13.0742193398     7.5683670627     5.8543587648
AG     14.5756930671    10.1606449385     5.8592886229
AG     16.0731833628     7.5603541445     5.8613481828
AG      5.7973302399     3.3641294163     8.1050837198
AG      7.2508958576     5.9014379102     8.0963709454
AG      8.7247717927     3.3680236006     8.1046933096
AG      4.3390181579     5.8965382417     8.1139617635
AG      7.2678554589     0.8408799172     8.1131326870
AG     10.1662885319     5.9047611279     8.0668737291
AG      1.4125026218     0.8331181586     8.1146606903
AG      7.2698409371    10.9879356680     8.1161802837
AG     13.1275308886     0.8383996820     8.1180201810
AG      2.8649098256     3.3523259512     8.1217465651
AG      5.8120668585     8.4497932909     8.1174981496
AG      4.3250495147     0.8320514157     8.1200362804
AG      8.7078086906     8.4687063827     8.0726139640
AG     10.2080441774     0.8403030772     8.1183970652
AG     11.6546000941     3.3600552777     8.1205285094
AG     11.6425002582     8.4506733760     8.1080763774
AG     13.1075086324    10.9768314438     8.1289490774
AG     13.1184043054     5.8843943153     8.1084646345
AG     16.0594148136    10.9766642271     8.1220677830
AG     16.0373055172     5.8840261784     8.1329361045
AG     17.5207836039     8.4394025076     8.1229367109
AG     10.1753058842    10.9844739698     8.1264411580
AG     14.5739261209     3.3464577084     8.1304367275
AG     18.9925710144    10.9820035282     8.1219282533
AG     14.5749105615     8.4311529138     8.1295904935
O      10.6508278115     6.3190568958    10.3014938646
H      12.1082689462     4.8608203262    10.2724861048
C      11.2111680629     5.2879900977    10.7868404734
H       9.0934967760     4.0589634472    11.4606455894
O       9.3932957721     4.5600923622    12.2414648247
C      10.7955917377     4.6526275645    12.1033039717
H      11.2543696855     3.6569452911    12.1252935158
O      12.6379443627     6.0099474554    12.8610018077
C      11.3648152815     5.5161276771    13.2637077772
H      10.6980467709     6.3990428827    13.3517506334
H      13.3119802984     5.4112819758    13.2243420996
H      12.2077191693     3.9133084241    14.5224103802
C      11.4201651046     4.7180464511    14.5942968940
O      10.2108311777     4.0124675248    14.7912658483
O      12.8661851117     6.4155505383    15.5310313877
C      11.7001461227     5.6367364557    15.8147330630
H       9.5200068217     4.6996513736    14.8884475747
H      10.8402603646     6.3206612709    15.9697423939
H      12.9290110201     7.0631783181    16.2540766118
H      12.7601280977     4.1917991883    17.0558003945
C      11.9074751805     4.8678830349    17.1220131026
O      10.7122242810     4.1607070516    17.4492999845
H      12.1621987578     5.5603047454    17.9412900671
H      10.8984088974     3.7191071620    18.2918986285
O       8.7295522070     8.4518791071    10.1313631708
H       8.3734482267     8.7852969552    10.9614354848
