88
Step 1 | ATOMIC_POSITIONS (angstrom) | Cartesian Angstrom
NI      2.8568593560     1.4508721950     3.0000001930
NI      5.7137187120     1.4508721950     3.0000001930
NI      8.5705780690     1.4508721950     3.0000001930
NI     11.4274374250     1.4508721950     3.0000001930
NI      4.2852890340     3.6271804860     3.0000001930
NI      7.1421483910     3.6271804860     3.0000001930
NI      9.9990077470     3.6271804860     3.0000001930
NI     12.8558671030     3.6271804860     3.0000001930
NI      5.7137187120     5.8034887780     3.0000001930
NI      8.5705780690     5.8034887780     3.0000001930
NI     11.4274374250     5.8034887780     3.0000001930
NI     14.2842967810     5.8034887780     3.0000001930
NI      7.1421483910     7.9797970700     3.0000001930
NI      9.9990077470     7.9797970700     3.0000001930
NI     12.8558671030     7.9797970700     3.0000001930
NI     15.7127264590     7.9797970700     3.0000001930
NI      1.4452878889     0.7422203170     4.9758222943
NI      4.3020494533     0.7423047727     4.9757521560
NI      7.1589860466     0.7422561479     4.9759985614
NI     10.0157870457     0.7421944664     4.9757967938
NI      2.8576163005     2.9023858237     4.9920148023
NI      5.7145285716     2.9023697081     4.9921110267
NI      8.5713416458     2.9024077618     4.9920067340
NI     11.4282620032     2.9024388603     4.9921059701
NI      4.2855316108     5.0774466910     4.9921572794
NI      7.1424708956     5.0773997174     4.9920837493
NI      9.9993378401     5.0774077933     4.9921904003
NI     12.8562176422     5.0774069335     4.9921058956
NI      5.7040654253     7.2393185768     4.9929475867
NI      8.5609374850     7.2392736582     4.9928945689
NI     11.4178603108     7.2392344758     4.9929530768
NI     14.2746033732     7.2393117459     4.9928726588
AG      1.4600360729     2.2336377585     7.2179079451
AG      4.3167847339     2.2335855357     7.2178426135
AG      7.1738735867     2.2338783515     7.2182139764
AG     10.0304281681     2.2338042629     7.2180762881
AG      2.8566657372     4.3540919003     7.2181082031
AG      5.7137175810     4.3541084574     7.2179572760
AG      8.5704283857     4.3539998038     7.2183150677
AG     11.4272052340     4.3541445607     7.2179931368
AG      4.2838324128     6.5289813136     7.2183140556
AG      7.1407917811     6.5288352525     7.2181365245
AG      9.9976350746     6.5287944910     7.2183802184
AG     12.8545496896     6.5289214618     7.2182838582
AG      5.6751002928     8.6469745771     7.2343799646
AG      8.5320003655     8.6470598574     7.2342476832
AG     11.3887437168     8.6469138650     7.2342414645
AG     14.2457728315     8.6468356160     7.2341760297
AG      2.8873803219     1.5055909178     9.6193575535
AG      5.7441259491     1.5056388917     9.6192907687
AG      8.6010758559     1.5051879419     9.6189475785
AG     11.4577797112     1.5055963736     9.6193134376
AG      4.2874235513     3.6288544827     9.6215613224
AG      7.1434956272     3.6281090884     9.6193802798
AG     10.0014785440     3.6286169840     9.6213347017
AG     12.8576251178     3.6287825179     9.6212705705
AG      5.7134481781     5.8046461981     9.6211613369
AG      8.5710003195     5.8058684849     9.6186506688
AG     11.4271952376     5.8044028418     9.6212683453
AG     14.2841758904     5.8044658373     9.6211856676
AG      7.1119276539     7.9250588897     9.6216181372
AG      9.9686014127     7.9254555142     9.6214776985
AG     12.8256287804     7.9257113806     9.6213504982
AG     15.6824444961     7.9255586928     9.6211442808
H       7.4978254682     5.1632922561    12.1682085076
O       8.0730049263     4.3317212075    12.4466012716
H       6.1647851658     3.3556431262    12.7042672670
C       7.1328256419     3.5351716309    13.1878145745
H       7.6244119883     2.5264705322    13.2034085413
H       9.3891908157     4.9821003042    13.7982668521
H       6.5413064613     4.9858355171    14.5626462942
C       7.0177230234     3.9719478440    14.6393586432
O       9.2803724116     5.2092001858    14.7627653377
H       8.9761898565     3.2599068538    15.2886374973
O       6.0511291039     3.0856718009    15.2924281894
C       8.3990729928     4.2277711634    15.3520720136
C       5.7588107647     3.4245755061    16.6470082325
O       5.0640570782     4.6934088164    16.6715595030
C       8.2195639651     4.4799808949    16.8470847273
H       7.9482252089     5.5686622789    16.9333502147
H       5.0099383443     2.7050914652    17.0568344157
H       5.4381742182     5.1158179977    17.4297874976
C       7.0703128985     3.6094856528    17.4646248410
O       9.4786377716     4.4266245355    17.5478107254
H       7.4911905414     2.5814482530    17.5985866215
H       9.2961151700     4.7031128895    18.4816309366
O       6.7792522395     4.0543554670    18.8198580252
H       6.2659211070     3.3809528278    19.2621282270
