88
Step 1 | ATOMIC_POSITIONS (angstrom) | Cartesian Angstrom
Ni      2.6797587124     1.5471594140     1.5000001930
Ni      5.3595174249     1.5471594140     1.5000001930
Ni      8.0392761373     1.5471594140     1.5000001930
Ni     10.7190348497     1.5471594140     1.5000001930
Ni      4.0196380686     3.8678985350     1.5000001930
Ni      6.6993967811     3.8678985350     1.5000001930
Ni      9.3791554935     3.8678985350     1.5000001930
Ni     12.0589142059     3.8678985350     1.5000001930
Ni      5.3595174249     6.1886376559     1.5000001930
Ni      8.0392761373     6.1886376559     1.5000001930
Ni     10.7190348497     6.1886376559     1.5000001930
Ni     13.3987935621     6.1886376559     1.5000001930
Ni      6.6993967811     8.5093767769     1.5000001930
Ni      9.3791554935     8.5093767769     1.5000001930
Ni     12.0589142059     8.5093767769     1.5000001930
Ni     14.7386729183     8.5093767769     1.5000001930
Ni      1.3397867331     0.7737149581     3.3677855521
Ni      9.3793118287     0.7734627159     3.3680680358
Ni      5.3593363759     7.7360719350     3.3684348709
Ni      5.3593133374     3.0942222183     3.3680990277
Ni      4.0195327781     0.7739966444     3.3682111368
Ni      6.6994132182     0.7736587496     3.3680768554
Ni      2.6798629331     3.0942275808     3.3677662018
Ni      8.0391929974     3.0942975247     3.3687728461
Ni      4.0194411670     5.4149862967     3.3682460956
Ni      6.6995993247     5.4150352090     3.3683737986
Ni     10.7192397668     3.0941595711     3.3682415181
Ni      8.0392202514     7.7357263210     3.3683737942
Ni     13.3989475590     7.7357865114     3.3679580940
Ni      9.3787543711     5.4150476139     3.3680232192
Ni     12.0592614602     5.4149600993     3.3681881786
Ni     10.7191417907     7.7359997734     3.3685779954
Ag      5.3598231389     9.2828274889     5.5908146536
Ag      4.0197276300     2.3206837865     5.5909828971
Ag      6.6993662963     2.3207782070     5.5909057656
Ag      5.3600784354     4.6417312433     5.5908137988
Ag      1.3398088761     2.3209614067     5.5913262938
Ag      9.3791861339     2.3205271391     5.5907544261
Ag      4.0198471693     6.9622557437     5.5902835902
Ag      6.6999072018     6.9616088122     5.5920130838
Ag      8.0391320510     9.2825267937     5.5911397482
Ag     13.3987491664     9.2827811665     5.5909741199
Ag      2.6794000834     4.6413082624     5.5910577157
Ag      8.0390044868     4.6428847891     5.5932040301
Ag     10.7189474914     9.2829229349     5.5905324949
Ag     10.7191890406     4.6414107957     5.5905886178
Ag      9.3779569581     6.9618703719     5.5921250129
Ag     12.0592045038     6.9621968949     5.5907387466
Ag      5.3591531074     1.5468720663     8.3503713161
Ag      4.0197195372     3.8681182095     8.3500389847
Ag      6.6930455496     3.8613461365     8.3418773583
Ag      2.6792377877     1.5475720273     8.3495219663
Ag      8.0391688101     1.5461171204     8.3511712786
Ag      5.3560148510     6.1891297246     8.3497819729
Ag      9.3834163895     3.8652513926     8.3464697185
Ag     12.0584525216     3.8679886845     8.3499992535
Ag      8.0472529355     6.1908438934     8.3256032589
Ag     13.3994044295     6.1885986695     8.3502792243
Ag      9.3811663709     8.5106142528     8.3502353540
Ag     12.0590556897     8.5098899759     8.3497719905
Ag     10.7208683980     6.1882060599     8.3492955880
Ag     10.7199718499     1.5467543433     8.3503261537
Ag      6.6971919497     8.5124646233     8.3502857796
Ag     14.7381938763     8.5096615907     8.3502392875
H       7.6917940151     4.3618907724    10.1259100134
O       7.5843293452     6.6799498058    10.4602324441
C       7.5520433114     5.3496705595    10.8390832462
O       7.9369032449     2.1227209359    11.7809782345
H       5.5628278069     4.6374050476    11.9110289971
H       8.5331464979     1.3445852627    12.1051459287
C       6.7954288676     4.8699785002    12.1185558432
H       6.2438088442     6.9430757868    12.7716057051
C       7.6938880799     3.2934457711    12.8148784647
O       6.8902585329     6.1833261663    13.0271744208
H       8.8213860987     3.6266937343    13.1846276009
H       5.6926493454     1.9974362625    13.4753874871
C       6.7005400051     2.5191909457    13.9262359039
O       7.6203923922     1.2118327927    14.3801195621
H       5.3999232554     4.4910877422    14.6217295782
C       6.1133628671     3.6041859312    15.0744755605
H       7.3830039053     0.9526975498    15.3120918640
H       8.3501249058     4.9853428149    15.3405714544
O       5.0261220830     2.7197634064    15.8334194928
C       7.4739824849     4.4137613780    15.9503270993
H       8.1654114496     3.5931271993    16.5276601258
O       6.8476697708     5.6010941548    16.7892568681
H       5.1173577180     2.9318902370    16.7801208270
H       7.5513580643     6.0221833205    17.2973319947
88
Step 2 | ATOMIC_POSITIONS (angstrom) | Cartesian Angstrom
Ni      2.6797587124     1.5471594140     1.5000001930
Ni      5.3595174249     1.5471594140     1.5000001930
Ni      8.0392761373     1.5471594140     1.5000001930
Ni     10.7190348497     1.5471594140     1.5000001930
Ni      4.0196380686     3.8678985350     1.5000001930
Ni      6.6993967811     3.8678985350     1.5000001930
Ni      9.3791554935     3.8678985350     1.5000001930
Ni     12.0589142059     3.8678985350     1.5000001930
Ni      5.3595174249     6.1886376559     1.5000001930
Ni      8.0392761373     6.1886376559     1.5000001930
Ni     10.7190348497     6.1886376559     1.5000001930
Ni     13.3987935621     6.1886376559     1.5000001930
Ni      6.6993967811     8.5093767769     1.5000001930
Ni      9.3791554935     8.5093767769     1.5000001930
Ni     12.0589142059     8.5093767769     1.5000001930
Ni     14.7386729183     8.5093767769     1.5000001930
Ni      1.3397920407     0.7738941053     3.3671199374
Ni      9.3793142348     0.7734251173     3.3676050533
Ni      5.3591904941     7.7362480059     3.3684375633
Ni      5.3591050381     3.0940786025     3.3677763325
Ni      4.0194728669     0.7743007961     3.3679535421
Ni      6.6994483038     0.7736144967     3.3676308602
Ni      2.6798330065     3.0942697248     3.3671404231
Ni      8.0392397880     3.0943293648     3.3690601087
Ni      4.0191001807     5.4148997998     3.3680032425
Ni      6.6999875090     5.4150441443     3.3683501040
Ni     10.7194588730     3.0942852885     3.3679593103
Ni      8.0393790438     7.7355009229     3.3682770161
Ni     13.3988326469     7.7356834615     3.3673692634
Ni      9.3784893598     5.4151246428     3.3676674611
Ni     12.0594268094     5.4149224508     3.3678277379
Ni     10.7192818862     7.7360181168     3.3686188695
Ag      5.3601181540     9.2827434655     5.5906173229
Ag      4.0198737030     2.3206067582     5.5910041838
Ag      6.6994496307     2.3207962409     5.5906813435
Ag      5.3603585499     4.6418869293     5.5904097047
Ag      1.3396551352     2.3210701762     5.5917367563
Ag      9.3791573122     2.3203717405     5.5905282735
Ag      4.0200903631     6.9622920829     5.5894327378
Ag      6.7000771201     6.9611854478     5.5931455186
Ag      8.0389839560     9.2823266044     5.5911516900
Ag     13.3987205884     9.2825763656     5.5909281848
Ag      2.6791612789     4.6411980813     5.5910824065
Ag      8.0388343485     4.6437521689     5.5951240726
Ag     10.7188731261     9.2828064114     5.5899212893
Ag     10.7193685266     4.6414199534     5.5897531650
Ag      9.3771887297     6.9617241950     5.5929511484
Ag     12.0593684595     6.9621865336     5.5903824305
Ag      5.3585366603     1.5462392756     8.3508944018
Ag      4.0195570622     3.8682818806     8.3503805337
Ag      6.6876605264     3.8554013642     8.3319146899
Ag      2.6788483398     1.5478631045     8.3490742131
Ag      8.0392670003     1.5451872153     8.3526886861
Ag      5.3528160666     6.1895710565     8.3482526849
Ag      9.3869687159     3.8624237249     8.3423854028
Ag     12.0583438645     3.8680655224     8.3501917843
Ag      8.0550002897     6.1939693780     8.2929967475
Ag     13.3997009481     6.1885259045     8.3506579457
Ag      9.3831609330     8.5122632063     8.3501797772
Ag     12.0592896473     8.5102403827     8.3496534602
Ag     10.7231346485     6.1878904936     8.3486473093
Ag     10.7207806105     1.5465516723     8.3506549429
Ag      6.6949601484     8.5156541289     8.3494637036
Ag     14.7378121882     8.5097924166     8.3506637657
H       7.7003135348     4.4166599847    10.1553389790
O       7.5808856084     6.5576940164    10.5068239412
C       7.5163470067     5.3752892438    10.8440296263
O       7.9488300198     2.1428476189    11.7951751703
H       5.6450259697     4.6428220348    11.9270803064
H       8.4921898992     1.4124002285    12.1056426247
C       6.7769237153     4.9162155416    12.0955121535
H       6.2827833128     6.8765063123    12.7729014887
C       7.7085973700     3.2486207896    12.8406679597
O       6.8581791039     6.1562656978    13.0148016618
H       8.7418467303     3.6130919108    13.1686171746
H       5.7617504981     2.0329400179    13.4931096342
C       6.6883172565     2.5239552188    13.9234664365
O       7.5801565003     1.2795128993    14.3782682501
H       5.4566250813     4.4361259804    14.6400900023
C       6.1120812076     3.6095855122    15.0664252102
H       7.3789362756     0.9644646158    15.2962158069
H       8.2841105751     4.9473219011    15.3493254455
O       5.0924735506     2.7599012035    15.8161959726
C       7.4913392383     4.4245384362    15.9604605967
H       8.1097886947     3.6369823016    16.5118971400
O       6.8803801306     5.5395529927    16.7695379983
H       5.1158223881     2.9340957777    16.7821143703
H       7.5396072497     6.0105308350    17.2845791104
