88
Step 1 | ATOMIC_POSITIONS (angstrom) | Cartesian Angstrom
NI      2.6797587120     1.5471594140     1.5000001930
NI      5.3595174250     1.5471594140     1.5000001930
NI      8.0392761370     1.5471594140     1.5000001930
NI     10.7190348500     1.5471594140     1.5000001930
NI      4.0196380690     3.8678985350     1.5000001930
NI      6.6993967810     3.8678985350     1.5000001930
NI      9.3791554940     3.8678985350     1.5000001930
NI     12.0589142060     3.8678985350     1.5000001930
NI      5.3595174250     6.1886376560     1.5000001930
NI      8.0392761370     6.1886376560     1.5000001930
NI     10.7190348500     6.1886376560     1.5000001930
NI     13.3987935620     6.1886376560     1.5000001930
NI      6.6993967810     8.5093767770     1.5000001930
NI      9.3791554940     8.5093767770     1.5000001930
NI     12.0589142060     8.5093767770     1.5000001930
NI     14.7386729180     8.5093767770     1.5000001930
NI      1.3398944527     0.7735765481     3.3679149511
NI      9.3793048194     0.7733658622     3.3679823375
NI      5.3594796196     7.7361513743     3.3681565727
NI      5.3596587890     3.0944400615     3.3683298461
NI      4.0193796174     0.7735774707     3.3681547733
NI      6.6995453104     0.7734353614     3.3684430490
NI      2.6795487474     3.0941696254     3.3681212915
NI      8.0392186225     3.0943283076     3.3681508392
NI      4.0195436284     5.4151077269     3.3684422830
NI      6.6992885050     5.4148081422     3.3683606153
NI     10.7190788489     3.0940591316     3.3680166454
NI      8.0390156430     7.7360724642     3.3681147264
NI     13.3989807457     7.7359320740     3.3680953009
NI      9.3792213918     5.4148800221     3.3685196873
NI     12.0590798255     5.4149251901     3.3681567684
NI     10.7190993118     7.7359231010     3.3679069146
AG      5.3594161671     9.2829667393     5.5911344114
AG      4.0198956374     2.3210264007     5.5907344450
AG      6.6993367071     2.3216813023     5.5918888319
AG      5.3600261779     4.6412285526     5.5914916466
AG      1.3397402119     2.3207891838     5.5909269991
AG      9.3791011516     2.3206589450     5.5910517091
AG      4.0196759389     6.9620910898     5.5907378552
AG      6.6994748479     6.9620926425     5.5907146978
AG      8.0391977451     9.2828738575     5.5910749461
AG     13.3991136510     9.2828885890     5.5907026611
AG      2.6801497235     4.6414577667     5.5908528085
AG      8.0383843976     4.6407110237     5.5924370262
AG     10.7189333490     9.2829054217     5.5906129097
AG     10.7190241663     4.6414241109     5.5906594391
AG      9.3792502992     6.9624899589     5.5905524318
AG     12.0587422591     6.9622208669     5.5910879071
AG      5.3585593746     1.5459704392     8.3503937504
AG      4.0190654277     3.8675825585     8.3516449048
AG      6.6913544488     3.8630291474     8.3271479896
AG      2.6796361151     1.5473563932     8.3501871125
AG      8.0406251713     1.5454611466     8.3514928768
AG      5.3587000458     6.1896154737     8.3518186256
AG      9.3834133448     3.8678856213     8.3473310775
AG     12.0594603175     3.8678075559     8.3504252575
AG      8.0419917533     6.1931482437     8.3467306924
AG     13.3980333491     6.1890604818     8.3497694538
AG      9.3789591502     8.5096863481     8.3501795242
AG     12.0588829707     8.5093671372     8.3497899312
AG     10.7185544681     6.1883025190     8.3500872282
AG     10.7188982889     1.5470931256     8.3500179295
AG      6.6990716222     8.5091941394     8.3501139855
AG     14.7389191007     8.5088238193     8.3498438474
O       6.0385157259     4.1603951705    10.6449508169
C       7.2155694076     3.8201417287    10.9408072034
C       7.8805906647     4.4600231912    12.1240200982
O       9.2988281098     4.4107377108    12.0315324328
C       7.4325474498     3.7169095250    13.3922803404
O       6.0177734582     3.6083748134    13.3369182431
C       7.9732460699     4.3487566862    14.6769951371
O       7.5240368626     5.7149627096    14.7368184648
C       7.6468358739     3.5608471507    15.9938391550
O       7.9421526044     2.1947700473    15.7223604964
C       8.5131824101     4.0586034391    17.1666338333
O       8.0788947879     3.3430138878    18.3475888486
H       7.7689036452     4.3459883767    10.0189000467
H       7.5151401227     5.5059213263    12.0591257890
H       9.5476036992     5.0396561445    11.3139189882
H       7.8276060420     2.7210993980    13.2364787781
H       5.6519229075     3.9384942465    14.1723530438
H       9.0401667152     4.3880225965    14.5307792133
H       7.1355811985     5.8890474497    15.6021541137
H       6.5919187020     3.6518638173    16.3207464385
H       7.6162306240     1.6874961258    16.4990812715
H       9.5731184066     3.8813644089    17.0071428086
H       8.4311777314     5.1202032941    17.3521263033
H       8.6590175176     3.6741304434    19.0691285666
88
Step 2 | ATOMIC_POSITIONS (angstrom) | Cartesian Angstrom
NI      2.6797587120     1.5471594140     1.5000001930
NI      5.3595174250     1.5471594140     1.5000001930
NI      8.0392761370     1.5471594140     1.5000001930
NI     10.7190348500     1.5471594140     1.5000001930
NI      4.0196380690     3.8678985350     1.5000001930
NI      6.6993967810     3.8678985350     1.5000001930
NI      9.3791554940     3.8678985350     1.5000001930
NI     12.0589142060     3.8678985350     1.5000001930
NI      5.3595174250     6.1886376560     1.5000001930
NI      8.0392761370     6.1886376560     1.5000001930
NI     10.7190348500     6.1886376560     1.5000001930
NI     13.3987935620     6.1886376560     1.5000001930
NI      6.6993967810     8.5093767770     1.5000001930
NI      9.3791554940     8.5093767770     1.5000001930
NI     12.0589142060     8.5093767770     1.5000001930
NI     14.7386729180     8.5093767770     1.5000001930
NI      1.3399529131     0.7735913281     3.3673849323
NI      9.3794969332     0.7731653386     3.3676327666
NI      5.3595681304     7.7364479676     3.3679563447
NI      5.3597818606     3.0946144183     3.3681702959
NI      4.0192161726     0.7733761373     3.3677124992
NI      6.6995174249     0.7730387669     3.3684675561
NI      2.6792926673     3.0941963504     3.3677176306
NI      8.0392177619     3.0945599059     3.3680680038
NI      4.0192660221     5.4151703936     3.3684827196
NI      6.6993420208     5.4145626659     3.3683600016
NI     10.7191151834     3.0940623174     3.3674514937
NI      8.0390029814     7.7362175057     3.3675881022
NI     13.3988475638     7.7359121451     3.3675805260
NI      9.3794895503     5.4148793271     3.3684637041
NI     12.0590420332     5.4149802236     3.3677773703
NI     10.7190925483     7.7358702135     3.3672579886
AG      5.3593442216     9.2827282870     5.5913116778
AG      4.0197937785     2.3210581400     5.5904601427
AG      6.6994354454     2.3221528598     5.5926891882
AG      5.3605702032     4.6411816716     5.5920123865
AG      1.3399006336     2.3208928833     5.5909450930
AG      9.3789997863     2.3206825962     5.5911129985
AG      4.0195114902     6.9620269056     5.5903109476
AG      6.6998159972     6.9620110366     5.5903446991
AG      8.0390927778     9.2829875395     5.5915365837
AG     13.3993390067     9.2827171825     5.5902142067
AG      2.6804988028     4.6415022246     5.5905314068
AG      8.0379507290     4.6401016137     5.5935615661
AG     10.7189256646     9.2829045229     5.5900576899
AG     10.7185871802     4.6413705241     5.5903205877
AG      9.3791244144     6.9624661898     5.5900753106
AG     12.0587195919     6.9622317470     5.5909886534
AG      5.3572105586     1.5442613309     8.3503394526
AG      4.0169682713     3.8671854660     8.3521451587
AG      6.6870549387     3.8586769885     8.2934122965
AG      2.6797199263     1.5475456824     8.3503609057
AG      8.0418480111     1.5426424750     8.3524771294
AG      5.3571185134     6.1915044708     8.3524216428
AG      9.3858744340     3.8689559583     8.3461079274
AG     12.0597733545     3.8674272412     8.3508361997
AG      8.0443068516     6.1961329398     8.3438804986
AG     13.3974799597     6.1893280567     8.3495683662
AG      9.3784169364     8.5102837360     8.3501861388
AG     12.0588926849     8.5092827682     8.3496546865
AG     10.7188932643     6.1883201765     8.3503364638
AG     10.7188673098     1.5472857894     8.3500721461
AG      6.6991263313     8.5089713115     8.3501694673
AG     14.7390945640     8.5084114413     8.3495153066
O       6.0098987909     4.1211881897    10.6743581069
C       7.1698545060     3.8986547704    10.9223983539
C       7.8884714563     4.4539001132    12.1455090904
O       9.3050211013     4.4162071448    12.0316120108
C       7.4281505177     3.7146129925    13.3910143135
O       6.0065070714     3.6063034035    13.3434563915
C       7.9690810813     4.3459770583    14.6730428335
O       7.5188502281     5.7191721457    14.7349684649
C       7.6647601621     3.5654288005    15.9941252085
O       7.9372565170     2.1835825548    15.7256383362
C       8.5146052157     4.0598003817    17.1724063159
O       8.0808520605     3.3434585449    18.3539767945
H       7.8266811027     4.3285670173     9.9992059117
H       7.5148834071     5.5008549160    12.0700660197
H       9.5506760380     5.0346534005    11.3174799150
H       7.8394850840     2.7107233410    13.2500300250
H       5.6478678798     3.9434941176    14.1749877234
H       9.0579374654     4.3821352590    14.5365986136
H       7.1304610912     5.8931201009    15.6116812019
H       6.5898280449     3.6586953728    16.3118500659
H       7.6216145790     1.6887749796    16.4951726686
H       9.5797888831     3.8714304090    16.9935452211
H       8.4199191314     5.1374612347    17.3465917222
H       8.6513437163     3.6666908335    19.0666055620
