88
Step 1 | ATOMIC_POSITIONS (angstrom) | Cartesian Angstrom
NI      2.6797587120     1.5471594140     1.5000001930
NI      5.3595174250     1.5471594140     1.5000001930
NI      8.0392761370     1.5471594140     1.5000001930
NI     10.7190348500     1.5471594140     1.5000001930
NI      4.0196380690     3.8678985350     1.5000001930
NI      6.6993967810     3.8678985350     1.5000001930
NI      9.3791554940     3.8678985350     1.5000001930
NI     12.0589142060     3.8678985350     1.5000001930
NI      5.3595174250     6.1886376560     1.5000001930
NI      8.0392761370     6.1886376560     1.5000001930
NI     10.7190348500     6.1886376560     1.5000001930
NI     13.3987935620     6.1886376560     1.5000001930
NI      6.6993967810     8.5093767770     1.5000001930
NI      9.3791554940     8.5093767770     1.5000001930
NI     12.0589142060     8.5093767770     1.5000001930
NI     14.7386729180     8.5093767770     1.5000001930
NI      1.3398944527     0.7735765481     3.3679149511
NI      9.3793048194     0.7733658622     3.3679823375
NI      5.3594796196     7.7361513743     3.3681565727
NI      5.3596587890     3.0944400615     3.3683298461
NI      4.0193796174     0.7735774707     3.3681547733
NI      6.6995453104     0.7734353614     3.3684430490
NI      2.6795487474     3.0941696254     3.3681212915
NI      8.0392186225     3.0943283076     3.3681508392
NI      4.0195436284     5.4151077269     3.3684422830
NI      6.6992885050     5.4148081422     3.3683606153
NI     10.7190788489     3.0940591316     3.3680166454
NI      8.0390156430     7.7360724642     3.3681147264
NI     13.3989807457     7.7359320740     3.3680953009
NI      9.3792213918     5.4148800221     3.3685196873
NI     12.0590798255     5.4149251901     3.3681567684
NI     10.7190993118     7.7359231010     3.3679069146
AG      5.3594161671     9.2829667393     5.5911344114
AG      4.0198956374     2.3210264007     5.5907344450
AG      6.6993367071     2.3216813023     5.5918888319
AG      5.3600261779     4.6412285526     5.5914916466
AG      1.3397402119     2.3207891838     5.5909269991
AG      9.3791011516     2.3206589450     5.5910517091
AG      4.0196759389     6.9620910898     5.5907378552
AG      6.6994748479     6.9620926425     5.5907146978
AG      8.0391977451     9.2828738575     5.5910749461
AG     13.3991136510     9.2828885890     5.5907026611
AG      2.6801497235     4.6414577667     5.5908528085
AG      8.0383843976     4.6407110237     5.5924370262
AG     10.7189333490     9.2829054217     5.5906129097
AG     10.7190241663     4.6414241109     5.5906594391
AG      9.3792502992     6.9624899589     5.5905524318
AG     12.0587422591     6.9622208669     5.5910879071
AG      5.3585593746     1.5459704392     8.3503937504
AG      4.0190654277     3.8675825585     8.3516449048
AG      6.6913544488     3.8630291474     8.3271479896
AG      2.6796361151     1.5473563932     8.3501871125
AG      8.0406251713     1.5454611466     8.3514928768
AG      5.3587000458     6.1896154737     8.3518186256
AG      9.3834133448     3.8678856213     8.3473310775
AG     12.0594603175     3.8678075559     8.3504252575
AG      8.0419917533     6.1931482437     8.3467306924
AG     13.3980333491     6.1890604818     8.3497694538
AG      9.3789591502     8.5096863481     8.3501795242
AG     12.0588829707     8.5093671372     8.3497899312
AG     10.7185544681     6.1883025190     8.3500872282
AG     10.7188982889     1.5470931256     8.3500179295
AG      6.6990716222     8.5091941394     8.3501139855
AG     14.7389191007     8.5088238193     8.3498438474
O       6.0385157259     4.1603951705    10.6449508169
C       7.2155694076     3.8201417287    10.9408072034
C       7.8805906647     4.4600231912    12.1240200982
O       9.2988281098     4.4107377108    12.0315324328
C       7.4325474498     3.7169095250    13.3922803404
O       6.0177734582     3.6083748134    13.3369182431
C       7.9732460699     4.3487566862    14.6769951371
O       7.5240368626     5.7149627096    14.7368184648
C       7.6468358739     3.5608471507    15.9938391550
O       7.9421526044     2.1947700473    15.7223604964
C       8.5131824101     4.0586034391    17.1666338333
O       8.0788947879     3.3430138878    18.3475888486
H       7.7689036452     4.3459883767    10.0189000467
H       7.5151401227     5.5059213263    12.0591257890
H       9.5476036992     5.0396561445    11.3139189882
H       7.8276060420     2.7210993980    13.2364787781
H       5.6519229075     3.9384942465    14.1723530438
H       9.0401667152     4.3880225965    14.5307792133
H       7.1355811985     5.8890474497    15.6021541137
H       6.5919187020     3.6518638173    16.3207464385
H       7.6162306240     1.6874961258    16.4990812715
H       9.5731184066     3.8813644089    17.0071428086
H       8.4311777314     5.1202032941    17.3521263033
H       8.6590175176     3.6741304434    19.0691285666
88
Step 2 | ATOMIC_POSITIONS (angstrom) | Cartesian Angstrom
NI      2.6797587120     1.5471594140     1.5000001930
NI      5.3595174250     1.5471594140     1.5000001930
NI      8.0392761370     1.5471594140     1.5000001930
NI     10.7190348500     1.5471594140     1.5000001930
NI      4.0196380690     3.8678985350     1.5000001930
NI      6.6993967810     3.8678985350     1.5000001930
NI      9.3791554940     3.8678985350     1.5000001930
NI     12.0589142060     3.8678985350     1.5000001930
NI      5.3595174250     6.1886376560     1.5000001930
NI      8.0392761370     6.1886376560     1.5000001930
NI     10.7190348500     6.1886376560     1.5000001930
NI     13.3987935620     6.1886376560     1.5000001930
NI      6.6993967810     8.5093767770     1.5000001930
NI      9.3791554940     8.5093767770     1.5000001930
NI     12.0589142060     8.5093767770     1.5000001930
NI     14.7386729180     8.5093767770     1.5000001930
NI      1.3399529131     0.7735913281     3.3673849323
NI      9.3794969332     0.7731653386     3.3676327666
NI      5.3595681304     7.7364479676     3.3679563447
NI      5.3597818606     3.0946144183     3.3681702959
NI      4.0192161726     0.7733761373     3.3677124992
NI      6.6995174249     0.7730387669     3.3684675561
NI      2.6792926673     3.0941963504     3.3677176306
NI      8.0392177619     3.0945599059     3.3680680038
NI      4.0192660221     5.4151703936     3.3684827196
NI      6.6993420208     5.4145626659     3.3683600016
NI     10.7191151834     3.0940623174     3.3674514937
NI      8.0390029814     7.7362175057     3.3675881022
NI     13.3988475638     7.7359121451     3.3675805260
NI      9.3794895503     5.4148793271     3.3684637041
NI     12.0590420332     5.4149802236     3.3677773703
NI     10.7190925483     7.7358702135     3.3672579886
AG      5.3593442216     9.2827282870     5.5913116778
AG      4.0197937785     2.3210581400     5.5904601427
AG      6.6994354454     2.3221528598     5.5926891882
AG      5.3605702032     4.6411816716     5.5920123865
AG      1.3399006336     2.3208928833     5.5909450930
AG      9.3789997863     2.3206825962     5.5911129985
AG      4.0195114902     6.9620269056     5.5903109476
AG      6.6998159972     6.9620110366     5.5903446991
AG      8.0390927778     9.2829875395     5.5915365837
AG     13.3993390067     9.2827171825     5.5902142067
AG      2.6804988028     4.6415022246     5.5905314068
AG      8.0379507290     4.6401016137     5.5935615661
AG     10.7189256646     9.2829045229     5.5900576899
AG     10.7185871802     4.6413705241     5.5903205877
AG      9.3791244144     6.9624661898     5.5900753106
AG     12.0587195919     6.9622317470     5.5909886534
AG      5.3572105586     1.5442613309     8.3503394526
AG      4.0169682713     3.8671854660     8.3521451587
AG      6.6870549387     3.8586769885     8.2934122965
AG      2.6797199263     1.5475456824     8.3503609057
AG      8.0418480111     1.5426424750     8.3524771294
AG      5.3571185134     6.1915044708     8.3524216428
AG      9.3858744340     3.8689559583     8.3461079274
AG     12.0597733545     3.8674272412     8.3508361997
AG      8.0443068516     6.1961329398     8.3438804986
AG     13.3974799597     6.1893280567     8.3495683662
AG      9.3784169364     8.5102837360     8.3501861388
AG     12.0588926849     8.5092827682     8.3496546865
AG     10.7188932643     6.1883201765     8.3503364638
AG     10.7188673098     1.5472857894     8.3500721461
AG      6.6991263313     8.5089713115     8.3501694673
AG     14.7390945640     8.5084114413     8.3495153066
O       6.0098987909     4.1211881897    10.6743581069
C       7.1698545060     3.8986547704    10.9223983539
C       7.8884714563     4.4539001132    12.1455090904
O       9.3050211013     4.4162071448    12.0316120108
C       7.4281505177     3.7146129925    13.3910143135
O       6.0065070714     3.6063034035    13.3434563915
C       7.9690810813     4.3459770583    14.6730428335
O       7.5188502281     5.7191721457    14.7349684649
C       7.6647601621     3.5654288005    15.9941252085
O       7.9372565170     2.1835825548    15.7256383362
C       8.5146052157     4.0598003817    17.1724063159
O       8.0808520605     3.3434585449    18.3539767945
H       7.8266811027     4.3285670173     9.9992059117
H       7.5148834071     5.5008549160    12.0700660197
H       9.5506760380     5.0346534005    11.3174799150
H       7.8394850840     2.7107233410    13.2500300250
H       5.6478678798     3.9434941176    14.1749877234
H       9.0579374654     4.3821352590    14.5365986136
H       7.1304610912     5.8931201009    15.6116812019
H       6.5898280449     3.6586953728    16.3118500659
H       7.6216145790     1.6887749796    16.4951726686
H       9.5797888831     3.8714304090    16.9935452211
H       8.4199191314     5.1374612347    17.3465917222
H       8.6513437163     3.6666908335    19.0666055620
88
Step 3 | ATOMIC_POSITIONS (angstrom) | Cartesian Angstrom
NI      2.6797587120     1.5471594140     1.5000001930
NI      5.3595174250     1.5471594140     1.5000001930
NI      8.0392761370     1.5471594140     1.5000001930
NI     10.7190348500     1.5471594140     1.5000001930
NI      4.0196380690     3.8678985350     1.5000001930
NI      6.6993967810     3.8678985350     1.5000001930
NI      9.3791554940     3.8678985350     1.5000001930
NI     12.0589142060     3.8678985350     1.5000001930
NI      5.3595174250     6.1886376560     1.5000001930
NI      8.0392761370     6.1886376560     1.5000001930
NI     10.7190348500     6.1886376560     1.5000001930
NI     13.3987935620     6.1886376560     1.5000001930
NI      6.6993967810     8.5093767770     1.5000001930
NI      9.3791554940     8.5093767770     1.5000001930
NI     12.0589142060     8.5093767770     1.5000001930
NI     14.7386729180     8.5093767770     1.5000001930
NI      1.3400177210     0.7736213840     3.3668810370
NI      9.3797495948     0.7729508441     3.3673253587
NI      5.3597214920     7.7367942207     3.3677882819
NI      5.3599368920     3.0948485228     3.3680770544
NI      4.0189916754     0.7731728869     3.3672852620
NI      6.6994524126     0.7725592270     3.3685566023
NI      2.6789875402     3.0942622861     3.3673396457
NI      8.0392207369     3.0948589911     3.3680734752
NI      4.0189293142     5.4152656548     3.3686025016
NI      6.6994762490     5.4142776201     3.3684356273
NI     10.7191476965     3.0940738899     3.3669101664
NI      8.0390062073     7.7363692970     3.3670164044
NI     13.3986347707     7.7358882779     3.3670730954
NI      9.3797293672     5.4148849032     3.3683991196
NI     12.0589807947     5.4150827992     3.3674086040
NI     10.7190607553     7.7358146025     3.3665849846
AG      5.3593299045     9.2823885195     5.5916041983
AG      4.0196562491     2.3210417138     5.5900862403
AG      6.6995314484     2.3222256156     5.5933269354
AG      5.3609936226     4.6413235810     5.5923983846
AG      1.3400746428     2.3210766435     5.5909100702
AG      9.3789216081     2.3205358372     5.5911048851
AG      4.0193267206     6.9618861017     5.5897343048
AG      6.7002558882     6.9619702892     5.5898822900
AG      8.0389593586     9.2831286140     5.5921973373
AG     13.3995626564     9.2825202171     5.5896729295
AG      2.6808312365     4.6415649719     5.5901334511
AG      8.0377828222     4.6395627609     5.5946570070
AG     10.7189109924     9.2829271991     5.5894644283
AG     10.7180528097     4.6413414956     5.5898473895
AG      9.3789351556     6.9623865727     5.5895414929
AG     12.0586974623     6.9622049761     5.5909331834
AG      5.3558274119     1.5421376438     8.3500882892
AG      4.0138938682     3.8668896813     8.3522660465
AG      6.6829106238     3.8541604839     8.2477839106
AG      2.6797498849     1.5477094971     8.3505056350
AG      8.0430577196     1.5396108057     8.3530956654
AG      5.3556700313     6.1933758819     8.3526030948
AG      9.3885496900     3.8700641550     8.3435269412
AG     12.0599946279     3.8670538503     8.3513491860
AG      8.0463464381     6.1992874950     8.3398628735
AG     13.3969785844     6.1895219386     8.3492994412
AG      9.3778719351     8.5110359084     8.3500521753
AG     12.0588613191     8.5090059142     8.3493704038
AG     10.7193610350     6.1884896126     8.3506797914
AG     10.7187947308     1.5475049616     8.3501464947
AG      6.6992324964     8.5090032793     8.3501474573
AG     14.7392973433     8.5079515352     8.3489381117
O       5.9555448191     4.0765154256    10.7046571570
C       7.1537049354     3.9982868290    10.9078994765
C       7.8940162732     4.4486015636    12.1612831637
O       9.3054035314     4.4165090187    12.0361270523
C       7.4234446923     3.7063789247    13.3946530543
O       5.9981375188     3.6027806345    13.3484072847
C       7.9737403841     4.3455844040    14.6720863534
O       7.5109392272     5.7217473910    14.7383202299
C       7.6741984428     3.5665647790    15.9941592951
O       7.9355774780     2.1800062655    15.7224495367
C       8.5188843667     4.0634380626    17.1785369697
O       8.0788122929     3.3428368615    18.3521935118
H       7.8835975741     4.3028332217     9.9838118298
H       7.5157655830     5.4945448713    12.0850958189
H       9.5555376307     5.0325872041    11.3172538513
H       7.8511185053     2.7012541419    13.2670629403
H       5.6422923759     3.9506200930    14.1804813985
H       9.0712570482     4.3754786022    14.5430497123
H       7.1270837134     5.8964535107    15.6169079075
H       6.5936838829     3.6667668004    16.2999275643
H       7.6248801038     1.6856616563    16.4984101916
H       9.5848402349     3.8612594893    16.9793317918
H       8.4078463255     5.1524462596    17.3394764243
H       8.6474350589     3.6605696928    19.0706939949
88
Step 4 | ATOMIC_POSITIONS (angstrom) | Cartesian Angstrom
NI      2.6797587120     1.5471594140     1.5000001930
NI      5.3595174250     1.5471594140     1.5000001930
NI      8.0392761370     1.5471594140     1.5000001930
NI     10.7190348500     1.5471594140     1.5000001930
NI      4.0196380690     3.8678985350     1.5000001930
NI      6.6993967810     3.8678985350     1.5000001930
NI      9.3791554940     3.8678985350     1.5000001930
NI     12.0589142060     3.8678985350     1.5000001930
NI      5.3595174250     6.1886376560     1.5000001930
NI      8.0392761370     6.1886376560     1.5000001930
NI     10.7190348500     6.1886376560     1.5000001930
NI     13.3987935620     6.1886376560     1.5000001930
NI      6.6993967810     8.5093767770     1.5000001930
NI      9.3791554940     8.5093767770     1.5000001930
NI     12.0589142060     8.5093767770     1.5000001930
NI     14.7386729180     8.5093767770     1.5000001930
NI      1.3400829917     0.7736893655     3.3665809527
NI      9.3801311568     0.7726486980     3.3672006173
NI      5.3599131235     7.7372744185     3.3677284819
NI      5.3601767447     3.0951963258     3.3681918282
NI      4.0186711576     0.7728998220     3.3669313246
NI      6.6993019289     0.7718295551     3.3687871507
NI      2.6785556389     3.0944301514     3.3670220854
NI      8.0391976653     3.0953281529     3.3683530995
NI      4.0184134496     5.4153981071     3.3688624615
NI      6.6997599864     5.4137954289     3.3688233520
NI     10.7192198838     3.0941336489     3.3664580618
NI      8.0390970471     7.7366729561     3.3665106959
NI     13.3982148969     7.7358439030     3.3664908046
NI      9.3799701007     5.4148365258     3.3685211000
NI     12.0589165190     5.4152752100     3.3669821362
NI     10.7190957730     7.7357715473     3.3657288929
AG      5.3595155522     9.2819964253     5.5920326912
AG      4.0195547125     2.3209789527     5.5893243114
AG      6.6995817792     2.3211981081     5.5933393516
AG      5.3609081204     4.6419780663     5.5922902513
AG      1.3401439239     2.3213637917     5.5906877898
AG      9.3789054187     2.3200190871     5.5907790776
AG      4.0191511217     6.9616331715     5.5886719540
AG      6.7007339981     6.9619093332     5.5889884596
AG      8.0387704838     9.2833333478     5.5931388698
AG     13.3997326382     9.2822309015     5.5886861004
AG      2.6811146507     4.6416167465     5.5894984998
AG      8.0382432912     4.6394127826     5.5956060005
AG     10.7188613676     9.2829832598     5.5886246586
AG     10.7174716168     4.6413580228     5.5889175113
AG      9.3787954275     6.9622024084     5.5885526838
AG     12.0586552405     6.9621623048     5.5910687993
AG      5.3542978551     1.5388333941     8.3499376251
AG      4.0091775076     3.8668684914     8.3524670291
AG      6.6779634948     3.8493252327     8.1707500647
AG      2.6792578745     1.5476464026     8.3505993481
AG      8.0443074253     1.5365014218     8.3531554538
AG      5.3545707040     6.1950517601     8.3524041293
AG      9.3921006440     3.8706549826     8.3366091596
AG     12.0600983103     3.8667395753     8.3521102491
AG      8.0477922358     6.2027479936     8.3318656465
AG     13.3963731431     6.1897147445     8.3487180002
AG      9.3776259720     8.5120201216     8.3497087754
AG     12.0586320572     8.5083036781     8.3487109163
AG     10.7203238112     6.1891611708     8.3513304317
AG     10.7189483732     1.5476197004     8.3503301903
AG      6.6992495965     8.5096330276     8.3501648687
AG     14.7395569753     8.5073353839     8.3478366310
O       5.9253091483     4.0083025332    10.7478098733
C       7.1242860170     4.1463939664    10.8835408493
C       7.8886693803     4.4506819703    12.1608735440
O       9.3034451789     4.4145098053    12.0407696862
C       7.4174609730     3.6907517202    13.4065747977
O       5.9932587165     3.5972633802    13.3610212812
C       7.9836578061     4.3492452546    14.6808934328
O       7.5021184510     5.7170268501    14.7433027253
C       7.6780065157     3.5665244382    15.9899370958
O       7.9335424360     2.1802993846    15.7221271070
C       8.5228851799     4.0681565820    17.1798193972
O       8.0792308573     3.3465704456    18.3463182656
H       7.9338651198     4.2599864218     9.9857220193
H       7.5192439611     5.4907271280    12.1172695986
H       9.5621335140     5.0273362015    11.3193641840
H       7.8641095361     2.6889541185    13.2941343281
H       5.6354767030     3.9611601426    14.1861547775
H       9.0835847652     4.3675883049    14.5508531787
H       7.1236310485     5.8993092032    15.6221280769
H       6.6058281014     3.6790971268    16.2809628069
H       7.6311110967     1.6817754600    16.5022198779
H       9.5883729335     3.8497899623    16.9622676656
H       8.3932083919     5.1654856441    17.3285920886
H       8.6409979052     3.6499726810    19.0788687741
88
Step 5 | ATOMIC_POSITIONS (angstrom) | Cartesian Angstrom
NI      2.6797587120     1.5471594140     1.5000001930
NI      5.3595174250     1.5471594140     1.5000001930
NI      8.0392761370     1.5471594140     1.5000001930
NI     10.7190348500     1.5471594140     1.5000001930
NI      4.0196380690     3.8678985350     1.5000001930
NI      6.6993967810     3.8678985350     1.5000001930
NI      9.3791554940     3.8678985350     1.5000001930
NI     12.0589142060     3.8678985350     1.5000001930
NI      5.3595174250     6.1886376560     1.5000001930
NI      8.0392761370     6.1886376560     1.5000001930
NI     10.7190348500     6.1886376560     1.5000001930
NI     13.3987935620     6.1886376560     1.5000001930
NI      6.6993967810     8.5093767770     1.5000001930
NI      9.3791554940     8.5093767770     1.5000001930
NI     12.0589142060     8.5093767770     1.5000001930
NI     14.7386729180     8.5093767770     1.5000001930
NI      1.3400916996     0.7736910990     3.3668401272
NI      9.3802860147     0.7725793814     3.3673909662
NI      5.3599452896     7.7373802197     3.3677981857
NI      5.3602228968     3.0952597624     3.3683695197
NI      4.0185734590     0.7728422941     3.3670276762
NI      6.6992171133     0.7716852360     3.3688865430
NI      2.6784999159     3.0944680595     3.3670667831
NI      8.0391585657     3.0954675074     3.3686667916
NI      4.0183207441     5.4153922098     3.3689388133
NI      6.6998716991     5.4136695599     3.3690954472
NI     10.7192748090     3.0941260956     3.3665838894
NI      8.0391388824     7.7368368321     3.3666595996
NI     13.3980929934     7.7358308533     3.3664096965
NI      9.3798997563     5.4148045077     3.3687375629
NI     12.0589520013     5.4153337781     3.3669609707
NI     10.7191634344     7.7358056697     3.3656623974
AG      5.3597478098     9.2820383663     5.5921292290
AG      4.0195897009     2.3209070514     5.5889055996
AG      6.6995684873     2.3198554055     5.5919801399
AG      5.3600778934     4.6425671428     5.5912412426
AG      1.3400178574     2.3214123647     5.5905360542
AG      9.3789618636     2.3197639022     5.5903533108
AG      4.0191522065     6.9616580385     5.5881962800
AG      6.7006106622     6.9618728190     5.5884720952
AG      8.0387383627     9.2833779003     5.5932875294
AG     13.3996348496     9.2820901753     5.5882382185
AG      2.6809179761     4.6415671337     5.5893450724
AG      8.0390800285     4.6400371199     5.5948176995
AG     10.7187962174     9.2829488807     5.5884294264
AG     10.7176049200     4.6413936930     5.5885445549
AG      9.3789427555     6.9621210133     5.5880245996
AG     12.0586595701     6.9621862955     5.5912877964
AG      5.3544147934     1.5384044821     8.3505782620
AG      4.0088006669     3.8671631155     8.3531760636
AG      6.6786575840     3.8497393872     8.1426796618
AG      2.6786726247     1.5473454689     8.3505348222
AG      8.0439216915     1.5373070216     8.3529767586
AG      5.3551753763     6.1943211624     8.3520581758
AG      9.3916254376     3.8698617223     8.3327541542
AG     12.0598605601     3.8668781520     8.3522359966
AG      8.0466088496     6.2019799846     8.3280339419
AG     13.3963765987     6.1897903942     8.3483712013
AG      9.3779475644     8.5119238424     8.3495792512
AG     12.0585663320     8.5079355862     8.3483733346
AG     10.7208604612     6.1897018673     8.3517006408
AG     10.7193310770     1.5473928497     8.3505121647
AG      6.6991353786     8.5101021211     8.3504031554
AG     14.7395203923     8.5073085714     8.3473262924
O       5.9323242216     4.0033132220    10.7488776178
C       7.1444209565     4.1511703871    10.8825811262
C       7.8777543685     4.4592973549    12.1527756338
O       9.2970184490     4.4125616546    12.0359281679
C       7.4190005575     3.6931232987    13.4063712560
O       5.9979633272     3.5934596584    13.3695810414
C       7.9822839037     4.3493349043    14.6864513911
O       7.5024234242     5.7103785636    14.7449960327
C       7.6789941660     3.5673197798    15.9872267690
O       7.9330753778     2.1831079324    15.7258635612
C       8.5192798534     4.0660833435    17.1729680890
O       8.0826249056     3.3515268517    18.3435301934
H       7.9148531689     4.2511337994    10.0055181477
H       7.5214856345     5.5033733323    12.1383691817
H       9.5641725571     5.0234770169    11.3226660848
H       7.8638700031     2.6854972733    13.3017793600
H       5.6345490183     3.9647566828    14.1869594056
H       9.0835097371     4.3680689851    14.5514412359
H       7.1243233249     5.8980501775    15.6215410597
H       6.6085535123     3.6829297133    16.2763298342
H       7.6342890824     1.6822715443    16.5018622188
H       9.5863712183     3.8506429827    16.9611471188
H       8.3929707361     5.1621430015    17.3255998334
H       8.6381473855     3.6457383757    19.0811717992
88
Step 6 | ATOMIC_POSITIONS (angstrom) | Cartesian Angstrom
NI      2.6797587120     1.5471594140     1.5000001930
NI      5.3595174250     1.5471594140     1.5000001930
NI      8.0392761370     1.5471594140     1.5000001930
NI     10.7190348500     1.5471594140     1.5000001930
NI      4.0196380690     3.8678985350     1.5000001930
NI      6.6993967810     3.8678985350     1.5000001930
NI      9.3791554940     3.8678985350     1.5000001930
NI     12.0589142060     3.8678985350     1.5000001930
NI      5.3595174250     6.1886376560     1.5000001930
NI      8.0392761370     6.1886376560     1.5000001930
NI     10.7190348500     6.1886376560     1.5000001930
NI     13.3987935620     6.1886376560     1.5000001930
NI      6.6993967810     8.5093767770     1.5000001930
NI      9.3791554940     8.5093767770     1.5000001930
NI     12.0589142060     8.5093767770     1.5000001930
NI     14.7386729180     8.5093767770     1.5000001930
NI      1.3401065490     0.7736690412     3.3671179090
NI      9.3804454549     0.7725217131     3.3675636879
NI      5.3600044588     7.7374810707     3.3678480716
NI      5.3602879162     3.0953357810     3.3685295725
NI      4.0184635522     0.7727635307     3.3671207851
NI      6.6991308548     0.7715394513     3.3689474406
NI      2.6784489722     3.0945048160     3.3671200502
NI      8.0391352022     3.0956345962     3.3689353861
NI      4.0182435989     5.4153943778     3.3689849186
NI      6.7000223436     5.4135492297     3.3693159898
NI     10.7192878515     3.0941221845     3.3667015146
NI      8.0391799673     7.7369938029     3.3667768966
NI     13.3979632049     7.7358149016     3.3663181322
NI      9.3797902891     5.4147651700     3.3688977972
NI     12.0589703337     5.4154143573     3.3669311477
NI     10.7192141119     7.7358328406     3.3655806866
AG      5.3599696294     9.2820655514     5.5922488410
AG      4.0196278928     2.3208572697     5.5884486060
AG      6.6995360282     2.3184163216     5.5901681758
AG      5.3591392068     4.6431677499     5.5897939206
AG      1.3398871237     2.3214627030     5.5903715643
AG      9.3790306545     2.3194916317     5.5898414222
AG      4.0191243441     6.9617287614     5.5876618825
AG      6.7004991034     6.9618734839     5.5878694336
AG      8.0387177482     9.2833986354     5.5934750501
AG     13.3995795622     9.2818851851     5.5877573993
AG      2.6806836889     4.6415172030     5.5891701539
AG      8.0399742226     4.6406652790     5.5936610771
AG     10.7186931395     9.2828496181     5.5882117271
AG     10.7178060001     4.6414215897     5.5881134263
AG      9.3791155568     6.9621221131     5.5874289286
AG     12.0586596064     6.9621991467     5.5915380248
AG      5.3546181610     1.5382061756     8.3515496430
AG      4.0086444367     3.8673979233     8.3542906235
AG      6.6793290482     3.8502681180     8.1109678571
AG      2.6781406326     1.5470698343     8.3504638366
AG      8.0434500890     1.5382483949     8.3529315104
AG      5.3558858600     6.1934102522     8.3518913791
AG      9.3911329044     3.8691014365     8.3281543064
AG     12.0595825994     3.8670432978     8.3523919527
AG      8.0454100508     6.2010889859     8.3235947805
AG     13.3964540259     6.1898455749     8.3479869243
AG      9.3782077655     8.5117565704     8.3494079802
AG     12.0585558187     8.5076172864     8.3479901143
AG     10.7212140471     6.1901417314     8.3521991838
AG     10.7196159245     1.5471646964     8.3507691833
AG      6.6990160765     8.5105219888     8.3507060228
AG     14.7394964236     8.5072864326     8.3467046599
O       5.9464846148     3.9996657918    10.7492368509
C       7.1523835660     4.1540624339    10.8824943373
C       7.8713512665     4.4684496712    12.1505824786
O       9.2886888429     4.4085831690    12.0332545643
C       7.4203601314     3.6940366793    13.4066757221
O       6.0023674299     3.5880591193    13.3775724669
C       7.9839857634     4.3488819703    14.6884301478
O       7.5018952658     5.7049627585    14.7474668948
C       7.6782477318     3.5669594204    15.9855130131
O       7.9339674180     2.1866596364    15.7265046545
C       8.5179425482     4.0653819768    17.1680962050
O       8.0832579272     3.3546984783    18.3386003568
H       7.8975536284     4.2406453706    10.0237976008
H       7.5235255712     5.5176490083    12.1617568036
H       9.5673928612     5.0214364967    11.3238298907
H       7.8633429650     2.6837432392    13.3095630253
H       5.6333919384     3.9696873576    14.1892000974
H       9.0825201466     4.3686195202    14.5524614844
H       7.1251044907     5.8966872566    15.6210178085
H       6.6109677637     3.6872684006    16.2712580569
H       7.6368338759     1.6817719160    16.5041051375
H       9.5840230419     3.8516656905    16.9593775436
H       8.3926206124     5.1587667348    17.3217108016
H       8.6368194222     3.6423871066    19.0847232847
88
Step 7 | ATOMIC_POSITIONS (angstrom) | Cartesian Angstrom
NI      2.6797587120     1.5471594140     1.5000001930
NI      5.3595174250     1.5471594140     1.5000001930
NI      8.0392761370     1.5471594140     1.5000001930
NI     10.7190348500     1.5471594140     1.5000001930
NI      4.0196380690     3.8678985350     1.5000001930
NI      6.6993967810     3.8678985350     1.5000001930
NI      9.3791554940     3.8678985350     1.5000001930
NI     12.0589142060     3.8678985350     1.5000001930
NI      5.3595174250     6.1886376560     1.5000001930