88
Step 1 | ATOMIC_POSITIONS (angstrom) | Cartesian Angstrom
NI      2.6797587120     1.5471594140     1.5000001930
NI      5.3595174250     1.5471594140     1.5000001930
NI      8.0392761370     1.5471594140     1.5000001930
NI     10.7190348500     1.5471594140     1.5000001930
NI      4.0196380690     3.8678985350     1.5000001930
NI      6.6993967810     3.8678985350     1.5000001930
NI      9.3791554940     3.8678985350     1.5000001930
NI     12.0589142060     3.8678985350     1.5000001930
NI      5.3595174250     6.1886376560     1.5000001930
NI      8.0392761370     6.1886376560     1.5000001930
NI     10.7190348500     6.1886376560     1.5000001930
NI     13.3987935620     6.1886376560     1.5000001930
NI      6.6993967810     8.5093767770     1.5000001930
NI      9.3791554940     8.5093767770     1.5000001930
NI     12.0589142060     8.5093767770     1.5000001930
NI     14.7386729180     8.5093767770     1.5000001930
NI      1.3397576259     0.7735653115     3.3683732958
NI      9.3792980664     0.7735321636     3.3683743234
NI      5.3595526203     7.7359924852     3.3684275507
NI      5.3595376140     3.0943372165     3.3685220644
NI      4.0195059078     0.7736023971     3.3683944045
NI      6.6994969886     0.7735612012     3.3684663251
NI      2.6797077121     3.0942003004     3.3684128554
NI      8.0392856818     3.0942338475     3.3684588347
NI      4.0196993577     5.4150995855     3.3685171256
NI      6.6992995679     5.4150361645     3.3685311244
NI     10.7190223134     3.0940535580     3.3683646684
NI      8.0390731939     7.7359962530     3.3683829519
NI     13.3989563952     7.7359834388     3.3684183344
NI      9.3791342449     5.4149665497     3.3684275267
NI     12.0589742019     5.4149797171     3.3684163563
NI     10.7190223624     7.7359443014     3.3683313560
AG      5.3594990274     9.2829602267     5.5907579930
AG      4.0197368633     2.3208078322     5.5907413964
AG      6.6992866925     2.3208676435     5.5908768841
AG      5.3595693299     4.6414090342     5.5909666739
AG      1.3398146651     2.3207590620     5.5907588557
AG      9.3791872115     2.3206805897     5.5907528168
AG      4.0196604512     6.9621418119     5.5907208022
AG      6.6994458093     6.9622156576     5.5906873299
AG      8.0392379289     9.2829329357     5.5908567455
AG     13.3988787426     9.2829438720     5.5907270408
AG      2.6799306965     4.6414733328     5.5907507972
AG      8.0391060739     4.6413691665     5.5909048986
AG     10.7190343970     9.2829654158     5.5907463561
AG     10.7190078358     4.6414369665     5.5908738069
AG      9.3791722151     6.9622804572     5.5908252957
AG     12.0588695635     6.9622218369     5.5909238929
AG      5.3594661351     1.5471514623     8.3505004190
AG      4.0199397327     3.8679060748     8.3516253312
AG      6.6979551853     3.8678327609     8.3507504721
AG      2.6797941566     1.5472487596     8.3501419874
AG      8.0394599981     1.5471017292     8.3504941708
AG      5.3595441845     6.1884321785     8.3513871128
AG      9.3794368502     3.8681428732     8.3503499836
AG     12.0589780122     3.8678856879     8.3501558637
AG      8.0397739688     6.1889405038     8.3497031872
AG     13.3986797557     6.1886791504     8.3500453703
AG      9.3791484051     8.5093807296     8.3500367651
AG     12.0588486723     8.5094096684     8.3500313730
AG     10.7187400282     6.1884625130     8.3501479664
AG     10.7189012197     1.5472478760     8.3501488230
AG      6.6993379460     8.5092560341     8.3501096158
AG     14.7387708167     8.5092672448     8.3500139985
O       6.0813855810     4.1411520048    11.4424287496
C       7.1763457225     3.8635371775    11.7229905133
C       7.8821330226     4.4511355863    12.9328757738
O       9.2977577546     4.4129642737    12.8305250646
C       7.4321595296     3.7178758505    14.1939812907
O       6.0184279793     3.6081007636    14.1374010634
C       7.9734741185     4.3484144919    15.4771918965
O       7.5241164707     5.7147837935    15.5364847632
C       7.6468305649     3.5608517380    16.7938810454
O       7.9421524639     2.1948369998    16.5222608303
C       8.5131792957     4.0585776035    17.9666494774
O       8.0789031749     3.3430533722    19.1474467905
H       7.7614809498     4.3280091868    10.7991840833
H       7.5153525329     5.5043009355    12.8574488798
H       9.5474086034     5.0382940014    12.1148442809
H       7.8277335998     2.7211482085    14.0369951999
H       5.6519550614     3.9384153613    14.9724024980
H       9.0401974740     4.3880531111    15.3308864357
H       7.1355275178     5.8890709353    16.4020613774
H       6.5919330929     3.6518652196    17.1207017442
H       7.6162280674     1.6874784135    17.2990566555
H       9.5731212035     3.8813705452    17.8071229642
H       8.4311810342     5.1202174014    18.1521085392
H       8.6590196122     3.6741276729    19.8691300802
