88
Step 1 | ATOMIC_POSITIONS (angstrom) | Cartesian Angstrom
NI      2.6797587120     1.5471594140     1.5000001930
NI      5.3595174250     1.5471594140     1.5000001930
NI      8.0392761370     1.5471594140     1.5000001930
NI     10.7190348500     1.5471594140     1.5000001930
NI      4.0196380690     3.8678985350     1.5000001930
NI      6.6993967810     3.8678985350     1.5000001930
NI      9.3791554940     3.8678985350     1.5000001930
NI     12.0589142060     3.8678985350     1.5000001930
NI      5.3595174250     6.1886376560     1.5000001930
NI      8.0392761370     6.1886376560     1.5000001930
NI     10.7190348500     6.1886376560     1.5000001930
NI     13.3987935620     6.1886376560     1.5000001930
NI      6.6993967810     8.5093767770     1.5000001930
NI      9.3791554940     8.5093767770     1.5000001930
NI     12.0589142060     8.5093767770     1.5000001930
NI     14.7386729180     8.5093767770     1.5000001930
NI      1.3397576259     0.7735653115     3.3683732958
NI      9.3792980664     0.7735321636     3.3683743234
NI      5.3595526203     7.7359924852     3.3684275507
NI      5.3595376140     3.0943372165     3.3685220644
NI      4.0195059078     0.7736023971     3.3683944045
NI      6.6994969886     0.7735612012     3.3684663251
NI      2.6797077121     3.0942003004     3.3684128554
NI      8.0392856818     3.0942338475     3.3684588347
NI      4.0196993577     5.4150995855     3.3685171256
NI      6.6992995679     5.4150361645     3.3685311244
NI     10.7190223134     3.0940535580     3.3683646684
NI      8.0390731939     7.7359962530     3.3683829519
NI     13.3989563952     7.7359834388     3.3684183344
NI      9.3791342449     5.4149665497     3.3684275267
NI     12.0589742019     5.4149797171     3.3684163563
NI     10.7190223624     7.7359443014     3.3683313560
AG      5.3594990274     9.2829602267     5.5907579930
AG      4.0197368633     2.3208078322     5.5907413964
AG      6.6992866925     2.3208676435     5.5908768841
AG      5.3595693299     4.6414090342     5.5909666739
AG      1.3398146651     2.3207590620     5.5907588557
AG      9.3791872115     2.3206805897     5.5907528168
AG      4.0196604512     6.9621418119     5.5907208022
AG      6.6994458093     6.9622156576     5.5906873299
AG      8.0392379289     9.2829329357     5.5908567455
AG     13.3988787426     9.2829438720     5.5907270408
AG      2.6799306965     4.6414733328     5.5907507972
AG      8.0391060739     4.6413691665     5.5909048986
AG     10.7190343970     9.2829654158     5.5907463561
AG     10.7190078358     4.6414369665     5.5908738069
AG      9.3791722151     6.9622804572     5.5908252957
AG     12.0588695635     6.9622218369     5.5909238929
AG      5.3594661351     1.5471514623     8.3505004190
AG      4.0199397327     3.8679060748     8.3516253312
AG      6.6979551853     3.8678327609     8.3507504721
AG      2.6797941566     1.5472487596     8.3501419874
AG      8.0394599981     1.5471017292     8.3504941708
AG      5.3595441845     6.1884321785     8.3513871128
AG      9.3794368502     3.8681428732     8.3503499836
AG     12.0589780122     3.8678856879     8.3501558637
AG      8.0397739688     6.1889405038     8.3497031872
AG     13.3986797557     6.1886791504     8.3500453703
AG      9.3791484051     8.5093807296     8.3500367651
AG     12.0588486723     8.5094096684     8.3500313730
AG     10.7187400282     6.1884625130     8.3501479664
AG     10.7189012197     1.5472478760     8.3501488230
AG      6.6993379460     8.5092560341     8.3501096158
AG     14.7387708167     8.5092672448     8.3500139985
O       6.0813855810     4.1411520048    11.4424287496
C       7.1763457225     3.8635371775    11.7229905133
C       7.8821330226     4.4511355863    12.9328757738
O       9.2977577546     4.4129642737    12.8305250646
C       7.4321595296     3.7178758505    14.1939812907
O       6.0184279793     3.6081007636    14.1374010634
C       7.9734741185     4.3484144919    15.4771918965
O       7.5241164707     5.7147837935    15.5364847632
C       7.6468305649     3.5608517380    16.7938810454
O       7.9421524639     2.1948369998    16.5222608303
C       8.5131792957     4.0585776035    17.9666494774
O       8.0789031749     3.3430533722    19.1474467905
H       7.7614809498     4.3280091868    10.7991840833
H       7.5153525329     5.5043009355    12.8574488798
H       9.5474086034     5.0382940014    12.1148442809
H       7.8277335998     2.7211482085    14.0369951999
H       5.6519550614     3.9384153613    14.9724024980
H       9.0401974740     4.3880531111    15.3308864357
H       7.1355275178     5.8890709353    16.4020613774
H       6.5919330929     3.6518652196    17.1207017442
H       7.6162280674     1.6874784135    17.2990566555
H       9.5731212035     3.8813705452    17.8071229642
H       8.4311810342     5.1202174014    18.1521085392
H       8.6590196122     3.6741276729    19.8691300802
88
Step 2 | ATOMIC_POSITIONS (angstrom) | Cartesian Angstrom
NI      2.6797587120     1.5471594140     1.5000001930
NI      5.3595174250     1.5471594140     1.5000001930
NI      8.0392761370     1.5471594140     1.5000001930
NI     10.7190348500     1.5471594140     1.5000001930
NI      4.0196380690     3.8678985350     1.5000001930
NI      6.6993967810     3.8678985350     1.5000001930
NI      9.3791554940     3.8678985350     1.5000001930
NI     12.0589142060     3.8678985350     1.5000001930
NI      5.3595174250     6.1886376560     1.5000001930
NI      8.0392761370     6.1886376560     1.5000001930
NI     10.7190348500     6.1886376560     1.5000001930
NI     13.3987935620     6.1886376560     1.5000001930
NI      6.6993967810     8.5093767770     1.5000001930
NI      9.3791554940     8.5093767770     1.5000001930
NI     12.0589142060     8.5093767770     1.5000001930
NI     14.7386729180     8.5093767770     1.5000001930
NI      1.3397362880     0.7735683091     3.3683077922
NI      9.3793240858     0.7734835219     3.3683231493
NI      5.3595675793     7.7360158093     3.3683624475
NI      5.3595384117     3.0944017374     3.3684975776
NI      4.0194872949     0.7735268277     3.3682633353
NI      6.6995038510     0.7734230404     3.3683974256
NI      2.6796788091     3.0942572359     3.3683070366
NI      8.0393208834     3.0943102893     3.3684281317
NI      4.0196283825     5.4151637791     3.3684414845
NI      6.6992991838     5.4150203858     3.3685252224
NI     10.7189966272     3.0941039796     3.3682477170
NI      8.0390873915     7.7360439733     3.3682595816
NI     13.3989146869     7.7359835141     3.3682823328
NI      9.3792249357     5.4149729344     3.3682870524
NI     12.0589582830     5.4150585641     3.3682609792
NI     10.7190335555     7.7359294756     3.3681452329
AG      5.3595224744     9.2829122891     5.5906209052
AG      4.0197255480     2.3208047675     5.5905789074
AG      6.6992773989     2.3208763793     5.5907787531
AG      5.3596328680     4.6413925069     5.5908959906
AG      1.3398432547     2.3207719920     5.5905723593
AG      9.3791404703     2.3206794696     5.5906357063
AG      4.0196354317     6.9621102055     5.5905367935
AG      6.6994949897     6.9622148532     5.5904474746
AG      8.0391956167     9.2829559495     5.5908227856
AG     13.3989097710     9.2829049634     5.5904578012
AG      2.6800284317     4.6414741242     5.5905535596
AG      8.0390687873     4.6413041531     5.5908028102
AG     10.7190400179     9.2829651067     5.5905548334
AG     10.7189071792     4.6414170625     5.5907313085
AG      9.3791659880     6.9622685381     5.5906642114
AG     12.0588869506     6.9622291557     5.5908186229
AG      5.3594373308     1.5471302975     8.3507997685
AG      4.0199601832     3.8678938497     8.3527222065
AG      6.6972695856     3.8678163134     8.3491723267
AG      2.6798422133     1.5473082839     8.3502628031
AG      8.0394926296     1.5469360602     8.3505400759
AG      5.3594821219     6.1884680843     8.3521267674
AG      9.3794159887     3.8684557024     8.3513521105
AG     12.0589403598     3.8678907435     8.3503353056
AG      8.0400147471     6.1889792179     8.3498015656
AG     13.3986531855     6.1886656806     8.3501002784
AG      9.3791099695     8.5093772885     8.3500731744
AG     12.0588096625     8.5094397255     8.3501150153
AG     10.7186756015     6.1883832450     8.3503320787
AG     10.7188478903     1.5473685682     8.3503362078
AG      6.6993729633     8.5091356337     8.3502247426
AG     14.7388113650     8.5092111514     8.3500546337
O       5.9981045008     4.1078276313    11.4412645377
C       7.1974320775     3.9496277566    11.7105225196
C       7.8883547443     4.4436839123    12.9535841419
O       9.3002656996     4.4150934098    12.8321490150
C       7.4301227098     3.7124234213    14.1940309407
O       6.0086000565     3.6064268653    14.1422044038
C       7.9726179576     4.3458186925    15.4732264814
O       7.5193413017     5.7188577337    15.5351277494
C       7.6606688236     3.5639944522    16.7960620384
O       7.9385853381     2.1855947706    16.5233930100
C       8.5166352751     4.0620972326    17.9718435227
O       8.0791409430     3.3421704916    19.1524736098
H       7.8092204312     4.3007877619    10.7666476383
H       7.5160933436     5.4956034942    12.8654490357
H       9.5495223673     5.0349655074    12.1160374274
H       7.8373024156     2.7137219834    14.0498113310
H       5.6481993768     3.9426190671    14.9751049940
H       9.0538835345     4.3829159073    15.3361641839
H       7.1312144062     5.8926857417    16.4099377390
H       6.5902648578     3.6575781428    17.1131417638
H       7.6202910312     1.6881719486    17.2967132961
H       9.5777291792     3.8730888104    17.7957204907
H       8.4217155530     5.1335305437    18.1471515317
H       8.6532850915     3.6684126000    19.8675615712
88
Step 3 | ATOMIC_POSITIONS (angstrom) | Cartesian Angstrom
NI      2.6797587120     1.5471594140     1.5000001930
NI      5.3595174250     1.5471594140     1.5000001930
NI      8.0392761370     1.5471594140     1.5000001930
NI     10.7190348500     1.5471594140     1.5000001930
NI      4.0196380690     3.8678985350     1.5000001930
NI      6.6993967810     3.8678985350     1.5000001930
NI      9.3791554940     3.8678985350     1.5000001930
NI     12.0589142060     3.8678985350     1.5000001930
NI      5.3595174250     6.1886376560     1.5000001930
NI      8.0392761370     6.1886376560     1.5000001930
NI     10.7190348500     6.1886376560     1.5000001930
NI     13.3987935620     6.1886376560     1.5000001930
NI      6.6993967810     8.5093767770     1.5000001930
NI      9.3791554940     8.5093767770     1.5000001930
NI     12.0589142060     8.5093767770     1.5000001930
NI     14.7386729180     8.5093767770     1.5000001930
NI      1.3396922262     0.7735957119     3.3682146225
NI      9.3793909657     0.7734104473     3.3682828453
NI      5.3595867197     7.7360663746     3.3682807069
NI      5.3595010635     3.0945048350     3.3685189515
NI      4.0194270603     0.7733595888     3.3680671656
NI      6.6995288404     0.7731062997     3.3683085509
NI      2.6795789271     3.0943798638     3.3681495147
NI      8.0394472059     3.0944385523     3.3684211381
NI      4.0194320703     5.4153128231     3.3683307771
NI      6.6993177854     5.4150340634     3.3685655879
NI     10.7189725585     3.0942145330     3.3680796844
NI      8.0391484228     7.7361488232     3.3680755849
NI     13.3987901279     7.7359507883     3.3680842347
NI      9.3794647617     5.4150119274     3.3680648699
NI     12.0589060793     5.4152304556     3.3680010837
NI     10.7190838383     7.7358507486     3.3678452931
AG      5.3595657440     9.2828356980     5.5903509969
AG      4.0197010454     2.3207859046     5.5902802257
AG      6.6992457453     2.3208211302     5.5905846384
AG      5.3597096809     4.6413804030     5.5908202312
AG      1.3398857572     2.3208032488     5.5902002299
AG      9.3790750287     2.3206593876     5.5903919047
AG      4.0195984326     6.9620550753     5.5901420923
AG      6.6995750567     6.9622124880     5.5899856805
AG      8.0391268193     9.2830046732     5.5907649457
AG     13.3989551244     9.2828321571     5.5899298113
AG      2.6801668778     4.6414787380     5.5901419543
AG      8.0390361054     4.6412254627     5.5905599726
AG     10.7190572126     9.2829654403     5.5901769648
AG     10.7187608177     4.6413814236     5.5904545993
AG      9.3791617213     6.9622401242     5.5903441320
AG     12.0589190848     6.9622215358     5.5906337286
AG      5.3594115627     1.5470061276     8.3514198223
AG      4.0197819206     3.8678815335     8.3550454533
AG      6.6959605253     3.8676644666     8.3450803241
AG      2.6799085632     1.5474074890     8.3504730122
AG      8.0395181141     1.5467133194     8.3504131286
AG      5.3593719435     6.1886658614     8.3535387210
AG      9.3794120467     3.8689323485     8.3528546910
AG     12.0588650800     3.8679149276     8.3506647889
AG      8.0403798593     6.1890929893     8.3496716218
AG     13.3986195730     6.1886076018     8.3501715221
AG      9.3790665993     8.5093697993     8.3501046318
AG     12.0587188144     8.5094730402     8.3502338383
AG     10.7186130298     6.1882770768     8.3506813249
AG     10.7187580361     1.5476029874     8.3506783348
AG      6.6994446458     8.5089309632     8.3504209740
AG     14.7388876258     8.5091176720     8.3501051534
O       5.9402763268     4.0313529405    11.4601776284
C       7.1636732208     4.1286063877    11.6345132447
C       7.8936877597     4.4423631385    12.9705257922
O       9.3055295842     4.4168770430    12.8366242787
C       7.4204493108     3.7022449373    14.2017698482
O       5.9973534163     3.6018909593    14.1513305939
C       7.9712608549     4.3451197561    15.4772926429
O       7.5096899023     5.7207949105    15.5380744042
C       7.6791498739     3.5681595557    16.7923221599
O       7.9337946646     2.1782528727    16.5247787816
C       8.5161581165     4.0601037675    17.9801225073
O       8.0811740395     3.3450589370    19.1527040810
H       7.8777346484     4.2401285227    10.7386906912
H       7.5188921322     5.4816521451    12.8888091533
H       9.5526829717     5.0273306760    12.1198034706
H       7.8548704834     2.6955982170    14.0754149685
H       5.6411723762     3.9517764355    14.9813247971
H       9.0774424123     4.3739931049    15.3449300958
H       7.1264392709     5.8969984604    16.4173874501
H       6.5943157682     3.6688387529    17.0971921216
H       7.6268330601     1.6858988991    17.2968798579
H       9.5879017609     3.8585893166    17.7756371863
H       8.4047949361     5.1584635333    18.1382397972
H       8.6446348384     3.6577809336    19.8703271024
88
Step 4 | ATOMIC_POSITIONS (angstrom) | Cartesian Angstrom
NI      2.6797587120     1.5471594140     1.5000001930
NI      5.3595174250     1.5471594140     1.5000001930
NI      8.0392761370     1.5471594140     1.5000001930
NI     10.7190348500     1.5471594140     1.5000001930
NI      4.0196380690     3.8678985350     1.5000001930
NI      6.6993967810     3.8678985350     1.5000001930
NI      9.3791554940     3.8678985350     1.5000001930
NI     12.0589142060     3.8678985350     1.5000001930
NI      5.3595174250     6.1886376560     1.5000001930
NI      8.0392761370     6.1886376560     1.5000001930
NI     10.7190348500     6.1886376560     1.5000001930
NI     13.3987935620     6.1886376560     1.5000001930
NI      6.6993967810     8.5093767770     1.5000001930
NI      9.3791554940     8.5093767770     1.5000001930
NI     12.0589142060     8.5093767770     1.5000001930
NI     14.7386729180     8.5093767770     1.5000001930
NI      1.3396689879     0.7735934294     3.3682126134
NI      9.3794396087     0.7734069604     3.3682680957
NI      5.3596023613     7.7360964495     3.3682536256
NI      5.3595326801     3.0945462292     3.3685196221
NI      4.0194075598     0.7732884082     3.3680490523
NI      6.6995291782     0.7730381102     3.3682805325
NI      2.6795387234     3.0944153957     3.3681158922
NI      8.0394836079     3.0945124188     3.3684007957
NI      4.0194049743     5.4153421108     3.3683197504
NI      6.6993804877     5.4150293637     3.3685576673
NI     10.7189425985     3.0942552739     3.3680277143
NI      8.0391771763     7.7361446474     3.3680247303
NI     13.3987613716     7.7359561543     3.3680450818
NI      9.3794831079     5.4150212668     3.3680059062
NI     12.0588599123     5.4152611218     3.3679471184
NI     10.7190814566     7.7358238339     3.3677765256
AG      5.3595845007     9.2828351868     5.5903040184
AG      4.0196997878     2.3207670209     5.5902219527
AG      6.6992511889     2.3207374129     5.5904770407
AG      5.3596874972     4.6414090578     5.5908272997
AG      1.3398751230     2.3208151137     5.5901050092
AG      9.3790673381     2.3206472721     5.5903041267
AG      4.0196114089     6.9620579706     5.5900110481
AG      6.6995625625     6.9621945143     5.5898437050
AG      8.0391256565     9.2830125626     5.5907478934
AG     13.3989500858     9.2828176975     5.5898047038
AG      2.6801467106     4.6414673457     5.5900569676
AG      8.0390711547     4.6412546665     5.5904630789
AG     10.7190521571     9.2829664290     5.5900972734
AG     10.7187619954     4.6413756922     5.5903932544
AG      9.3791681864     6.9622130983     5.5902273057
AG     12.0589230147     6.9622028312     5.5906145330
AG      5.3594017007     1.5469151570     8.3516812017
AG      4.0195695935     3.8679054123     8.3559904589
AG      6.6957514370     3.8673475410     8.3420438899
AG      2.6798803258     1.5473960081     8.3504948786
AG      8.0394887113     1.5468311386     8.3502176668
AG      5.3593209968     6.1888517293     8.3537837289
AG      9.3794230132     3.8688062268     8.3528850065
AG     12.0588308972     3.8679385404     8.3507151341
AG      8.0403241409     6.1892456617     8.3491927110
AG     13.3986265319     6.1885921325     8.3501330725
AG      9.3790792031     8.5093549632     8.3501001194
AG     12.0587126509     8.5094311862     8.3502311824
AG     10.7186926114     6.1883249827     8.3507725413
AG     10.7187726370     1.5476409858     8.3507709399
AG      6.6994705408     8.5089136856     8.3504904534
AG     14.7388744585     8.5091221696     8.3500818478
O       5.9548375193     4.0343688031    11.4568692804
C       7.1635795764     4.1248051697    11.6297139333
C       7.8812811866     4.4557395362    12.9400141866
O       9.3024371343     4.4118070098    12.8384334242
C       7.4191410115     3.6965412514    14.2014024599
O       6.0002486511     3.5996587546    14.1561491486
C       7.9786498335     4.3493796355    15.4844061225
O       7.5084167946     5.7145328531    15.5418626816
C       7.6703646758     3.5654494581    16.7896201536
O       7.9357689443     2.1857457737    16.5226208023
C       8.5172115219     4.0618391140    17.9764487516
O       8.0800855382     3.3470161992    19.1449334803
H       7.8721387771     4.2324098014    10.7498634572
H       7.5210093398     5.4912459965    12.9072425461
H       9.5543318782     5.0264311963    12.1202047382
H       7.8549871181     2.6930480304    14.0830367725
H       5.6398297473     3.9546425231    14.9824614215
H       9.0738384258     4.3732383646    15.3457697117
H       7.1273665039     5.8961098099    16.4151764926
H       6.6026049800     3.6718313461    17.0917911347
H       7.6271611908     1.6827035677    17.3019126724
H       9.5856819106     3.8583026087    17.7745032101
H       8.4034966819     5.1549447742    18.1354827738
H       8.6459206479     3.6562540496    19.8772554522
88
Step 5 | ATOMIC_POSITIONS (angstrom) | Cartesian Angstrom
NI      2.6797587120     1.5471594140     1.5000001930
NI      5.3595174250     1.5471594140     1.5000001930
NI      8.0392761370     1.5471594140     1.5000001930
NI     10.7190348500     1.5471594140     1.5000001930
NI      4.0196380690     3.8678985350     1.5000001930
NI      6.6993967810     3.8678985350     1.5000001930
NI      9.3791554940     3.8678985350     1.5000001930
NI     12.0589142060     3.8678985350     1.5000001930
NI      5.3595174250     6.1886376560     1.5000001930
NI      8.0392761370     6.1886376560     1.5000001930
NI     10.7190348500     6.1886376560     1.5000001930
NI     13.3987935620     6.1886376560     1.5000001930
NI      6.6993967810     8.5093767770     1.5000001930
NI      9.3791554940     8.5093767770     1.5000001930
NI     12.0589142060     8.5093767770     1.5000001930
NI     14.7386729180     8.5093767770     1.5000001930
NI      1.3396789050     0.7736175464     3.3681795406
NI      9.3795556198     0.7733897818     3.3682428391
NI      5.3596408407     7.7361753613     3.3681993089
NI      5.3595265050     3.0945969828     3.3685094104
NI      4.0193443958     0.7731717614     3.3679625075
NI      6.6994761163     0.7728787172     3.3682082048
NI      2.6794822470     3.0944550986     3.3680084892
NI      8.0395335316     3.0946352753     3.3683821471
NI      4.0193190374     5.4153655043     3.3682885845
NI      6.6994625439     5.4150173709     3.3685629738
NI     10.7189426549     3.0943158683     3.3679285901
NI      8.0392498586     7.7362200307     3.3679155521
NI     13.3986739967     7.7359575254     3.3679627680
NI      9.3795642347     5.4150658686     3.3679106485
NI     12.0587978235     5.4153233565     3.3678272370
NI     10.7190822234     7.7358096202     3.3676209400
AG      5.3596232085     9.2828371202     5.5902007292
AG      4.0197037460     2.3207433904     5.5900675698
AG      6.6992383072     2.3205718793     5.5902177810
AG      5.3596265474     4.6414488711     5.5908462486
AG      1.3398515306     2.3208407322     5.5898723254
AG      9.3790594702     2.3206076990     5.5901022514
AG      4.0196341046     6.9620565695     5.5897029622
AG      6.6995405303     6.9621730197     5.5895119052
AG      8.0391246296     9.2830233694     5.5907090202
AG     13.3989495946     9.2827748368     5.5895119947
AG      2.6801259358     4.6414348999     5.5898417700
AG      8.0391263854     4.6412971582     5.5902444993
AG     10.7190330114     9.2829582605     5.5898943389
AG     10.7187749114     4.6413585773     5.5902510154
AG      9.3791906401     6.9621849808     5.5899498185
AG     12.0589282285     6.9621660088     5.5905734842
AG      5.3593469799     1.5467024058     8.3523715686
AG      4.0191476307     3.8679553050     8.3583615569
AG      6.6951578274     3.8667764078     8.3349236783
AG      2.6798199789     1.5473759341     8.3505509890
AG      8.0394523388     1.5470291467     8.3498455354
AG      5.3592441186     6.1891678145     8.3545147340
AG      9.3794588107     3.8686266736     8.3530110460
AG     12.0587466987     3.8679850313     8.3508467918
AG      8.0402398587     6.1894935708     8.3480858876
AG     13.3986302598     6.1885694204     8.3500449770
AG      9.3791073858     8.5093329078     8.3500927161
AG     12.0587083376     8.5093599480     8.3502381223
AG     10.7187910524     6.1883802005     8.3510265417
AG     10.7187888156     1.5477084777     8.3510167225
AG      6.6995070769     8.5089084194     8.3506727189
AG     14.7388457340     8.5091586285     8.3500307105
O       5.9722327284     4.0281050975    11.4492246897
C       7.1586638773     4.1339970599    11.6218735169
C       7.8642226208     4.4634404506    12.9140731624
O       9.2930242109     4.4090162579    12.8319153563
C       7.4195118720     3.6965747463    14.1920103100
O       6.0026199752     3.5925695948    14.1679134076
C       7.9830440859     4.3510434977    15.4865579887
O       7.5070007880     5.7050987303    15.5444399288
C       7.6705420440     3.5658249248    16.7860137795
O       7.9341971801     2.1869330272    16.5289115241
C       8.5171512306     4.0650765478    17.9679111188
O       8.0846060857     3.3532238995    19.1433753459
H       7.8729597579     4.2142643532    10.7562360667
H       7.5230473582     5.5177722393    12.9454954887
H       9.5601700928     5.0203008233    12.1253305107
H       7.8570231792     2.6865594191    14.0987076718
H       5.6366823155     3.9619492905    14.9856810764
H       9.0741425952     4.3716996049    15.3490125804
H       7.1265681599     5.8957865843    16.4175215662
H       6.6091772046     3.6795804416    17.0813375367
H       7.6333129221     1.6837249614    17.3005861757
H       9.5824197269     3.8565847811    17.7691348216
H       8.3995998401     5.1514066722    18.1285863752
H       8.6396744751     3.6478979305    19.8802993561
88
Step 6 | ATOMIC_POSITIONS (angstrom) | Cartesian Angstrom
NI      2.6797587120     1.5471594140     1.5000001930
NI      5.3595174250     1.5471594140     1.5000001930
NI      8.0392761370     1.5471594140     1.5000001930
NI     10.7190348500     1.5471594140     1.5000001930
NI      4.0196380690     3.8678985350     1.5000001930
NI      6.6993967810     3.8678985350     1.5000001930
NI      9.3791554940     3.8678985350     1.5000001930
NI     12.0589142060     3.8678985350     1.5000001930
NI      5.3595174250     6.1886376560     1.5000001930
NI      8.0392761370     6.1886376560     1.5000001930
NI     10.7190348500     6.1886376560     1.5000001930
NI     13.3987935620     6.1886376560     1.5000001930
NI      6.6993967810     8.5093767770     1.5000001930
NI      9.3791554940     8.5093767770     1.5000001930
NI     12.0589142060     8.5093767770     1.5000001930
NI     14.7386729180     8.5093767770     1.5000001930
NI      1.3396602331     0.7736470590     3.3681411877
NI      9.3797040918     0.7733715491     3.3681948010
NI      5.3596769948     7.7362842089     3.3681172671
NI      5.3595290194     3.0946805148     3.3685163073
NI      4.0192565994     0.7730119567     3.3678716175
NI      6.6994470172     0.7726590024     3.3681178420
NI      2.6793911158     3.0945222613     3.3678863524
NI      8.0396284031     3.0947855710     3.3683511741
NI      4.0192080048     5.4154179956     3.3682541599
NI      6.6995668094     5.4150073153     3.3685672421
NI     10.7189165485     3.0943952826     3.3678021759
NI      8.0393329016     7.7363092316     3.3677855058
NI     13.3985622189     7.7359608303     3.3678464697
NI      9.3796864048     5.4151075470     3.3677933567
NI     12.0587047866     5.4154210986     3.3676732726
NI     10.7191095101     7.7357628534     3.3674306782
AG      5.3596662031     9.2828414757     5.5900531135
AG      4.0197113071     2.3207299699     5.5898432097
AG      6.6992170424     2.3203667911     5.5898070376
AG      5.3595333224     4.6414894004     5.5908485220
AG      1.3398121223     2.3208716026     5.5895354112
AG      9.3790519910     2.3205509358     5.5897925556
AG      4.0196567895     6.9620531672     5.5892494037
AG      6.6995153322     6.9621549210     5.5890222847
AG      8.0391196903     9.2830234231     5.5906552759
AG     13.3989641639     9.2827036118     5.5890850971
AG      2.6801126731     4.6413926433     5.5895222111
AG      8.0391953358     4.6413338889     5.5898994985
AG     10.7190082658     9.2829258391     5.5895915559
AG     10.7187932454     4.6413332220     5.5900325622
AG      9.3792287556     6.9621617289     5.5895310955
AG     12.0589357068     6.9621173874     5.5905062447
AG      5.3592279714     1.5464048062     8.3534616162
AG      4.0186256816     3.8680113522     8.3619259548
AG      6.6943369409     3.8661716558     8.3245545230
AG      2.6797434861     1.5473535762     8.3506098223
AG      8.0394196733     1.5472228122     8.3493960969
AG      5.3591684734     6.1894918859     8.3556771243
AG      9.3794535239     3.8684872267     8.3532745262
AG     12.0586215046     3.8680382763     8.3510094522
AG      8.0401364505     6.1896920748     8.3464991011
AG     13.3986285539     6.1885571703     8.3498874723
AG      9.3791412375     8.5093067795     8.3500732550
AG     12.0587215341     8.5092889140     8.3502505682
AG     10.7188568848     6.1884135377     8.3514096167
AG     10.7188009845     1.5477693976     8.3513798289
AG      6.6995338451     8.5089395381     8.3509484069
AG     14.7388029340     8.5092437801     8.3499362963
O       5.9739385267     4.0091273823    11.4374317634
C       7.1591157986     4.1566946601    11.6113094422
C       7.8495485441     4.4827052496    12.9036126758
O       9.2768454457     4.4006344280    12.8264431540
C       7.4195916032     3.6934062027    14.1839166144
O       6.0034149997     3.5812957030    14.1816112332
C       7.9876561979     4.3489592449    15.4804089970
O       7.5024970236     5.6987734405    15.5500853800
C       7.6740577877     3.5649838147    16.7823672027
O       7.9360313331     2.1916305390    16.5265035711
C       8.5188194871     4.0675166969    17.9621825592
O       8.0825104715     3.3566578329    19.1330538606
H       7.8823271560     4.1902066141    10.7538920894
H       7.5269857493     5.5429230925    12.9945313925
H       9.5705433276     5.0168436049    12.1264970929
H       7.8595557239     2.6815702371    14.1179246559
H       5.6334445080     3.9732957183    14.9908393126
H       9.0779611426     4.3698333332    15.3535601004
H       7.1262789376     5.8947390974    16.4195958086
H       6.6134117856     3.6908497272    17.0675555506
H       7.6383497593     1.6807111202    17.3077800882
H       9.5794919920     3.8541583515    17.7598546185
H       8.3937945956     5.1510818727    18.1183263393
H       8.6371598483     3.6404279303    19.8894462495
88
Step 7 | ATOMIC_POSITIONS (angstrom) | Cartesian Angstrom
NI      2.6797587120     1.5471594140     1.5000001930
NI      5.3595174250     1.5471594140     1.5000001930
NI      8.0392761370     1.5471594140     1.5000001930
NI     10.7190348500     1.5471594140     1.5000001930
NI      4.0196380690     3.8678985350     1.5000001930
NI      6.6993967810     3.8678985350     1.5000001930
NI      9.3791554940     3.8678985350     1.5000001930
NI     12.0589142060     3.8678985350     1.5000001930
NI      5.3595174250     6.1886376560     1.5000001930