146
Step 1 | ATOMIC_POSITIONS (angstrom) | Cartesian Angstrom
NI      1.2189535980     0.7037631880     1.4255056150
NI      2.4379071950     2.8150527500     1.4255056150
NI      3.6568607930     4.9263423130     1.4255056150
NI      4.8758143900     7.0376318760     1.4255056150
NI      6.0947679870     9.1489214370     1.4255056150
NI      7.3137215840    11.2602110000     1.4255056150
NI      3.6568607920     0.7037631880     1.4255056150
NI      4.8758143890     2.8150527500     1.4255056150
NI      6.0947679860     4.9263423130     1.4255056150
NI      7.3137215840     7.0376318760     1.4255056150
NI      8.5326751800     9.1489214370     1.4255056150
NI      9.7516287780    11.2602110000     1.4255056150
NI      6.0947679870     0.7037631880     1.4255056150
NI      7.3137215840     2.8150527500     1.4255056150
NI      8.5326751810     4.9263423130     1.4255056150
NI      9.7516287790     7.0376318760     1.4255056150
NI     10.9705823750     9.1489214370     1.4255056150
NI     12.1895359730    11.2602110000     1.4255056150
NI      8.5326751820     0.7037631880     1.4255056150
NI      9.7516287790     2.8150527500     1.4255056150
NI     10.9705823760     4.9263423130     1.4255056150
NI     12.1895359740     7.0376318760     1.4255056150
NI     13.4084895710     9.1489214370     1.4255056150
NI     14.6274431680    11.2602110000     1.4255056150
NI     10.9705823750     0.7037631880     1.4255056150
NI     12.1895359720     2.8150527500     1.4255056150
NI     13.4084895700     4.9263423130     1.4255056150
NI     14.6274431670     7.0376318760     1.4255056150
NI     15.8463967640     9.1489214370     1.4255056150
NI     17.0653503620    11.2602110000     1.4255056150
NI     13.4084895710     0.7037631880     1.4255056150
NI     14.6274431670     2.8150527500     1.4255056150
NI     15.8463967650     4.9263423130     1.4255056150
NI     17.0653503620     7.0376318760     1.4255056150
NI     18.2843039590     9.1489214370     1.4255056150
NI     19.5032575570    11.2602110000     1.4255056150
NI     13.4349042000     7.7566469279     3.3694853713
NI     14.6274171458     9.8222227235     3.3694779981
NI     15.8200036357     7.7565935227     3.3694773104
NI     12.2348286802     9.8265025238     3.3917361210
NI     14.6274014674     5.6824173199     3.3917288386
NI     17.0200761155     9.8265334659     3.3916864549
NI     11.0224746390     7.7489052141     3.4044499621
NI     13.4278708091    11.9153138689     3.4046541850
NI     12.2220059066     5.6712626513     3.4044750359
NI     15.8270392231    11.9152902006     3.4046324217
NI     17.0329184716     5.6712291196     3.4046470513
NI     18.2324567689     7.7489722808     3.4046279534
NI      9.7967119467     9.8347708169     3.4272599347
NI     11.0086325849    11.9338819267     3.4271961428
NI     13.4155107016     3.5668667825     3.4272695356
NI     18.2462638609    11.9338439392     3.4271873852
NI     15.8393788495     3.5668091001     3.4271948929
NI     19.4581357980     9.8347989964     3.4271870848
NI      4.8419454514     5.6496833689     3.4298499563
NI      7.3137550189     1.3684267267     3.4298599269
NI      9.7856292778     5.6497339462     3.4298416070
NI      3.6443591224     3.5435206184     3.4449608769
NI      6.0671996922     7.7397956559     3.4450144523
NI      4.8909444122     1.3843581723     3.4449579303
NI      8.5602135581     7.7398914635     3.4447957016
NI      9.7364537938     1.3844351708     3.4450339731
NI     10.9830527861     3.5434444772     3.4448048661
NI      2.4502769864     1.4146778235     3.4528698828
NI      7.3137687480     9.8383775235     3.4528661868
NI     12.1771669559     1.4147012557     3.4528700523
NI      6.0887536943     3.5153323462     3.4562843722
NI      7.3136347518     5.6371494695     3.4562902502
NI      8.5387150943     3.5152071283     3.4562329460
NI      8.5525060107    11.9525132419     3.4569179838
NI     14.6274640599     1.4304132435     3.4569030826
NI     20.7023468688    11.9525085226     3.4568795668
AG      0.0000118422     0.0000108528     5.7388582015
AG      5.8730565710     5.0542883419     5.7450580115
AG      7.3136859317     2.5590877533     5.7450735800
AG      8.7548088058     5.0545776934     5.7447832910
AG      1.4590211240     2.4931243779     5.7613993763
AG      5.8840707817    10.1576300522     5.7613898839
AG      2.8886204515     0.0169893749     5.7613931825
AG      8.7433675381    10.1576243718     5.7614147931
AG     11.7388109815     0.0169302367     5.7613871943
AG     13.1684425920     2.4931927020     5.7613830247
AG      4.3866753391     2.5326540509     5.7669185756
AG      7.3138196123     7.6023761704     5.7669079070
AG     10.2407584158     2.5327573594     5.7668801808
AG      2.9606457117     5.0209616457     5.7876044701
AG      4.4457614303     7.5932759351     5.7875312421
AG      5.8285950079     0.0535087194     5.7875801637
AG     10.1815804169     7.5932128715     5.7868963122
AG      8.7988408491     0.0535095723     5.7875404094
AG     11.6666059150     5.0210009776     5.7870318587
AG     11.6430098114    10.1681711812     5.8048653897
AG     14.6273928732     4.9990532345     5.8048490933
AG     17.6118424406    10.1682033507     5.8049234748
AG     13.1282829802     7.5796259113     5.8291024617
AG     14.6274881138    10.1761577172     5.8290696254
AG     16.1265427080     7.5796826578     5.8290780557
AG      5.8495740556     3.3772641795     8.0669945559
AG      7.3124648899     5.9132950315     8.0665028881
AG      8.7773725777     3.3763214904     8.0665827279
AG      4.3957390629     5.9072499531     8.0778295686
AG      7.3137153214     0.8531962020     8.0778216315
AG     10.2227001138     5.9047379010     7.8133394555
AG      1.4531028810     0.8389452377     8.0838566151
AG      7.3137204117    10.9898803018     8.0839116446
AG     13.1743221420     0.8389536158     8.0839523790
AG      2.9185719230     3.3635171794     8.0855504665
AG      5.8601694234     8.4583692094     8.0856542373
AG      4.3721810345     0.8458051766     8.0855589425
AG      8.7666414802     8.4594668730     8.0851558913
AG     10.2552743436     0.8458696982     8.0856675904
AG     11.7093424651     3.3622706088     8.0848890437
AG     11.6863056570     8.4518468949     8.0943187533
AG     13.1517198206    10.9900542129     8.0948794328
AG     13.1634330638     5.8948828952     8.0936744242
AG     16.1031578486    10.9900288450     8.0947895141
AG     16.0935467149     5.8947118226     8.0948641289
AG     17.5692278955     8.4507339812     8.0947845456
AG     10.2195665991    10.9899980692     8.0949144809
AG     14.6273750089     3.3554157238     8.0949569568
AG     19.0353159280    10.9900352511     8.0948490239
AG     14.6273761239     8.4451018371     8.0959608775
O      10.2639972008     5.9235850589     9.6580564876
H      12.0980757103     5.4269845351    10.1379006956
C      11.0215576951     5.5559454767    10.3241335412
H       8.7649639458     5.6053808165    10.7415639082
O       9.0244059082     5.3585379407    11.6529273415
C      10.4300555985     5.2387320331    11.6564816370
H      10.7193474516     4.1869382697    11.8613506384
O      12.3530413620     6.5468882586    12.3003759361
C      11.0612211526     6.1418841976    12.7563483659
H      10.3746229413     7.0036880116    12.8491752527
H      12.7556085323     7.0481903259    13.0385222167
H      12.0704523789     4.7675427959    14.0531828046
C      11.1754163035     5.4223727345    14.1159524366
O       9.9934688591     4.6617739817    14.3319351448
O      12.4837861617     7.2933197742    14.9363805057
C      11.3766904646     6.4246952804    15.2692368974
H       9.9701246561     4.4191349226    15.2804835560
H      10.4407210009     7.0021668410    15.3672420374
H      12.3888101930     8.1308222952    15.4186433915
H      12.6294751385     5.1497838168    16.4699792273
C      11.7133789443     5.7496979144    16.6017973068
O      10.6033904718     4.9276315634    17.0112520879
H      11.9141268843     6.5296544575    17.3576624032
H      10.8853107477     4.3625704464    17.7486886288
146
Step 2 | ATOMIC_POSITIONS (angstrom) | Cartesian Angstrom
NI      1.2189535980     0.7037631880     1.4255056150
NI      2.4379071950     2.8150527500     1.4255056150
NI      3.6568607930     4.9263423130     1.4255056150
NI      4.8758143900     7.0376318760     1.4255056150
NI      6.0947679870     9.1489214370     1.4255056150
NI      7.3137215840    11.2602110000     1.4255056150
NI      3.6568607920     0.7037631880     1.4255056150
NI      4.8758143890     2.8150527500     1.4255056150
NI      6.0947679860     4.9263423130     1.4255056150
NI      7.3137215840     7.0376318760     1.4255056150
NI      8.5326751800     9.1489214370     1.4255056150
NI      9.7516287780    11.2602110000     1.4255056150
NI      6.0947679870     0.7037631880     1.4255056150
NI      7.3137215840     2.8150527500     1.4255056150
NI      8.5326751810     4.9263423130     1.4255056150
NI      9.7516287790     7.0376318760     1.4255056150
NI     10.9705823750     9.1489214370     1.4255056150
NI     12.1895359730    11.2602110000     1.4255056150
NI      8.5326751820     0.7037631880     1.4255056150
NI      9.7516287790     2.8150527500     1.4255056150
NI     10.9705823760     4.9263423130     1.4255056150
NI     12.1895359740     7.0376318760     1.4255056150
NI     13.4084895710     9.1489214370     1.4255056150
NI     14.6274431680    11.2602110000     1.4255056150
NI     10.9705823750     0.7037631880     1.4255056150
NI     12.1895359720     2.8150527500     1.4255056150
NI     13.4084895700     4.9263423130     1.4255056150
NI     14.6274431670     7.0376318760     1.4255056150
NI     15.8463967640     9.1489214370     1.4255056150
NI     17.0653503620    11.2602110000     1.4255056150
NI     13.4084895710     0.7037631880     1.4255056150
NI     14.6274431670     2.8150527500     1.4255056150
NI     15.8463967650     4.9263423130     1.4255056150
NI     17.0653503620     7.0376318760     1.4255056150
NI     18.2843039590     9.1489214370     1.4255056150
NI     19.5032575570    11.2602110000     1.4255056150
NI     13.4348902650     7.7566502119     3.3697947389
NI     14.6274129973     9.8223857112     3.3695078631
NI     15.8201001093     7.7565416055     3.3695105194
NI     12.2347225089     9.8263539485     3.3919777679
NI     14.6271173402     5.6823904529     3.3919001145
NI     17.0201354105     9.8265934711     3.3916794448
NI     11.0229538371     7.7487506582     3.4033648066
NI     13.4280091728    11.9154209472     3.4046407031
NI     12.2221682346     5.6716589455     3.4033709138
NI     15.8270045882    11.9151301349     3.4045424935
NI     17.0330774668     5.6712919101     3.4046835334
NI     18.2322426550     7.7490551811     3.4045583554
NI      9.7967707270     9.8345735928     3.4277100450
NI     11.0086562932    11.9341378822     3.4271352072
NI     13.4152664363     3.5671246594     3.4277062229
NI     18.2462960478    11.9336595530     3.4271335245
NI     15.8396509283     3.5666582958     3.4271862594
NI     19.4579711125     9.8349849619     3.4271668802
NI      4.8421078735     5.6496469024     3.4297933190
NI      7.3138236340     1.3685225235     3.4297915839
NI      9.7859914104     5.6498977042     3.4288162291
NI      3.6441833176     3.5434014171     3.4449583051
NI      6.0675410489     7.7396013863     3.4454283344
NI      4.8907959206     1.3842299337     3.4449228978
NI      8.5599393056     7.7399766292     3.4442068699
NI      9.7364325649     1.3847610138     3.4454322205
NI     10.9829553845     3.5431852380     3.4443157575
NI      2.4503773126     1.4147427148     3.4528700786
NI      7.3139376535     9.8382788965     3.4530111678
NI     12.1771095155     1.4149026479     3.4530638776
NI      6.0889620928     3.5153909604     3.4564089550
NI      7.3133630433     5.6371220557     3.4564681532
NI      8.5385892217     3.5149761794     3.4562752546
NI      8.5524135817    11.9527092016     3.4569156352
NI     14.6276640682     1.4301725606     3.4568476467
NI     20.7022915896    11.9524800897     3.4568158004
AG      0.0000257034     0.0000428776     5.7387567766
AG      5.8729378130     5.0539431011     5.7444481330
AG      7.3133821286     2.5591982188     5.7445088879
AG      8.7500315142     5.0518116835     5.7351526213
AG      1.4590368890     2.4931277581     5.7611653787
AG      5.8839562795    10.1575541190     5.7610868860
AG      2.8886396172     0.0169965043     5.7611457005
AG      8.7435758258    10.1576726465     5.7609864074
AG     11.7387283888     0.0168259005     5.7610446520
AG     13.1687591515     2.4933364727     5.7606727999
AG      4.3866559259     2.5326409591     5.7667742611
AG      7.3140910709     7.6022836715     5.7668836047
AG     10.2406202171     2.5330065827     5.7668102882
AG      2.9606119325     5.0209452292     5.7876100483
AG      4.4457717309     7.5933813660     5.7872940047
AG      5.8285414827     0.0534857071     5.7875409457
AG     10.1809895433     7.6016376244     5.7753852772
AG      8.7989050736     0.0534747326     5.7873256397
AG     11.6731928079     5.0167771057     5.7763060747
AG     11.6428385924    10.1682195684     5.8043262377
AG     14.6273321342     4.9988603074     5.8042497280
AG     17.6118222852    10.1681929495     5.8048398925
AG     13.1279078685     7.5794641596     5.8290812607
AG     14.6275820366    10.1761196759     5.8287627065
AG     16.1265280561     7.5797626444     5.8287933678
AG      5.8498741608     3.3774636704     8.0676078845
AG      7.3071689662     5.9134288647     8.0645237647
AG      8.7751331060     3.3721914437     8.0651597894
AG      4.3956649048     5.9072258399     8.0782317761
AG      7.3136637268     0.8531215422     8.0781707361
AG     10.2082829560     5.9048490529     7.6008763671
AG      1.4530745818     0.8389176834     8.0839368382
AG      7.3136841283    10.9900034629     8.0842797345
AG     13.1743182073     0.8389135435     8.0845446647
AG      2.9185506244     3.3635415426     8.0856095974
AG      5.8604206709     8.4581827604     8.0861948939
AG      4.3722034897     0.8457910283     8.0856045059
AG      8.7638406954     8.4636737475     8.0833547647
AG     10.2553231373     0.8462803755     8.0863571209
AG     11.7118589630     3.3554076346     8.0804499057
AG     11.6890783369     8.4565173408     8.0918862799
AG     13.1517224506    10.9901365785     8.0952946220
AG     13.1730653777     5.8956993051     8.0873352207
AG     16.1031421567    10.9900247250     8.0948434913
AG     16.0937630526     5.8947094740     8.0953132396
AG     17.5692227968     8.4507395092     8.0948533234
AG     10.2195567639    10.9896644364     8.0954086003
AG     14.6270381885     3.3554934177     8.0955826626
AG     19.0353388272    10.9900411639     8.0949169671
AG     14.6270335658     8.4448798482     8.0966428907
O      10.0167238978     6.0693229964     9.5951285778
H      12.1101082247     5.4252197492    10.1350558105
C      11.2509488801     5.4361342174    10.6060057949
H       8.7629650341     5.6063851333    10.7425882085
O       9.0292979960     5.3566181232    11.6551766542
C      10.4452550490     5.2175797760    11.7005939632
H      10.7172061330     4.1859021554    11.8649715677
O      12.3537957571     6.5474970184    12.2989532762
C      11.0581523206     6.1382867910    12.7563226841
H      10.3748794648     7.0042518353    12.8495021142
H      12.7556862213     7.0481397286    13.0386950976
H      12.0704401600     4.7676664718    14.0531030677
C      11.1750906409     5.4232056161    14.1166769945
O       9.9937692648     4.6620424090    14.3317323109
O      12.4840334358     7.2937550358    14.9356090897
C      11.3765724332     6.4239844422    15.2696864415
H       9.9701159694     4.4192453397    15.2807480116
H      10.4409216760     7.0021310866    15.3672100357
H      12.3887545182     8.1306853979    15.4187925746
H      12.6295127555     5.1498365293    16.4699084400
C      11.7132094477     5.7497436866    16.6020935132
O      10.6036245016     4.9277803767    17.0107885816
H      11.9143246288     6.5295360996    17.3576982576
H      10.8851627754     4.3625726948    17.7488139819
146
Step 3 | ATOMIC_POSITIONS (angstrom) | Cartesian Angstrom
NI      1.2189535980     0.7037631880     1.4255056150
NI      2.4379071950     2.8150527500     1.4255056150
NI      3.6568607930     4.9263423130     1.4255056150
NI      4.8758143900     7.0376318760     1.4255056150
NI      6.0947679870     9.1489214370     1.4255056150
NI      7.3137215840    11.2602110000     1.4255056150
NI      3.6568607920     0.7037631880     1.4255056150
NI      4.8758143890     2.8150527500     1.4255056150
NI      6.0947679860     4.9263423130     1.4255056150
NI      7.3137215840     7.0376318760     1.4255056150
NI      8.5326751800     9.1489214370     1.4255056150
NI      9.7516287780    11.2602110000     1.4255056150
NI      6.0947679870     0.7037631880     1.4255056150
NI      7.3137215840     2.8150527500     1.4255056150
NI      8.5326751810     4.9263423130     1.4255056150
NI      9.7516287790     7.0376318760     1.4255056150
NI     10.9705823750     9.1489214370     1.4255056150
NI     12.1895359730    11.2602110000     1.4255056150
NI      8.5326751820     0.7037631880     1.4255056150
NI      9.7516287790     2.8150527500     1.4255056150
NI     10.9705823760     4.9263423130     1.4255056150
NI     12.1895359740     7.0376318760     1.4255056150
NI     13.4084895710     9.1489214370     1.4255056150
NI     14.6274431680    11.2602110000     1.4255056150
NI     10.9705823750     0.7037631880     1.4255056150
NI     12.1895359720     2.8150527500     1.4255056150
NI     13.4084895700     4.9263423130     1.4255056150
NI     14.6274431670     7.0376318760     1.4255056150
NI     15.8463967640     9.1489214370     1.4255056150
NI     17.0653503620    11.2602110000     1.4255056150
NI     13.4084895710     0.7037631880     1.4255056150
NI     14.6274431670     2.8150527500     1.4255056150
NI     15.8463967650     4.9263423130     1.4255056150
NI     17.0653503620     7.0376318760     1.4255056150
NI     18.2843039590     9.1489214370     1.4255056150
NI     19.5032575570    11.2602110000     1.4255056150
NI     13.4348980461     7.7566483781     3.3696219917
NI     14.6274153138     9.8222947008     3.3694911869
NI     15.8200462396     7.7565705955     3.3694919759
NI     12.2347817937     9.8264369112     3.3918428351
NI     14.6272759935     5.6824054551     3.3918044761
NI     17.0201023009     9.8265599649     3.3916833591
NI     11.0226862585     7.7488369604     3.4039707447
NI     13.4279319121    11.9153611559     3.4046482313
NI     12.2220775926     5.6714376594     3.4039874426
NI     15.8270239279    11.9152195137     3.4045927084
NI     17.0329886857     5.6712568486     3.4046631622
NI     18.2323622137     7.7490088905     3.4045972181
NI      9.7967379047     9.8346837204     3.4274587087
NI     11.0086430548    11.9339949597     3.4271692329
NI     13.4154028312     3.5669806640     3.4274623818
NI     18.2462780750    11.9337625121     3.4271635997
NI     15.8394990027     3.5667425032     3.4271910802
NI     19.4580630709     9.8348811209     3.4271781622
NI      4.8420171789     5.6496672648     3.4298249446
NI      7.3137853201     1.3684690317     3.4298297458
NI      9.7857891998     5.6498062637     3.4293887880
NI      3.6442814849     3.5434679777     3.4449597412
NI      6.0673504393     7.7397098641     3.4451972275
NI      4.8908788366     1.3843015406     3.4449424595
NI      8.5600924450     7.7399290737     3.4445356666
NI      9.7364444189     1.3845790669     3.4452098438
NI     10.9830097724     3.5433299941     3.4445888700
NI      2.4503212916     1.4147064803     3.4528699693
NI      7.3138433387     9.8383339687     3.4529302121
NI     12.1771415895     1.4147901928     3.4529556479
NI      6.0888457255     3.5153582309     3.4563393894
NI      7.3135147621     5.6371373632     3.4563688143
NI      8.5386595075     3.5151051386     3.4562516300
NI      8.5524651930    11.9525997800     3.4569169466
NI     14.6275523859     1.4303069551     3.4568786014
NI     20.7023224569    11.9524959663     3.4568514068
AG      0.0000179635     0.0000249953     5.7388134111
AG      5.8730041261     5.0541358795     5.7447886820
AG      7.3135517687     2.5591365362     5.7448242053
AG      8.7526990976     5.0533561909     5.7405302740
AG      1.4590280860     2.4931258706     5.7612960402
AG      5.8840202162    10.1575965192     5.7612560765
AG      2.8886289153     0.0169925233     5.7612838915
AG      8.7434595204    10.1576456905     5.7612256129
AG     11.7387745076     0.0168841606     5.7612359236
AG     13.1685823884     2.4932561928     5.7610693811
AG      4.3866667660     2.5326482694     5.7668548446
AG      7.3139394916     7.6023353218     5.7668971748
AG     10.2406973856     2.5328674194     5.7668493154
AG      2.9606307944     5.0209543960     5.7876069335
AG      4.4457659792     7.5933224947     5.7874264753
AG      5.8285713706     0.0534985569     5.7875628446
AG     10.1813194802     7.5969333415     5.7818129037
AG      8.7988692114     0.0534941867     5.7874455646
AG     11.6695147644     5.0191356661     5.7822952263
AG     11.6429341991    10.1681925495     5.8046272939
AG     14.6273660501     4.9989680356     5.8045844066
AG     17.6118335397    10.1681987574     5.8048865638
AG     13.1281173264     7.5795544799     5.8290930991
AG     14.6275295912    10.1761409177     5.8289340864
AG     16.1265362376     7.5797179809     5.8289523342
AG      5.8497065856     3.3773522770     8.0672654091
AG      7.3101261477     5.9133541338     8.0656288839
AG      8.7763836006     3.3744976132     8.0659543415
AG      4.3957063138     5.9072393044     8.0780071881
AG      7.3136925366     0.8531632314     8.0779758002
AG     10.2163333273     5.9047869870     7.7195132559
AG      1.4530903837     0.8389330694     8.0838920426
AG      7.3137043885    10.9899346912     8.0840741975
AG     13.1743204044     0.8389359194     8.0842139393
AG      2.9185625173     3.3635279385     8.0855765794
AG      5.8602803772     8.4582868713     8.0858929976
AG      4.3721909510     0.8457989285     8.0855790638
AG      8.7654046207     8.4613246783     8.0843604926
AG     10.2552958915     0.8460510582     8.0859720952
AG     11.7104537802     3.3592398387     8.0829286681
AG     11.6875301051     8.4539094188     8.0932445444
AG     13.1517209820    10.9900905865     8.0950627852
AG     13.1676868069     5.8952434314     8.0908749573
AG     16.1031509189    10.9900270256     8.0948133511
AG     16.0936422522     5.8947107854     8.0950624614
AG     17.5692256439     8.4507364224     8.0948149187
AG     10.2195622558    10.9898507330     8.0951326898
AG     14.6272262650     3.3554500343     8.0952332759
AG     19.0353260405    10.9900378622     8.0948790284
AG     14.6272248462     8.4450038042     8.0962620626
O      10.1547984009     5.9879446468     9.6302667822
H      12.1033894102     5.4262051849    10.1366443609
C      11.1228595413     5.5030354149    10.4486116448
H       8.7640812029     5.6058243346    10.7420162512
O       9.0265663117     5.3576901267    11.6539206644
C      10.4367678547     5.2293909475    11.6759621592
H      10.7184018201     4.1864807094    11.8629496834
O      12.3533745118     6.5471570941    12.2997476728
C      11.0598659203     6.1402955405    12.7563370245
H      10.3747362251     7.0039370028    12.8493195986
H      12.7556428407     7.0481679815    13.0385985630
H      12.0704469829     4.7675974126    14.0531475919
C      11.1752724871     5.4227405448    14.1162724099
O       9.9936015218     4.6618925223    14.3318455709
O      12.4838953609     7.2935119908    14.9360398393
C      11.3766383405     6.4243813659    15.2694354214
H       9.9701208200     4.4191836841    15.2806003427
H      10.4408096214     7.0021510515    15.3672279051
H      12.3887856064     8.1307618397    15.4187092725
H      12.6294917506     5.1498070952    16.4699479668
C      11.7133040926     5.7497181279    16.6019281150
O      10.6034938221     4.9276972811    17.0110473980
H      11.9142142106     6.5296021893    17.3576782369
H      10.8852454014     4.3625714393    17.7487439862
