88
Step 1 | ATOMIC_POSITIONS (angstrom) | Cartesian Angstrom
NI      2.8568593560     1.4508721950     3.0000001930
NI      5.7137187120     1.4508721950     3.0000001930
NI      8.5705780690     1.4508721950     3.0000001930
NI     11.4274374250     1.4508721950     3.0000001930
NI      4.2852890340     3.6271804860     3.0000001930
NI      7.1421483910     3.6271804860     3.0000001930
NI      9.9990077470     3.6271804860     3.0000001930
NI     12.8558671030     3.6271804860     3.0000001930
NI      5.7137187120     5.8034887780     3.0000001930
NI      8.5705780690     5.8034887780     3.0000001930
NI     11.4274374250     5.8034887780     3.0000001930
NI     14.2842967810     5.8034887780     3.0000001930
NI      7.1421483910     7.9797970700     3.0000001930
NI      9.9990077470     7.9797970700     3.0000001930
NI     12.8558671030     7.9797970700     3.0000001930
NI     15.7127264590     7.9797970700     3.0000001930
NI      1.4452878889     0.7422203170     4.9758222943
NI      4.3020494533     0.7423047727     4.9757521560
NI      7.1589860466     0.7422561479     4.9759985614
NI     10.0157870457     0.7421944664     4.9757967938
NI      2.8576163005     2.9023858237     4.9920148023
NI      5.7145285716     2.9023697081     4.9921110267
NI      8.5713416458     2.9024077618     4.9920067340
NI     11.4282620032     2.9024388603     4.9921059701
NI      4.2855316108     5.0774466910     4.9921572794
NI      7.1424708956     5.0773997174     4.9920837493
NI      9.9993378401     5.0774077933     4.9921904003
NI     12.8562176422     5.0774069335     4.9921058956
NI      5.7040654253     7.2393185768     4.9929475867
NI      8.5609374850     7.2392736582     4.9928945689
NI     11.4178603108     7.2392344758     4.9929530768
NI     14.2746033732     7.2393117459     4.9928726588
AG      1.4600360729     2.2336377585     7.2179079451
AG      4.3167847339     2.2335855357     7.2178426135
AG      7.1738735867     2.2338783515     7.2182139764
AG     10.0304281681     2.2338042629     7.2180762881
AG      2.8566657372     4.3540919003     7.2181082031
AG      5.7137175810     4.3541084574     7.2179572760
AG      8.5704283857     4.3539998038     7.2183150677
AG     11.4272052340     4.3541445607     7.2179931368
AG      4.2838324128     6.5289813136     7.2183140556
AG      7.1407917811     6.5288352525     7.2181365245
AG      9.9976350746     6.5287944910     7.2183802184
AG     12.8545496896     6.5289214618     7.2182838582
AG      5.6751002928     8.6469745771     7.2343799646
AG      8.5320003655     8.6470598574     7.2342476832
AG     11.3887437168     8.6469138650     7.2342414645
AG     14.2457728315     8.6468356160     7.2341760297
AG      2.8873803219     1.5055909178     9.6193575535
AG      5.7441259491     1.5056388917     9.6192907687
AG      8.6010758559     1.5051879419     9.6189475785
AG     11.4577797112     1.5055963736     9.6193134376
AG      4.2874235513     3.6288544827     9.6215613224
AG      7.1434956272     3.6281090884     9.6193802798
AG     10.0014785440     3.6286169840     9.6213347017
AG     12.8576251178     3.6287825179     9.6212705705
AG      5.7134481781     5.8046461981     9.6211613369
AG      8.5710003195     5.8058684849     9.6186506688
AG     11.4271952376     5.8044028418     9.6212683453
AG     14.2841758904     5.8044658373     9.6211856676
AG      7.1119276539     7.9250588897     9.6216181372
AG      9.9686014127     7.9254555142     9.6214776985
AG     12.8256287804     7.9257113806     9.6213504982
AG     15.6824444961     7.9255586928     9.6211442808
H       7.4978254682     5.1632922561    12.1682085076
O       8.0730049263     4.3317212075    12.4466012716
H       6.1647851658     3.3556431262    12.7042672670
C       7.1328256419     3.5351716309    13.1878145745
H       7.6244119883     2.5264705322    13.2034085413
H       9.3891908157     4.9821003042    13.7982668521
H       6.5413064613     4.9858355171    14.5626462942
C       7.0177230234     3.9719478440    14.6393586432
O       9.2803724116     5.2092001858    14.7627653377
H       8.9761898565     3.2599068538    15.2886374973
O       6.0511291039     3.0856718009    15.2924281894
C       8.3990729928     4.2277711634    15.3520720136
C       5.7588107647     3.4245755061    16.6470082325
O       5.0640570782     4.6934088164    16.6715595030
C       8.2195639651     4.4799808949    16.8470847273
H       7.9482252089     5.5686622789    16.9333502147
H       5.0099383443     2.7050914652    17.0568344157
H       5.4381742182     5.1158179977    17.4297874976
C       7.0703128985     3.6094856528    17.4646248410
O       9.4786377716     4.4266245355    17.5478107254
H       7.4911905414     2.5814482530    17.5985866215
H       9.2961151700     4.7031128895    18.4816309366
O       6.7792522395     4.0543554670    18.8198580252
H       6.2659211070     3.3809528278    19.2621282270
88
Step 2 | ATOMIC_POSITIONS (angstrom) | Cartesian Angstrom
NI      2.8568593560     1.4508721950     3.0000001930
NI      5.7137187120     1.4508721950     3.0000001930
NI      8.5705780690     1.4508721950     3.0000001930
NI     11.4274374250     1.4508721950     3.0000001930
NI      4.2852890340     3.6271804860     3.0000001930
NI      7.1421483910     3.6271804860     3.0000001930
NI      9.9990077470     3.6271804860     3.0000001930
NI     12.8558671030     3.6271804860     3.0000001930
NI      5.7137187120     5.8034887780     3.0000001930
NI      8.5705780690     5.8034887780     3.0000001930
NI     11.4274374250     5.8034887780     3.0000001930
NI     14.2842967810     5.8034887780     3.0000001930
NI      7.1421483910     7.9797970700     3.0000001930
NI      9.9990077470     7.9797970700     3.0000001930
NI     12.8558671030     7.9797970700     3.0000001930
NI     15.7127264590     7.9797970700     3.0000001930
NI      1.4653418285     0.7608272964     4.9419015072
NI      4.3219596624     0.7610380810     4.9416997982
NI      7.1789893450     0.7609019992     4.9422680890
NI     10.0357270104     0.7607642850     4.9418026120
NI      2.8594382898     2.9037224512     4.9713983827
NI      5.7164033176     2.9036736047     4.9716531736
NI      8.5731474445     2.9038003403     4.9714087374
NI     11.4301430069     2.9038501560     4.9716356837
NI      4.2857780927     5.0764973563     4.9724940132
NI      7.1428547819     5.0763791496     4.9723631515
NI      9.9997128659     5.0764089891     4.9725842669
NI     12.8566408915     5.0764198446     4.9724013212
NI      5.6923521413     7.2225249111     4.9739818782
NI      8.5492521883     7.2224248591     4.9738702430
NI     11.4062382224     7.2223414931     4.9740255293
NI     14.2628496363     7.2224855543     4.9738199575
AG      1.4881902285     2.2571069314     7.1947663239
AG      4.3448463323     2.2570686075     7.1945785690
AG      7.2021426519     2.2574578719     7.1954043518
AG     10.0583497404     2.2574024053     7.1951413173
AG      2.8588508625     4.3670517476     7.1975916150
AG      5.7160038469     4.3671165772     7.1970959059
AG      8.5726719720     4.3668750639     7.1979637919
AG     11.4293571081     4.3671625418     7.1972585068
AG      4.2788906346     6.5177452475     7.1964362879
AG      7.1358946914     6.5175747942     7.1958034052
AG      9.9927858904     6.5174564447     7.1964629922
AG     12.8497094088     6.5176711707     7.1963249811
AG      5.6383992398     8.6240442888     7.2309338952
AG      8.4952865366     8.6241508277     7.2305810591
AG     11.3519172426     8.6239953713     7.2305951194
AG     14.2091603490     8.6238201812     7.2304226663
AG      2.9160267520     1.5310143631     9.6366139843
AG      5.7725283408     1.5309923603     9.6364444266
AG      8.6298171322     1.5303361220     9.6357053307
AG     11.4862898083     1.5310470970     9.6365212741
AG      4.2921751466     3.6411831471     9.6447201947
AG      7.1475691380     3.6398673510     9.6395215647
AG     10.0065266134     3.6407218829     9.6442703741
AG     12.8620072012     3.6410099968     9.6440100223
AG      5.7111485974     5.7955820466     9.6425083754
AG      8.5691449736     5.7979334245     9.6365978903
AG     11.4248115752     5.7952186014     9.6424958141
AG     14.2818632684     5.7953015137     9.6422760698
AG      7.0841763191     7.9001975982     9.6450672970
AG      9.9408342715     7.9011092323     9.6446821512
AG     12.7978223265     7.9012757440     9.6443412632
AG     15.6546176399     7.9011148176     9.6438302980
H       7.5215817925     5.1498416770    12.1711196339
O       8.0290134934     4.3550386411    12.4394480719
H       6.1697163765     3.3706954893    12.7059311861
C       7.1531076644     3.4924446818    13.1998810949
H       7.6282527829     2.5147689304    13.2006973476
H       9.3797601880     4.9823656245    13.8157135497
H       6.5336228100     4.9997638762    14.5717331094
C       7.0072837163     4.0104573307    14.6417322842
O       9.2511651138     5.2056407125    14.7675334855
H       8.9758903714     3.2440497185    15.2891593648
O       6.0800753113     3.0828694416    15.2936580631
C       8.4143135764     4.1925334271    15.3482858061
C       5.7712380794     3.4490200060    16.6361963631
O       5.0487857485     4.6996057018    16.6515967396
C       8.2025141776     4.5098083434    16.8572688591
H       7.9284602435     5.5754472412    16.9297943178
H       5.0385674608     2.6972686019    17.0450567950
H       5.4417339928     5.1403570382    17.4552155138
C       7.0842298414     3.5763084745    17.4690569203
O       9.4619713255     4.4051934095    17.5510490950
H       7.5010169055     2.5683834107    17.5890652169
H       9.2967745546     4.6986219518    18.4676493034
O       6.7842191544     4.0827560351    18.8080480311
H       6.2639330933     3.3747370942    19.2640270477
88
Step 3 | ATOMIC_POSITIONS (angstrom) | Cartesian Angstrom
NI      2.8568593560     1.4508721950     3.0000001930
NI      5.7137187120     1.4508721950     3.0000001930
NI      8.5705780690     1.4508721950     3.0000001930
NI     11.4274374250     1.4508721950     3.0000001930
NI      4.2852890340     3.6271804860     3.0000001930
NI      7.1421483910     3.6271804860     3.0000001930
NI      9.9990077470     3.6271804860     3.0000001930
NI     12.8558671030     3.6271804860     3.0000001930
NI      5.7137187120     5.8034887780     3.0000001930
NI      8.5705780690     5.8034887780     3.0000001930
NI     11.4274374250     5.8034887780     3.0000001930
NI     14.2842967810     5.8034887780     3.0000001930
NI      7.1421483910     7.9797970700     3.0000001930
NI      9.9990077470     7.9797970700     3.0000001930
NI     12.8558671030     7.9797970700     3.0000001930
NI     15.7127264590     7.9797970700     3.0000001930
NI      1.4951222492     0.7851349264     4.8929256993
NI      4.3514492256     0.7855746479     4.8925105226
NI      7.2086815676     0.7852612142     4.8935925700
NI     10.0653370012     0.7850230928     4.8926861518
NI      2.8639928255     2.9075953608     4.9357240363
NI      5.7210881469     2.9074686291     4.9362487431
NI      8.5776824515     2.9077943122     4.9357982811
NI     11.4348207225     2.9078231674     4.9362149420
NI      4.2860252909     5.0745584384     4.9381757369
NI      7.1433810326     5.0742769474     4.9378966544
NI     10.0002051266     5.0743606418     4.9383602540
NI     12.8572485486     5.0743790004     4.9379798325
NI      5.6747042575     7.2009793148     4.9422800510
NI      8.5316666761     7.2007869660     4.9420938574
NI     11.3887701036     7.2006151829     4.9424105403
NI     14.2451525029     7.2008529767     4.9419599825
AG      1.5241797360     2.2580030096     7.1578527425
AG      4.3807310866     2.2580284653     7.1574746572
AG      7.2382698275     2.2583478034     7.1589211428
AG     10.0940585068     2.2584212340     7.1585133095
AG      2.8660769547     4.3904320351     7.1658563464
AG      5.7232719325     4.3905952096     7.1647341250
AG      8.5799974197     4.3901740911     7.1664128773
AG     11.4365856900     4.3906121731     7.1650944231
AG      4.2657107504     6.4975243747     7.1621152052
AG      7.1227006832     6.4974539145     7.1606498496
AG      9.9797856494     6.4972321162     7.1619605352
AG     12.8366116850     6.4974891205     7.1619225506
AG      5.5891027118     8.6268821728     7.2213496837
AG      8.4459377571     8.6269748731     7.2205782084
AG     11.3023966382     8.6268593220     7.2206430130
AG     14.1599754598     8.6265491590     7.2202385777
AG      2.9544545856     1.5364644027     9.6623122526
AG      5.8104964735     1.5361958730     9.6619996857
AG      8.6685350074     1.5354372183     9.6605134587
AG     11.5245984112     1.5364741069     9.6621767811
AG      4.3031699381     3.6641766734     9.6817467057
AG      7.1579846688     3.6623538376     9.6709731861
AG     10.0178031960     3.6635507224     9.6810376499
AG     12.8725876289     3.6638733626     9.6802884024
AG      5.7037542665     5.7766440829     9.6760708234
AG      8.5627459407     5.7800248415     9.6637601536
AG     11.4175353055     5.7762212781     9.6760888754
AG     14.2745942148     5.7762233077     9.6756218215
AG      7.0478059678     7.8966259172     9.6830064238
AG      9.9047090974     7.8982670484     9.6822716172
AG     12.7613682712     7.8979381977     9.6814806388
AG     15.6181690420     7.8978547864     9.6804290801
H       7.5334301801     5.1499272822    12.1725104208
O       7.9957881360     4.3567189107    12.4345207122
H       6.1794873065     3.3871263184    12.7135107992
C       7.1602645703     3.4726904038    13.2159464432
H       7.6417503119     2.4882654947    13.1988022232
H       9.3644835177     4.9821136074    13.8389104254
H       6.5225469653     5.0228838197    14.5847782520
C       7.0085024876     4.0357659690    14.6356542183
O       9.2118032075     5.2020791334    14.7767540521
H       8.9734017276     3.2168248061    15.2911076064
O       6.1213471692     3.0892418815    15.3032016621
C       8.4159038768     4.1614095038    15.3591272317
C       5.7780899876     3.4797257890    16.6201720578
O       5.0648174506     4.7171771694    16.6668920354
C       8.1857650630     4.5232175586    16.8544662604
H       7.8948542118     5.5861132090    16.9242081833
H       5.0882143509     2.6910607692    17.0229643487
H       5.4236600478     5.1564150945    17.4516850093
C       7.0992036638     3.5620923115    17.4747552087
O       9.4351227824     4.3740984072    17.5489142245
H       7.5173345974     2.5473471342    17.5756742757
H       9.2973394023     4.6940400857    18.4561286753
O       6.7746324832     4.0891695394    18.7977064173
H       6.2779990242     3.3919794031    19.2555872829
