88
Step 1 | ATOMIC_POSITIONS (angstrom) | Cartesian Angstrom
NI      2.8568593560     1.4508721950     3.0000001930
NI      5.7137187120     1.4508721950     3.0000001930
NI      8.5705780690     1.4508721950     3.0000001930
NI     11.4274374250     1.4508721950     3.0000001930
NI      4.2852890340     3.6271804860     3.0000001930
NI      7.1421483910     3.6271804860     3.0000001930
NI      9.9990077470     3.6271804860     3.0000001930
NI     12.8558671030     3.6271804860     3.0000001930
NI      5.7137187120     5.8034887780     3.0000001930
NI      8.5705780690     5.8034887780     3.0000001930
NI     11.4274374250     5.8034887780     3.0000001930
NI     14.2842967810     5.8034887780     3.0000001930
NI      7.1421483910     7.9797970700     3.0000001930
NI      9.9990077470     7.9797970700     3.0000001930
NI     12.8558671030     7.9797970700     3.0000001930
NI     15.7127264590     7.9797970700     3.0000001930
NI      1.4452878889     0.7422203170     4.9758222943
NI      4.3020494533     0.7423047727     4.9757521560
NI      7.1589860466     0.7422561479     4.9759985614
NI     10.0157870457     0.7421944664     4.9757967938
NI      2.8576163005     2.9023858237     4.9920148023
NI      5.7145285716     2.9023697081     4.9921110267
NI      8.5713416458     2.9024077618     4.9920067340
NI     11.4282620032     2.9024388603     4.9921059701
NI      4.2855316108     5.0774466910     4.9921572794
NI      7.1424708956     5.0773997174     4.9920837493
NI      9.9993378401     5.0774077933     4.9921904003
NI     12.8562176422     5.0774069335     4.9921058956
NI      5.7040654253     7.2393185768     4.9929475867
NI      8.5609374850     7.2392736582     4.9928945689
NI     11.4178603108     7.2392344758     4.9929530768
NI     14.2746033732     7.2393117459     4.9928726588
AG      1.4600360729     2.2336377585     7.2179079451
AG      4.3167847339     2.2335855357     7.2178426135
AG      7.1738735867     2.2338783515     7.2182139764
AG     10.0304281681     2.2338042629     7.2180762881
AG      2.8566657372     4.3540919003     7.2181082031
AG      5.7137175810     4.3541084574     7.2179572760
AG      8.5704283857     4.3539998038     7.2183150677
AG     11.4272052340     4.3541445607     7.2179931368
AG      4.2838324128     6.5289813136     7.2183140556
AG      7.1407917811     6.5288352525     7.2181365245
AG      9.9976350746     6.5287944910     7.2183802184
AG     12.8545496896     6.5289214618     7.2182838582
AG      5.6751002928     8.6469745771     7.2343799646
AG      8.5320003655     8.6470598574     7.2342476832
AG     11.3887437168     8.6469138650     7.2342414645
AG     14.2457728315     8.6468356160     7.2341760297
AG      2.8873803219     1.5055909178     9.6193575535
AG      5.7441259491     1.5056388917     9.6192907687
AG      8.6010758559     1.5051879419     9.6189475785
AG     11.4577797112     1.5055963736     9.6193134376
AG      4.2874235513     3.6288544827     9.6215613224
AG      7.1434956272     3.6281090884     9.6193802798
AG     10.0014785440     3.6286169840     9.6213347017
AG     12.8576251178     3.6287825179     9.6212705705
AG      5.7134481781     5.8046461981     9.6211613369
AG      8.5710003195     5.8058684849     9.6186506688
AG     11.4271952376     5.8044028418     9.6212683453
AG     14.2841758904     5.8044658373     9.6211856676
AG      7.1119276539     7.9250588897     9.6216181372
AG      9.9686014127     7.9254555142     9.6214776985
AG     12.8256287804     7.9257113806     9.6213504982
AG     15.6824444961     7.9255586928     9.6211442808
H       7.4978254682     5.1632922561    12.1682085076
O       8.0730049263     4.3317212075    12.4466012716
H       6.1647851658     3.3556431262    12.7042672670
C       7.1328256419     3.5351716309    13.1878145745
H       7.6244119883     2.5264705322    13.2034085413
H       9.3891908157     4.9821003042    13.7982668521
H       6.5413064613     4.9858355171    14.5626462942
C       7.0177230234     3.9719478440    14.6393586432
O       9.2803724116     5.2092001858    14.7627653377
H       8.9761898565     3.2599068538    15.2886374973
O       6.0511291039     3.0856718009    15.2924281894
C       8.3990729928     4.2277711634    15.3520720136
C       5.7588107647     3.4245755061    16.6470082325
O       5.0640570782     4.6934088164    16.6715595030
C       8.2195639651     4.4799808949    16.8470847273
H       7.9482252089     5.5686622789    16.9333502147
H       5.0099383443     2.7050914652    17.0568344157
H       5.4381742182     5.1158179977    17.4297874976
C       7.0703128985     3.6094856528    17.4646248410
O       9.4786377716     4.4266245355    17.5478107254
H       7.4911905414     2.5814482530    17.5985866215
H       9.2961151700     4.7031128895    18.4816309366
O       6.7792522395     4.0543554670    18.8198580252
H       6.2659211070     3.3809528278    19.2621282270
88
Step 2 | ATOMIC_POSITIONS (angstrom) | Cartesian Angstrom
NI      2.8568593560     1.4508721950     3.0000001930
NI      5.7137187120     1.4508721950     3.0000001930
NI      8.5705780690     1.4508721950     3.0000001930
NI     11.4274374250     1.4508721950     3.0000001930
NI      4.2852890340     3.6271804860     3.0000001930
NI      7.1421483910     3.6271804860     3.0000001930
NI      9.9990077470     3.6271804860     3.0000001930
NI     12.8558671030     3.6271804860     3.0000001930
NI      5.7137187120     5.8034887780     3.0000001930
NI      8.5705780690     5.8034887780     3.0000001930
NI     11.4274374250     5.8034887780     3.0000001930
NI     14.2842967810     5.8034887780     3.0000001930
NI      7.1421483910     7.9797970700     3.0000001930
NI      9.9990077470     7.9797970700     3.0000001930
NI     12.8558671030     7.9797970700     3.0000001930
NI     15.7127264590     7.9797970700     3.0000001930
NI      1.4653418285     0.7608272964     4.9419015072
NI      4.3219596624     0.7610380810     4.9416997982
NI      7.1789893450     0.7609019992     4.9422680890
NI     10.0357270104     0.7607642850     4.9418026120
NI      2.8594382898     2.9037224512     4.9713983827
NI      5.7164033176     2.9036736047     4.9716531736
NI      8.5731474445     2.9038003403     4.9714087374
NI     11.4301430069     2.9038501560     4.9716356837
NI      4.2857780927     5.0764973563     4.9724940132
NI      7.1428547819     5.0763791496     4.9723631515
NI      9.9997128659     5.0764089891     4.9725842669
NI     12.8566408915     5.0764198446     4.9724013212
NI      5.6923521413     7.2225249111     4.9739818782
NI      8.5492521883     7.2224248591     4.9738702430
NI     11.4062382224     7.2223414931     4.9740255293
NI     14.2628496363     7.2224855543     4.9738199575
AG      1.4881902285     2.2571069314     7.1947663239
AG      4.3448463323     2.2570686075     7.1945785690
AG      7.2021426519     2.2574578719     7.1954043518
AG     10.0583497404     2.2574024053     7.1951413173
AG      2.8588508625     4.3670517476     7.1975916150
AG      5.7160038469     4.3671165772     7.1970959059
AG      8.5726719720     4.3668750639     7.1979637919
AG     11.4293571081     4.3671625418     7.1972585068
AG      4.2788906346     6.5177452475     7.1964362879
AG      7.1358946914     6.5175747942     7.1958034052
AG      9.9927858904     6.5174564447     7.1964629922
AG     12.8497094088     6.5176711707     7.1963249811
AG      5.6383992398     8.6240442888     7.2309338952
AG      8.4952865366     8.6241508277     7.2305810591
AG     11.3519172426     8.6239953713     7.2305951194
AG     14.2091603490     8.6238201812     7.2304226663
AG      2.9160267520     1.5310143631     9.6366139843
AG      5.7725283408     1.5309923603     9.6364444266
AG      8.6298171322     1.5303361220     9.6357053307
AG     11.4862898083     1.5310470970     9.6365212741
AG      4.2921751466     3.6411831471     9.6447201947
AG      7.1475691380     3.6398673510     9.6395215647
AG     10.0065266134     3.6407218829     9.6442703741
AG     12.8620072012     3.6410099968     9.6440100223
AG      5.7111485974     5.7955820466     9.6425083754
AG      8.5691449736     5.7979334245     9.6365978903
AG     11.4248115752     5.7952186014     9.6424958141
AG     14.2818632684     5.7953015137     9.6422760698
AG      7.0841763191     7.9001975982     9.6450672970
AG      9.9408342715     7.9011092323     9.6446821512
AG     12.7978223265     7.9012757440     9.6443412632
AG     15.6546176399     7.9011148176     9.6438302980
H       7.5215817925     5.1498416770    12.1711196339
O       8.0290134934     4.3550386411    12.4394480719
H       6.1697163765     3.3706954893    12.7059311861
C       7.1531076644     3.4924446818    13.1998810949
H       7.6282527829     2.5147689304    13.2006973476
H       9.3797601880     4.9823656245    13.8157135497
H       6.5336228100     4.9997638762    14.5717331094
C       7.0072837163     4.0104573307    14.6417322842
O       9.2511651138     5.2056407125    14.7675334855
H       8.9758903714     3.2440497185    15.2891593648
O       6.0800753113     3.0828694416    15.2936580631
C       8.4143135764     4.1925334271    15.3482858061
C       5.7712380794     3.4490200060    16.6361963631
O       5.0487857485     4.6996057018    16.6515967396
C       8.2025141776     4.5098083434    16.8572688591
H       7.9284602435     5.5754472412    16.9297943178
H       5.0385674608     2.6972686019    17.0450567950
H       5.4417339928     5.1403570382    17.4552155138
C       7.0842298414     3.5763084745    17.4690569203
O       9.4619713255     4.4051934095    17.5510490950
H       7.5010169055     2.5683834107    17.5890652169
H       9.2967745546     4.6986219518    18.4676493034
O       6.7842191544     4.0827560351    18.8080480311
H       6.2639330933     3.3747370942    19.2640270477
88
Step 3 | ATOMIC_POSITIONS (angstrom) | Cartesian Angstrom
NI      2.8568593560     1.4508721950     3.0000001930
NI      5.7137187120     1.4508721950     3.0000001930
NI      8.5705780690     1.4508721950     3.0000001930
NI     11.4274374250     1.4508721950     3.0000001930
NI      4.2852890340     3.6271804860     3.0000001930
NI      7.1421483910     3.6271804860     3.0000001930
NI      9.9990077470     3.6271804860     3.0000001930
NI     12.8558671030     3.6271804860     3.0000001930
NI      5.7137187120     5.8034887780     3.0000001930
NI      8.5705780690     5.8034887780     3.0000001930
NI     11.4274374250     5.8034887780     3.0000001930
NI     14.2842967810     5.8034887780     3.0000001930
NI      7.1421483910     7.9797970700     3.0000001930
NI      9.9990077470     7.9797970700     3.0000001930
NI     12.8558671030     7.9797970700     3.0000001930
NI     15.7127264590     7.9797970700     3.0000001930
NI      1.4951222492     0.7851349264     4.8929256993
NI      4.3514492256     0.7855746479     4.8925105226
NI      7.2086815676     0.7852612142     4.8935925700
NI     10.0653370012     0.7850230928     4.8926861518
NI      2.8639928255     2.9075953608     4.9357240363
NI      5.7210881469     2.9074686291     4.9362487431
NI      8.5776824515     2.9077943122     4.9357982811
NI     11.4348207225     2.9078231674     4.9362149420
NI      4.2860252909     5.0745584384     4.9381757369
NI      7.1433810326     5.0742769474     4.9378966544
NI     10.0002051266     5.0743606418     4.9383602540
NI     12.8572485486     5.0743790004     4.9379798325
NI      5.6747042575     7.2009793148     4.9422800510
NI      8.5316666761     7.2007869660     4.9420938574
NI     11.3887701036     7.2006151829     4.9424105403
NI     14.2451525029     7.2008529767     4.9419599825
AG      1.5241797360     2.2580030096     7.1578527425
AG      4.3807310866     2.2580284653     7.1574746572
AG      7.2382698275     2.2583478034     7.1589211428
AG     10.0940585068     2.2584212340     7.1585133095
AG      2.8660769547     4.3904320351     7.1658563464
AG      5.7232719325     4.3905952096     7.1647341250
AG      8.5799974197     4.3901740911     7.1664128773
AG     11.4365856900     4.3906121731     7.1650944231
AG      4.2657107504     6.4975243747     7.1621152052
AG      7.1227006832     6.4974539145     7.1606498496
AG      9.9797856494     6.4972321162     7.1619605352
AG     12.8366116850     6.4974891205     7.1619225506
AG      5.5891027118     8.6268821728     7.2213496837
AG      8.4459377571     8.6269748731     7.2205782084
AG     11.3023966382     8.6268593220     7.2206430130
AG     14.1599754598     8.6265491590     7.2202385777
AG      2.9544545856     1.5364644027     9.6623122526
AG      5.8104964735     1.5361958730     9.6619996857
AG      8.6685350074     1.5354372183     9.6605134587
AG     11.5245984112     1.5364741069     9.6621767811
AG      4.3031699381     3.6641766734     9.6817467057
AG      7.1579846688     3.6623538376     9.6709731861
AG     10.0178031960     3.6635507224     9.6810376499
AG     12.8725876289     3.6638733626     9.6802884024
AG      5.7037542665     5.7766440829     9.6760708234
AG      8.5627459407     5.7800248415     9.6637601536
AG     11.4175353055     5.7762212781     9.6760888754
AG     14.2745942148     5.7762233077     9.6756218215
AG      7.0478059678     7.8966259172     9.6830064238
AG      9.9047090974     7.8982670484     9.6822716172
AG     12.7613682712     7.8979381977     9.6814806388
AG     15.6181690420     7.8978547864     9.6804290801
H       7.5334301801     5.1499272822    12.1725104208
O       7.9957881360     4.3567189107    12.4345207122
H       6.1794873065     3.3871263184    12.7135107992
C       7.1602645703     3.4726904038    13.2159464432
H       7.6417503119     2.4882654947    13.1988022232
H       9.3644835177     4.9821136074    13.8389104254
H       6.5225469653     5.0228838197    14.5847782520
C       7.0085024876     4.0357659690    14.6356542183
O       9.2118032075     5.2020791334    14.7767540521
H       8.9734017276     3.2168248061    15.2911076064
O       6.1213471692     3.0892418815    15.3032016621
C       8.4159038768     4.1614095038    15.3591272317
C       5.7780899876     3.4797257890    16.6201720578
O       5.0648174506     4.7171771694    16.6668920354
C       8.1857650630     4.5232175586    16.8544662604
H       7.8948542118     5.5861132090    16.9242081833
H       5.0882143509     2.6910607692    17.0229643487
H       5.4236600478     5.1564150945    17.4516850093
C       7.0992036638     3.5620923115    17.4747552087
O       9.4351227824     4.3740984072    17.5489142245
H       7.5173345974     2.5473471342    17.5756742757
H       9.2973394023     4.6940400857    18.4561286753
O       6.7746324832     4.0891695394    18.7977064173
H       6.2779990242     3.3919794031    19.2555872829
88
Step 4 | ATOMIC_POSITIONS (angstrom) | Cartesian Angstrom
NI      2.8568593560     1.4508721950     3.0000001930
NI      5.7137187120     1.4508721950     3.0000001930
NI      8.5705780690     1.4508721950     3.0000001930
NI     11.4274374250     1.4508721950     3.0000001930
NI      4.2852890340     3.6271804860     3.0000001930
NI      7.1421483910     3.6271804860     3.0000001930
NI      9.9990077470     3.6271804860     3.0000001930
NI     12.8558671030     3.6271804860     3.0000001930
NI      5.7137187120     5.8034887780     3.0000001930
NI      8.5705780690     5.8034887780     3.0000001930
NI     11.4274374250     5.8034887780     3.0000001930
NI     14.2842967810     5.8034887780     3.0000001930
NI      7.1421483910     7.9797970700     3.0000001930
NI      9.9990077470     7.9797970700     3.0000001930
NI     12.8558671030     7.9797970700     3.0000001930
NI     15.7127264590     7.9797970700     3.0000001930
NI      1.5298037729     0.8087061124     4.8354621600
NI      4.3856926730     0.8094336604     4.8347845765
NI      7.2432769951     0.8088346414     4.8364841491
NI     10.0997992531     0.8085253767     4.8350234443
NI      2.8725618837     2.9162232758     4.8880159806
NI      5.7299069119     2.9159309535     4.8888739657
NI      8.5862608903     2.9165783951     4.8882363560
NI     11.4435728059     2.9165234081     4.8888187511
NI      4.2860652080     5.0714245756     4.8906144812
NI      7.1439251925     5.0708410563     4.8901170239
NI     10.0006755089     5.0710274029     4.8909607673
NI     12.8579320721     5.0710848507     4.8902598972
NI      5.6532878020     7.1820135559     4.9020743842
NI      8.5104414659     7.1816947744     4.9018066162
NI     11.3677162534     7.1813821722     4.9023373953
NI     14.2237391024     7.1817340119     4.9015366134
AG      1.5665913057     2.2429419131     7.1118648656
AG      4.4230485155     2.2430520314     7.1112244904
AG      7.2808086470     2.2431335969     7.1134224067
AG     10.1362553762     2.2434367273     7.1128296864
AG      2.8775287261     4.4046646875     7.1262970084
AG      5.7347062107     4.4049311911     7.1242517959
AG      8.5915851275     4.4043066527     7.1269040957
AG     11.4481321048     4.4048898724     7.1248740392
AG      4.2442717228     6.4892123487     7.1205127058
AG      7.1011721309     6.4893714289     7.1177996863
AG      9.9586205573     6.4890346071     7.1199616292
AG     12.8152082930     6.4892516483     7.1202509883
AG      5.5291237177     8.6496086198     7.2040769934
AG      8.3858850263     8.6496864382     7.2026692391
AG     11.2421421671     8.6496381063     7.2028070553
AG     14.1001004198     8.6491477568     7.2019959592
AG      3.0015663916     1.5254327850     9.6936358261
AG      5.8570478449     1.5248948644     9.6931683953
AG      8.7161445551     1.5239836728     9.6905753835
AG     11.5716622910     1.5253588875     9.6934891109
AG      4.3201387493     3.6798431165     9.7281581723
AG      7.1748522032     3.6779469822     9.7085553755
AG     10.0349934152     3.6792108673     9.7272556451
AG     12.8892268673     3.6794841133     9.7255327853
AG      5.6912684251     5.7644762250     9.7183214542
AG      8.5516549650     5.7683116813     9.6958881521
AG     11.4054331981     5.7640454846     9.7185747266
AG     14.2623772455     5.7638120403     9.7177112682
AG      7.0041699893     7.9110945479     9.7310286272
AG      9.8614988302     7.9135674862     9.7299172887
AG     12.7175937163     7.9124925790     9.7283072963
AG     15.5743792447     7.9124974986     9.7264358266
H       7.5257874494     5.1727977181    12.1714722003
O       7.9900027948     4.3277903969    12.4317828001
H       6.1869084349     3.3992008614    12.7275516920
C       7.1634186160     3.4659633908    13.2261951562
H       7.6538827366     2.4674069308    13.2000303456
H       9.3446074224     4.9786262847    13.8589983299
H       6.5158220739     5.0452398132    14.5999963571
C       7.0203788783     4.0443186398    14.6378463317
O       9.1699384677     5.2012929575    14.7995705756
H       8.9659735237     3.1827991043    15.2962894625
O       6.1598741549     3.1073171194    15.3114629895
C       8.3993146657     4.1486694496    15.3678212965
C       5.8031717465     3.5047490650    16.6200303116
O       5.0757780944     4.7156467900    16.6488292325
C       8.1671040142     4.5158034501    16.8525943220
H       7.8530041772     5.5909982082    16.9146489677
H       5.1485335627     2.6873914207    16.9914572364
H       5.4151864973     5.1919525827    17.4764912991
C       7.1023782737     3.5623269813    17.4746370750
O       9.4062968645     4.3398649394    17.5438096802
H       7.5346661480     2.5316841152    17.5582492219
H       9.2968394104     4.6892318092    18.4455110582
O       6.7815448939     4.1083033316    18.7696591845
H       6.2829012851     3.3975121421    19.2582842733
88
Step 5 | ATOMIC_POSITIONS (angstrom) | Cartesian Angstrom
NI      2.8568593560     1.4508721950     3.0000001930
NI      5.7137187120     1.4508721950     3.0000001930
NI      8.5705780690     1.4508721950     3.0000001930
NI     11.4274374250     1.4508721950     3.0000001930
NI      4.2852890340     3.6271804860     3.0000001930
NI      7.1421483910     3.6271804860     3.0000001930
NI      9.9990077470     3.6271804860     3.0000001930
NI     12.8558671030     3.6271804860     3.0000001930
NI      5.7137187120     5.8034887780     3.0000001930
NI      8.5705780690     5.8034887780     3.0000001930
NI     11.4274374250     5.8034887780     3.0000001930
NI     14.2842967810     5.8034887780     3.0000001930
NI      7.1421483910     7.9797970700     3.0000001930
NI      9.9990077470     7.9797970700     3.0000001930
NI     12.8558671030     7.9797970700     3.0000001930
NI     15.7127264590     7.9797970700     3.0000001930
NI      1.5514995250     0.8184588089     4.7980347615
NI      4.4069340563     0.8194199393     4.7971657203
NI      7.2649157421     0.8185654038     4.7992692346
NI     10.1213012664     0.8182463823     4.7974508035
NI      2.8827375776     2.9275771178     4.8502272130
NI      5.7403574189     2.9271201055     4.8512692464
NI      8.5964183041     2.9280811146     4.8506211172
NI     11.4538907521     2.9278681972     4.8512138030
NI      4.2857504422     5.0692443466     4.8519423523
NI      7.1441299953     5.0683354667     4.8512437927
NI     10.0007700645     5.0686368786     4.8524546060
NI     12.8583156798     5.0687690589     4.8514753737
NI      5.6378793609     7.1779378667     4.8729100575
NI      8.4952919001     7.1775416256     4.8725882400
NI     11.3527183407     7.1770890047     4.8733334641
NI     14.2084394256     7.1775135748     4.8722680843
AG      1.5979196388     2.2209952751     7.0766575036
AG      4.4543278419     2.2211683578     7.0757669775
AG      7.3121772371     2.2209877780     7.0786182860
AG     10.1675845323     2.2214808812     7.0777994195
AG      2.8866487244     4.3975198375     7.0967926435
AG      5.7437804401     4.3978281029     7.0938650181
AG      8.6008095562     4.3971121834     7.0972137022
AG     11.4574096100     4.3977364751     7.0947180232
AG      4.2244208203     6.5035962055     7.0900675743
AG      7.0811950392     6.5039866844     7.0860846932
AG      9.9389863188     6.5035425497     7.0890091437
AG     12.7953280786     6.5036873291     7.0897585769
AG      5.4827356545     8.6802530961     7.1853292827
AG      8.3394372606     8.6803531065     7.1832868615
AG     11.1955614665     8.6803741965     7.1834865725
AG     14.0537425247     8.6797060833     7.1822021460
AG      3.0386660175     1.5043337833     9.7166551231
AG      5.8938690674     1.5038177082     9.7161129449
AG      8.7537694530     1.5025732990     9.7124360770
AG     11.6088739584     1.5041821246     9.7165616188
AG      4.3349749608     3.6736385624     9.7639833571
AG      7.1902320934     3.6722688904     9.7349424282
AG     10.0500058685     3.6730858710     9.7631359803
AG     12.9039954788     3.6733688829     9.7600900268
AG      5.6800813737     5.7718506070     9.7501779292
AG      8.5414186007     5.7754124205     9.7170122885
AG     11.3947227800     5.7714309908     9.7506783827
AG     14.2514301786     5.7709170649     9.7493808128
AG      6.9707904915     7.9359010850     9.7685016384
AG      9.8283576173     7.9388386844     9.7671872695
AG     12.6840396496     7.9373183686     9.7645425020
AG     15.5407348359     7.9373059181     9.7618206209
H       7.5307254600     5.1603110313    12.1841553376
O       7.9907336166     4.3361315738    12.4118703437
H       6.1846357071     3.4003095298    12.7419024262
C       7.1665525465     3.4657091128    13.2304837460
H       7.6543969225     2.4664163541    13.2060200506
H       9.3260513448     4.9769348694    13.8798999885
H       6.5233108333     5.0477847909    14.6099540416
C       7.0280649613     4.0447291430    14.6430772985
O       9.1510891439     5.2053051787    14.8104556764
H       8.9483644275     3.1701029012    15.3036646014
O       6.1758707117     3.1207902830    15.3155664650
C       8.3835585095     4.1439986863    15.3725555413
C       5.8296825518     3.5060783707    16.6241948930
O       5.1003247585     4.7330366899    16.6638282907
C       8.1516865541     4.5018232719    16.8502901748
H       7.8244092776     5.5776441192    16.9053877381
H       5.1906330347     2.6846770773    16.9677708539
H       5.3959407519     5.2014412967    17.4654678371
C       7.1031057522     3.5682512612    17.4650706522
O       9.3907993113     4.3192656119    17.5419532111
H       7.5404314080     2.5376119652    17.5442974447
H       9.2953243698     4.6849983827    18.4368086245
O       6.7776477514     4.1028079151    18.7672512194
H       6.2975711683     3.4201769792    19.2518026448
88
Step 6 | ATOMIC_POSITIONS (angstrom) | Cartesian Angstrom
NI      2.8568593560     1.4508721950     3.0000001930
NI      5.7137187120     1.4508721950     3.0000001930
NI      8.5705780690     1.4508721950     3.0000001930
NI     11.4274374250     1.4508721950     3.0000001930
NI      4.2852890340     3.6271804860     3.0000001930
NI      7.1421483910     3.6271804860     3.0000001930
NI      9.9990077470     3.6271804860     3.0000001930
NI     12.8558671030     3.6271804860     3.0000001930
NI      5.7137187120     5.8034887780     3.0000001930
NI      8.5705780690     5.8034887780     3.0000001930
NI     11.4274374250     5.8034887780     3.0000001930
NI     14.2842967810     5.8034887780     3.0000001930
NI      7.1421483910     7.9797970700     3.0000001930
NI      9.9990077470     7.9797970700     3.0000001930
NI     12.8558671030     7.9797970700     3.0000001930
NI     15.7127264590     7.9797970700     3.0000001930
NI      1.5589805887     0.8147801498     4.7823577289
NI      4.4139679431     0.8158938165     4.7813608611
NI      7.2724151396     0.8148654369     4.7836335202
NI     10.1286270097     0.8146376501     4.7816817403
NI      2.8943422003     2.9412065959     4.8243405072
NI      5.7523255243     2.9405957256     4.8253503820
NI      8.6080095946     2.9418743232     4.8248849912
NI     11.4655867403     2.9414239491     4.8253001220
NI      4.2851684172     5.0700591194     4.8262560892
NI      7.1441039248     5.0688326686     4.8253465549
NI     10.0005295969     5.0692314109     4.8268722171
NI     12.8583937551     5.0694777338     4.8257061820
NI      5.6282669403     7.1890671063     4.8560832309
NI      8.4860241269     7.1886050670     4.8557020766
NI     11.3435237797     7.1880247894     4.8566717701
NI     14.1990184060     7.1885405754     4.8554839836
AG      1.6195417119     2.1977458686     7.0509544052
AG      4.4759256768     2.1979679067     7.0498197354
AG      7.3337867310     2.1975791741     7.0532778617
AG     10.1894412677     2.1981543160     7.0521365408
AG      2.8930444296     4.3794577751     7.0774635279
AG      5.7501604215     4.3797744870     7.0736948192
AG      8.6072927079     4.3790682005     7.0775233939
AG     11.4639804434     4.3796291332     7.0747131138
AG      4.2060717311     6.5305206704     7.0694866414
AG      7.0626977880     6.5310720948     7.0642456752
AG      9.9207964741     6.5305038771     7.0678310899
AG     12.7769013089     6.5306150560     7.0691950978
AG      5.4477912476     8.7133711461     7.1655023345
AG      8.3044718192     8.7135225987     7.1628097460
AG     11.1605147790     8.7135956392     7.1630475632
AG     14.0187779611     8.7127666296     7.1611716956
AG      3.0679384358     1.4782770916     9.7316086929
AG      5.9233122091     1.4782401753     9.7311020874
AG      8.7835864039     1.4763486188     9.7262635894
AG     11.6384497611     1.4780819077     9.7316824699
AG      4.3475321050     3.6529196479     9.7902271073
AG      7.2035215541     3.6520558902     9.7500894427
AG     10.0629436833     3.6523405873     9.7896765560
AG     12.9166327131     3.6527999930     9.7848607479
AG      5.6705358640     5.7921332870     9.7711198304
AG      8.5328992258     5.7955293528     9.7254004988
AG     11.3858752702     5.7916521654     9.7720566876
AG     14.2422738205     5.7909449899     9.7702524125
AG      6.9455387237     7.9656216917     9.7966366858
AG      9.8029382947     7.9684802085     9.7954110146
AG     12.6585462933     7.9670790699     9.7913296540
AG     15.5150980153     7.9668687867     9.7876436356
H       7.5226602007     5.1594666733    12.1965956815
O       8.0111702946     4.3234609967    12.4019394064
H       6.1772467816     3.3928383178    12.7569806698
C       7.1696433734     3.4840300907    13.2239130813
H       7.6491717707     2.4790172698    13.2145442690
H       9.3118182380     4.9755603788    13.8886927561
H       6.5418217851     5.0361991368    14.6146228000
C       7.0326340327     4.0418700110    14.6411131464
O       9.1480313780     5.2116620225    14.8238232639
H       8.9231321961     3.1765426718    15.3119679189
O       6.1687227509     3.1248050174    15.3160254510
C       8.3771690097     4.1470759211    15.3764332482
C       5.8441733339     3.5079164705    16.6250196880
O       5.1230639170     4.7311444646    16.6636491267
C       8.1464976513     4.4913726406    16.8472610955
H       7.8086634706     5.5495547875    16.8975902765
H       5.2101449138     2.6780198824    16.9561369971
H       5.3845151175     5.2093312759    17.4630358404
C       7.1041976465     3.5712193540    17.4653079922
O       9.3857926188     4.3098355796    17.5378094482
H       7.5377452350     2.5588944682    17.5341714419
H       9.2918797102     4.6825057904    18.4331604155
O       6.7879182056     4.1073145339    18.7610131638
H       6.3005045113     3.4261730804    19.2570512997
88
Step 7 | ATOMIC_POSITIONS (angstrom) | Cartesian Angstrom
NI      2.8568593560     1.4508721950     3.0000001930
NI      5.7137187120     1.4508721950     3.0000001930
NI      8.5705780690     1.4508721950     3.0000001930
NI     11.4274374250     1.4508721950     3.0000001930
NI      4.2852890340     3.6271804860     3.0000001930
NI      7.1421483910     3.6271804860     3.0000001930
NI      9.9990077470     3.6271804860     3.0000001930
NI     12.8558671030     3.6271804860     3.0000001930
NI      5.7137187120     5.8034887780     3.0000001930