146
Step 1 | ATOMIC_POSITIONS (angstrom) | Cartesian Angstrom
NI      1.2189535980     0.7037631880     1.4255056150
NI      2.4379071950     2.8150527500     1.4255056150
NI      3.6568607930     4.9263423130     1.4255056150
NI      4.8758143900     7.0376318760     1.4255056150
NI      6.0947679870     9.1489214370     1.4255056150
NI      7.3137215840    11.2602110000     1.4255056150
NI      3.6568607920     0.7037631880     1.4255056150
NI      4.8758143890     2.8150527500     1.4255056150
NI      6.0947679860     4.9263423130     1.4255056150
NI      7.3137215840     7.0376318760     1.4255056150
NI      8.5326751800     9.1489214370     1.4255056150
NI      9.7516287780    11.2602110000     1.4255056150
NI      6.0947679870     0.7037631880     1.4255056150
NI      7.3137215840     2.8150527500     1.4255056150
NI      8.5326751810     4.9263423130     1.4255056150
NI      9.7516287790     7.0376318760     1.4255056150
NI     10.9705823750     9.1489214370     1.4255056150
NI     12.1895359730    11.2602110000     1.4255056150
NI      8.5326751820     0.7037631880     1.4255056150
NI      9.7516287790     2.8150527500     1.4255056150
NI     10.9705823760     4.9263423130     1.4255056150
NI     12.1895359740     7.0376318760     1.4255056150
NI     13.4084895710     9.1489214370     1.4255056150
NI     14.6274431680    11.2602110000     1.4255056150
NI     10.9705823750     0.7037631880     1.4255056150
NI     12.1895359720     2.8150527500     1.4255056150
NI     13.4084895700     4.9263423130     1.4255056150
NI     14.6274431670     7.0376318760     1.4255056150
NI     15.8463967640     9.1489214370     1.4255056150
NI     17.0653503620    11.2602110000     1.4255056150
NI     13.4084895710     0.7037631880     1.4255056150
NI     14.6274431670     2.8150527500     1.4255056150
NI     15.8463967650     4.9263423130     1.4255056150
NI     17.0653503620     7.0376318760     1.4255056150
NI     18.2843039590     9.1489214370     1.4255056150
NI     19.5032575570    11.2602110000     1.4255056150
NI     13.4390385197     7.7565468816     3.3746591461
NI     14.6324141741     9.8228301727     3.3679924984
NI     15.8242507751     7.7592915403     3.3680924877
NI     12.2377187086     9.8281041280     3.3958812647
NI     14.6330970192     5.6828328074     3.3946579441
NI     17.0218029134     9.8272866991     3.3856243266
NI     11.0229169871     7.7472309983     3.4046626312
NI     13.4314420110    11.9184432083     3.4075321811
NI     12.2245891132     5.6690177253     3.4093708145
NI     15.8299557076    11.9148182126     3.4019519607
NI     17.0375873765     5.6728807376     3.4054900972
NI     18.2324183878     7.7510969816     3.4002787116
NI      9.7928706698     9.8337330020     3.4314966704
NI     11.0074141189    11.9349877224     3.4271948634
NI     13.4146359146     3.5639185545     3.4322062652
NI     18.2448276878    11.9305694987     3.4244978377
NI     15.8402418512     3.5667218262     3.4243045676
NI     19.4543217189     9.8340511240     3.4221627852
NI      4.8410305681     5.6518209244     3.4263225527
NI      7.3153952978     1.3684938168     3.4284665039
NI      9.7827012204     5.6475639778     3.4366357346
NI      3.6449706515     3.5459556521     3.4464712520
NI      6.0623643050     7.7400242867     3.4433628542
NI      4.8916759694     1.3860585349     3.4480691044
NI      8.5540589156     7.7388943979     3.4444790663
NI      9.7359887285     1.3810441169     3.4435053460
NI     10.9806875312     3.5392389429     3.4466763923
NI      2.4488773745     1.4165498783     3.4559080590
NI      7.3065876055     9.8371854199     3.4507271885
NI     12.1739319927     1.4099169347     3.4508232935
NI      6.0870355238     3.5156360787     3.4576049668
NI      7.3090872705     5.6361917347     3.4590272565
NI      8.5364370870     3.5132741376     3.4614170898
NI      8.5472108179    11.9517670893     3.4583137587
NI     14.6242973513     1.4277718623     3.4560478141
NI     20.6971554239    11.9500893097     3.4547015980
AG     -0.0512393131    -0.0126106394     5.7397582373
AG      5.8120040896     5.0296020340     5.7494860980
AG      7.2534216544     2.5414164335     5.7500196904
AG      8.6989085614     5.0427384268     5.7492245538
AG      1.3958742840     2.4764197143     5.7583723145
AG      5.8400697481    10.1403090627     5.7640141979
AG      2.8330901430     0.0012052864     5.7554189498
AG      8.6976129132    10.1468331199     5.7564574413
AG     11.6857906244     0.0083947408     5.7674167879
AG     13.1059649102     2.4854067985     5.7613744682
AG      4.3242821568     2.5104628495     5.7709072294
AG      7.2690770775     7.5800509013     5.7682886804
AG     10.1803697234     2.5250717572     5.7691873622
AG      2.8921494582     4.9962228240     5.7960370379
AG      4.3965739947     7.5682854614     5.7924478278
AG      5.7661475109     0.0307052002     5.7930071418
AG     10.1296243503     7.5841338615     5.7776229604
AG      8.7405120794     0.0394844419     5.7926588531
AG     11.5940787970     5.0169246937     5.7829034691
AG     11.5881343406    10.1534498065     5.8002033511
AG     14.5590787355     4.9804263771     5.8026323350
AG     17.5610446190    10.1485697168     5.8078442367
AG     13.0717406525     7.5640906585     5.8244707641
AG     14.5705774947    10.1566630097     5.8288085288
AG     16.0682531684     7.5544358351     5.8310751683
AG      5.7895189325     3.3576324154     8.0762132554
AG      7.2419673333     5.8960050175     8.0656467822
AG      8.7161900045     3.3616546456     8.0741217624
AG      4.3310248909     5.8899599960     8.0838602785
AG      7.2620127515     0.8347629775     8.0827374106
AG     10.1610702948     5.9005573607     7.9937388248
AG      1.4053884524     0.8274110747     8.0837806238
AG      7.2648202079    10.9811434062     8.0870336050
AG     13.1206473845     0.8335634574     8.0886790787
AG      2.8558179414     3.3454705016     8.0910819515
AG      5.8079164465     8.4431450023     8.0875399757
AG      4.3177493829     0.8249454267     8.0892780560
AG      8.7076875604     8.4577461598     8.0740220028
AG     10.2022827211     0.8353319968     8.0882308551
AG     11.6470347073     3.3568729142     8.0915815256
AG     11.6336291832     8.4435926687     8.0767995778
AG     13.1008837128    10.9710137633     8.0988158301
AG     13.1059520700     5.8773268522     8.0821561802
AG     16.0539122605    10.9710411987     8.0915620170
AG     16.0290324128     5.8779062402     8.1024114952
AG     17.5149314559     8.4328056413     8.0922683589
AG     10.1673393636    10.9768001229     8.0964350456
AG     14.5642892779     3.3404215925     8.1011890405
AG     18.9865361716    10.9756665408     8.0918057785
AG     14.5696324629     8.4266644786     8.0994617903
O      10.1589916426     5.8993947015    10.1062840942
H      12.1143663404     5.5230512430    10.5289854586
C      11.0540333446     5.4786753895    10.8234590211
H       8.9164503156     5.2136979496    11.4260148413
O       9.2611482475     4.8168515838    12.2537420301
C      10.6617256202     4.8562737385    12.1214810894
H      11.0876164126     3.8285609440    12.0982753289
O      12.6116524532     6.0600701208    12.8662325395
C      11.3285330655     5.6131070908    13.3070832812
H      10.6557580467     6.4638159087    13.5243252805
H      13.0858671289     6.3500552424    13.6747040011
H      12.3912608525     4.1287720224    14.4198008378
C      11.4752945500     4.7395107827    14.5720571091
O      10.3283025441     3.9179293987    14.7153841520
O      12.8300194499     6.4805223180    15.5927506101
C      11.6857273662     5.6183406903    15.8214367830
H      10.2826620560     3.6405079236    15.6549964523
H      10.7732045963     6.2201692741    15.9696960066
H      12.6036089268     7.3828189207    15.8675134536
H      12.8926665582     4.2125942492    16.9218729505
C      11.9874202626     4.8179214059    17.0919725138
O      10.8523686428     3.9854352129    17.4090999891
H      12.1953201329     5.5214260971    17.9161460729
H      11.1413081316     3.2648813885    17.9904484415
146
Step 2 | ATOMIC_POSITIONS (angstrom) | Cartesian Angstrom
NI      1.2189535980     0.7037631880     1.4255056150
NI      2.4379071950     2.8150527500     1.4255056150
NI      3.6568607930     4.9263423130     1.4255056150
NI      4.8758143900     7.0376318760     1.4255056150
NI      6.0947679870     9.1489214370     1.4255056150
NI      7.3137215840    11.2602110000     1.4255056150
NI      3.6568607920     0.7037631880     1.4255056150
NI      4.8758143890     2.8150527500     1.4255056150
NI      6.0947679860     4.9263423130     1.4255056150
NI      7.3137215840     7.0376318760     1.4255056150
NI      8.5326751800     9.1489214370     1.4255056150
NI      9.7516287780    11.2602110000     1.4255056150
NI      6.0947679870     0.7037631880     1.4255056150
NI      7.3137215840     2.8150527500     1.4255056150
NI      8.5326751810     4.9263423130     1.4255056150
NI      9.7516287790     7.0376318760     1.4255056150
NI     10.9705823750     9.1489214370     1.4255056150
NI     12.1895359730    11.2602110000     1.4255056150
NI      8.5326751820     0.7037631880     1.4255056150
NI      9.7516287790     2.8150527500     1.4255056150
NI     10.9705823760     4.9263423130     1.4255056150
NI     12.1895359740     7.0376318760     1.4255056150
NI     13.4084895710     9.1489214370     1.4255056150
NI     14.6274431680    11.2602110000     1.4255056150
NI     10.9705823750     0.7037631880     1.4255056150
NI     12.1895359720     2.8150527500     1.4255056150
NI     13.4084895700     4.9263423130     1.4255056150
NI     14.6274431670     7.0376318760     1.4255056150
NI     15.8463967640     9.1489214370     1.4255056150
NI     17.0653503620    11.2602110000     1.4255056150
NI     13.4084895710     0.7037631880     1.4255056150
NI     14.6274431670     2.8150527500     1.4255056150
NI     15.8463967650     4.9263423130     1.4255056150
NI     17.0653503620     7.0376318760     1.4255056150
NI     18.2843039590     9.1489214370     1.4255056150
NI     19.5032575570    11.2602110000     1.4255056150
NI     13.4392618668     7.7567758928     3.3740922386
NI     14.6323940533     9.8235999120     3.3680574463
NI     15.8249009387     7.7589912415     3.3679720568
NI     12.2373184593     9.8278504906     3.3957417684
NI     14.6326141628     5.6826172408     3.3943831183
NI     17.0217656979     9.8271914904     3.3860630070
NI     11.0228878696     7.7474675594     3.4046431442
NI     13.4316139937    11.9179667918     3.4074555613
NI     12.2245626072     5.6689593185     3.4085289718
NI     15.8299530196    11.9145267725     3.4021088539
NI     17.0373777265     5.6733168652     3.4054227700
NI     18.2323328572     7.7512086423     3.4006270098
NI      9.7934938529     9.8337072995     3.4316907343
NI     11.0076225503    11.9354014670     3.4276182455
NI     13.4149127605     3.5645422404     3.4322030467
NI     18.2448978310    11.9306491903     3.4243774799
NI     15.8407449254     3.5665944361     3.4247616300
NI     19.4544484918     9.8341672769     3.4222952339
NI      4.8412537588     5.6519672940     3.4263288993
NI      7.3156949787     1.3686235611     3.4286865536
NI      9.7828635536     5.6475418605     3.4348310675
NI      3.6445868809     3.5457879219     3.4461764279
NI      6.0626469171     7.7399629924     3.4435980603
NI      4.8914394202     1.3858563204     3.4477635328
NI      8.5537792581     7.7388803049     3.4445925470
NI      9.7359558226     1.3813611359     3.4439552234
NI     10.9806657625     3.5389640189     3.4466220589
NI      2.4489433662     1.4165720374     3.4552444361
NI      7.3067426157     9.8371271858     3.4511804718
NI     12.1738992580     1.4100758087     3.4513966191
NI      6.0876272048     3.5159625728     3.4570212721
NI      7.3087394700     5.6362191670     3.4590267242
NI      8.5363141116     3.5129961462     3.4611942614
NI      8.5472762416    11.9522750975     3.4585365182
NI     14.6247007564     1.4276854375     3.4562986081
NI     20.6970588095    11.9498616971     3.4544434872
AG     -0.0515309156    -0.0122735888     5.7399930970
AG      5.8122245955     5.0294041330     5.7489080295
AG      7.2533202716     2.5415724546     5.7495195688
AG      8.6989237557     5.0425923955     5.7464799292
AG      1.3957786998     2.4766672028     5.7582088569
AG      5.8400435816    10.1402344796     5.7639117183
AG      2.8332534620     0.0009992820     5.7553992823
AG      8.6973424629    10.1469033544     5.7563502376
AG     11.6857334698     0.0081208009     5.7670198764
AG     13.1061784363     2.4854717099     5.7614938589
AG      4.3242757375     2.5104689282     5.7714239906
AG      7.2691128985     7.5802918384     5.7676979603
AG     10.1802369251     2.5257157149     5.7690404188
AG      2.8923822199     4.9963866924     5.7956945623
AG      4.3964662377     7.5685204528     5.7919226688
AG      5.7666318081     0.0310360674     5.7926810219
AG     10.1293541433     7.5844025116     5.7746447095
AG      8.7406329932     0.0395428057     5.7919023384
AG     11.5951899219     5.0162854347     5.7798051976
AG     11.5879273340    10.1540207385     5.7991240259
AG     14.5595484360     4.9800861258     5.8017106580
AG     17.5609660554    10.1486855084     5.8077681041
AG     13.0709285232     7.5637742151     5.8244305979
AG     14.5704808987    10.1564670276     5.8288695115
AG     16.0678627588     7.5547527337     5.8310276887
AG      5.7894687621     3.3576485066     8.0762148880
AG      7.2387866752     5.8963572582     8.0641886706
AG      8.7145548898     3.3583534002     8.0721429017
AG      4.3310544077     5.8895876898     8.0839831993
AG      7.2613882293     0.8347554224     8.0829149620
AG     10.1583205150     5.9031139194     7.9375978004
AG      1.4044013835     0.8271130926     8.0837679773
AG      7.2641818921    10.9815044198     8.0868519170
AG     13.1206976919     0.8328379642     8.0888399079
AG      2.8562598258     3.3454338779     8.0910365652
AG      5.8076726810     8.4431991517     8.0877912458
AG      4.3179182039     0.8254614211     8.0893762466
AG      8.7058900120     8.4599329547     8.0727133015
AG     10.2022925594     0.8355439245     8.0889588966
AG     11.6492728066     3.3515858281     8.0868086505
AG     11.6354053433     8.4461117021     8.0764864287
AG     13.1009222004    10.9713593624     8.0989543358
AG     13.1122275454     5.8783708631     8.0778518820
AG     16.0535852767    10.9712141077     8.0918970379
AG     16.0293798177     5.8776845663     8.1024487108
AG     17.5147855566     8.4327748310     8.0925741328
AG     10.1675737873    10.9767036089     8.0964891349
AG     14.5643862476     3.3407815382     8.1015157560
AG     18.9865411710    10.9759265241     8.0921875001
AG     14.5696908517     8.4265307475     8.0996744742
O      10.1355287394     5.9150954008    10.1423946566
H      12.1189955091     5.5233988092    10.5284329612
C      11.0709988282     5.4697341619    10.8568245702
H       8.9128200506     5.2147457543    11.4255754237
O       9.2648359346     4.8150973498    12.2558358233
C      10.6659609813     4.8482551376    12.1346407335
H      11.0855539922     3.8279177912    12.0989658390
O      12.6125779273     6.0599307733    12.8665630787
C      11.3277125830     5.6122458239    13.3074310186
H      10.6550392239     6.4648715420    13.5241384308
H      13.0843163058     6.3507079637    13.6728968337
H      12.3914979781     4.1279248638    14.4202674890
C      11.4754683045     4.7398178166    14.5718468751
O      10.3278073102     3.9183184374    14.7161545205
O      12.8301554148     6.4811037838    15.5918631790
C      11.6861540963     5.6179241154    15.8208527009
H      10.2824822261     3.6405656665    15.6550261233
H      10.7726887840     6.2188756446    15.9695854132
H      12.6040675159     7.3829990050    15.8693443005
H      12.8927259178     4.2121436675    16.9209391426
C      11.9877286676     4.8179884696    17.0915390375
O      10.8529348430     3.9864014165    17.4072727440
H      12.1947393030     5.5210330892    17.9160128985
H      11.1418638323     3.2649055273    17.9926151626
