88
Step 1 | ATOMIC_POSITIONS (angstrom) | Cartesian Angstrom
Ni      2.6797587124     1.5471594140     1.5000001930
Ni      5.3595174249     1.5471594140     1.5000001930
Ni      8.0392761373     1.5471594140     1.5000001930
Ni     10.7190348497     1.5471594140     1.5000001930
Ni      4.0196380686     3.8678985350     1.5000001930
Ni      6.6993967811     3.8678985350     1.5000001930
Ni      9.3791554935     3.8678985350     1.5000001930
Ni     12.0589142059     3.8678985350     1.5000001930
Ni      5.3595174249     6.1886376559     1.5000001930
Ni      8.0392761373     6.1886376559     1.5000001930
Ni     10.7190348497     6.1886376559     1.5000001930
Ni     13.3987935621     6.1886376559     1.5000001930
Ni      6.6993967811     8.5093767769     1.5000001930
Ni      9.3791554935     8.5093767769     1.5000001930
Ni     12.0589142059     8.5093767769     1.5000001930
Ni     14.7386729183     8.5093767769     1.5000001930
Ni      1.3397867331     0.7737149581     3.3677855521
Ni      9.3793118287     0.7734627159     3.3680680358
Ni      5.3593363759     7.7360719350     3.3684348709
Ni      5.3593133374     3.0942222183     3.3680990277
Ni      4.0195327781     0.7739966444     3.3682111368
Ni      6.6994132182     0.7736587496     3.3680768554
Ni      2.6798629331     3.0942275808     3.3677662018
Ni      8.0391929974     3.0942975247     3.3687728461
Ni      4.0194411670     5.4149862967     3.3682460956
Ni      6.6995993247     5.4150352090     3.3683737986
Ni     10.7192397668     3.0941595711     3.3682415181
Ni      8.0392202514     7.7357263210     3.3683737942
Ni     13.3989475590     7.7357865114     3.3679580940
Ni      9.3787543711     5.4150476139     3.3680232192
Ni     12.0592614602     5.4149600993     3.3681881786
Ni     10.7191417907     7.7359997734     3.3685779954
Ag      5.3598231389     9.2828274889     5.5908146536
Ag      4.0197276300     2.3206837865     5.5909828971
Ag      6.6993662963     2.3207782070     5.5909057656
Ag      5.3600784354     4.6417312433     5.5908137988
Ag      1.3398088761     2.3209614067     5.5913262938
Ag      9.3791861339     2.3205271391     5.5907544261
Ag      4.0198471693     6.9622557437     5.5902835902
Ag      6.6999072018     6.9616088122     5.5920130838
Ag      8.0391320510     9.2825267937     5.5911397482
Ag     13.3987491664     9.2827811665     5.5909741199
Ag      2.6794000834     4.6413082624     5.5910577157
Ag      8.0390044868     4.6428847891     5.5932040301
Ag     10.7189474914     9.2829229349     5.5905324949
Ag     10.7191890406     4.6414107957     5.5905886178
Ag      9.3779569581     6.9618703719     5.5921250129
Ag     12.0592045038     6.9621968949     5.5907387466
Ag      5.3591531074     1.5468720663     8.3503713161
Ag      4.0197195372     3.8681182095     8.3500389847
Ag      6.6930455496     3.8613461365     8.3418773583
Ag      2.6792377877     1.5475720273     8.3495219663
Ag      8.0391688101     1.5461171204     8.3511712786
Ag      5.3560148510     6.1891297246     8.3497819729
Ag      9.3834163895     3.8652513926     8.3464697185
Ag     12.0584525216     3.8679886845     8.3499992535
Ag      8.0472529355     6.1908438934     8.3256032589
Ag     13.3994044295     6.1885986695     8.3502792243
Ag      9.3811663709     8.5106142528     8.3502353540
Ag     12.0590556897     8.5098899759     8.3497719905
Ag     10.7208683980     6.1882060599     8.3492955880
Ag     10.7199718499     1.5467543433     8.3503261537
Ag      6.6971919497     8.5124646233     8.3502857796
Ag     14.7381938763     8.5096615907     8.3502392875
H       7.6917940151     4.3618907724    10.1259100134
O       7.5843293452     6.6799498058    10.4602324441
C       7.5520433114     5.3496705595    10.8390832462
O       7.9369032449     2.1227209359    11.7809782345
H       5.5628278069     4.6374050476    11.9110289971
H       8.5331464979     1.3445852627    12.1051459287
C       6.7954288676     4.8699785002    12.1185558432
H       6.2438088442     6.9430757868    12.7716057051
C       7.6938880799     3.2934457711    12.8148784647
O       6.8902585329     6.1833261663    13.0271744208
H       8.8213860987     3.6266937343    13.1846276009
H       5.6926493454     1.9974362625    13.4753874871
C       6.7005400051     2.5191909457    13.9262359039
O       7.6203923922     1.2118327927    14.3801195621
H       5.3999232554     4.4910877422    14.6217295782
C       6.1133628671     3.6041859312    15.0744755605
H       7.3830039053     0.9526975498    15.3120918640
H       8.3501249058     4.9853428149    15.3405714544
O       5.0261220830     2.7197634064    15.8334194928
C       7.4739824849     4.4137613780    15.9503270993
H       8.1654114496     3.5931271993    16.5276601258
O       6.8476697708     5.6010941548    16.7892568681
H       5.1173577180     2.9318902370    16.7801208270
H       7.5513580643     6.0221833205    17.2973319947
88
Step 2 | ATOMIC_POSITIONS (angstrom) | Cartesian Angstrom
Ni      2.6797587124     1.5471594140     1.5000001930
Ni      5.3595174249     1.5471594140     1.5000001930
Ni      8.0392761373     1.5471594140     1.5000001930
Ni     10.7190348497     1.5471594140     1.5000001930
Ni      4.0196380686     3.8678985350     1.5000001930
Ni      6.6993967811     3.8678985350     1.5000001930
Ni      9.3791554935     3.8678985350     1.5000001930
Ni     12.0589142059     3.8678985350     1.5000001930
Ni      5.3595174249     6.1886376559     1.5000001930
Ni      8.0392761373     6.1886376559     1.5000001930
Ni     10.7190348497     6.1886376559     1.5000001930
Ni     13.3987935621     6.1886376559     1.5000001930
Ni      6.6993967811     8.5093767769     1.5000001930
Ni      9.3791554935     8.5093767769     1.5000001930
Ni     12.0589142059     8.5093767769     1.5000001930
Ni     14.7386729183     8.5093767769     1.5000001930
Ni      1.3397920407     0.7738941053     3.3671199374
Ni      9.3793142348     0.7734251173     3.3676050533
Ni      5.3591904941     7.7362480059     3.3684375633
Ni      5.3591050381     3.0940786025     3.3677763325
Ni      4.0194728669     0.7743007961     3.3679535421
Ni      6.6994483038     0.7736144967     3.3676308602
Ni      2.6798330065     3.0942697248     3.3671404231
Ni      8.0392397880     3.0943293648     3.3690601087
Ni      4.0191001807     5.4148997998     3.3680032425
Ni      6.6999875090     5.4150441443     3.3683501040
Ni     10.7194588730     3.0942852885     3.3679593103
Ni      8.0393790438     7.7355009229     3.3682770161
Ni     13.3988326469     7.7356834615     3.3673692634
Ni      9.3784893598     5.4151246428     3.3676674611
Ni     12.0594268094     5.4149224508     3.3678277379
Ni     10.7192818862     7.7360181168     3.3686188695
Ag      5.3601181540     9.2827434655     5.5906173229
Ag      4.0198737030     2.3206067582     5.5910041838
Ag      6.6994496307     2.3207962409     5.5906813435
Ag      5.3603585499     4.6418869293     5.5904097047
Ag      1.3396551352     2.3210701762     5.5917367563
Ag      9.3791573122     2.3203717405     5.5905282735
Ag      4.0200903631     6.9622920829     5.5894327378
Ag      6.7000771201     6.9611854478     5.5931455186
Ag      8.0389839560     9.2823266044     5.5911516900
Ag     13.3987205884     9.2825763656     5.5909281848
Ag      2.6791612789     4.6411980813     5.5910824065
Ag      8.0388343485     4.6437521689     5.5951240726
Ag     10.7188731261     9.2828064114     5.5899212893
Ag     10.7193685266     4.6414199534     5.5897531650
Ag      9.3771887297     6.9617241950     5.5929511484
Ag     12.0593684595     6.9621865336     5.5903824305
Ag      5.3585366603     1.5462392756     8.3508944018
Ag      4.0195570622     3.8682818806     8.3503805337
Ag      6.6876605264     3.8554013642     8.3319146899
Ag      2.6788483398     1.5478631045     8.3490742131
Ag      8.0392670003     1.5451872153     8.3526886861
Ag      5.3528160666     6.1895710565     8.3482526849
Ag      9.3869687159     3.8624237249     8.3423854028
Ag     12.0583438645     3.8680655224     8.3501917843
Ag      8.0550002897     6.1939693780     8.2929967475
Ag     13.3997009481     6.1885259045     8.3506579457
Ag      9.3831609330     8.5122632063     8.3501797772
Ag     12.0592896473     8.5102403827     8.3496534602
Ag     10.7231346485     6.1878904936     8.3486473093
Ag     10.7207806105     1.5465516723     8.3506549429
Ag      6.6949601484     8.5156541289     8.3494637036
Ag     14.7378121882     8.5097924166     8.3506637657
H       7.7003135348     4.4166599847    10.1553389790
O       7.5808856084     6.5576940164    10.5068239412
C       7.5163470067     5.3752892438    10.8440296263
O       7.9488300198     2.1428476189    11.7951751703
H       5.6450259697     4.6428220348    11.9270803064
H       8.4921898992     1.4124002285    12.1056426247
C       6.7769237153     4.9162155416    12.0955121535
H       6.2827833128     6.8765063123    12.7729014887
C       7.7085973700     3.2486207896    12.8406679597
O       6.8581791039     6.1562656978    13.0148016618
H       8.7418467303     3.6130919108    13.1686171746
H       5.7617504981     2.0329400179    13.4931096342
C       6.6883172565     2.5239552188    13.9234664365
O       7.5801565003     1.2795128993    14.3782682501
H       5.4566250813     4.4361259804    14.6400900023
C       6.1120812076     3.6095855122    15.0664252102
H       7.3789362756     0.9644646158    15.2962158069
H       8.2841105751     4.9473219011    15.3493254455
O       5.0924735506     2.7599012035    15.8161959726
C       7.4913392383     4.4245384362    15.9604605967
H       8.1097886947     3.6369823016    16.5118971400
O       6.8803801306     5.5395529927    16.7695379983
H       5.1158223881     2.9340957777    16.7821143703
H       7.5396072497     6.0105308350    17.2845791104
88
Step 3 | ATOMIC_POSITIONS (angstrom) | Cartesian Angstrom
Ni      2.6797587124     1.5471594140     1.5000001930
Ni      5.3595174249     1.5471594140     1.5000001930
Ni      8.0392761373     1.5471594140     1.5000001930
Ni     10.7190348497     1.5471594140     1.5000001930
Ni      4.0196380686     3.8678985350     1.5000001930
Ni      6.6993967811     3.8678985350     1.5000001930
Ni      9.3791554935     3.8678985350     1.5000001930
Ni     12.0589142059     3.8678985350     1.5000001930
Ni      5.3595174249     6.1886376559     1.5000001930
Ni      8.0392761373     6.1886376559     1.5000001930
Ni     10.7190348497     6.1886376559     1.5000001930
Ni     13.3987935621     6.1886376559     1.5000001930
Ni      6.6993967811     8.5093767769     1.5000001930
Ni      9.3791554935     8.5093767769     1.5000001930
Ni     12.0589142059     8.5093767769     1.5000001930
Ni     14.7386729183     8.5093767769     1.5000001930
Ni      1.3398085656     0.7742619726     3.3663837904
Ni      9.3791109606     0.7733573754     3.3668823043
Ni      5.3589662806     7.7364492215     3.3686200235
Ni      5.3587675016     3.0937686342     3.3674717715
Ni      4.0194371746     0.7748143791     3.3677650709
Ni      6.6996340594     0.7734824426     3.3670643347
Ni      2.6797801904     3.0944068987     3.3664709784
Ni      8.0393617754     3.0942599276     3.3696922142
Ni      4.0184424167     5.4147877005     3.3676824390
Ni      6.7007037458     5.4151042964     3.3685792029
Ni     10.7198007554     3.0945648483     3.3676315002
Ni      8.0395868261     7.7350039522     3.3684237418
Ni     13.3985425396     7.7354931463     3.3664575310
Ni      9.3779539525     5.4152571808     3.3675765679
Ni     12.0597846753     5.4148729120     3.3673908096
Ni     10.7196510940     7.7361218210     3.3688795330
Ag      5.3605201124     9.2826570954     5.5902287649
Ag      4.0200706437     2.3205505912     5.5910238532
Ag      6.6998487774     2.3208234534     5.5899614983
Ag      5.3604349415     4.6418928541     5.5893146673
Ag      1.3392873883     2.3210641027     5.5925379442
Ag      9.3790676077     2.3201400244     5.5902479605
Ag      4.0204850731     6.9623836895     5.5877864148
Ag      6.6997095766     6.9609286717     5.5950602523
Ag      8.0388925595     9.2823478457     5.5908559517
Ag     13.3986264837     9.2822147306     5.5908701596
Ag      2.6790287663     4.6410313399     5.5913028097
Ag      8.0386981179     4.6441789254     5.5978131359
Ag     10.7186975908     9.2824997186     5.5887490789
Ag     10.7196243315     4.6416256549     5.5878076552
Ag      9.3767108681     6.9618517769     5.5935832552
Ag     12.0595247713     6.9621667431     5.5897860042
Ag      5.3571470135     1.5445912124     8.3518812004
Ag      4.0189050994     3.8685621050     8.3513036746
Ag      6.6799025783     3.8466279664     8.3092938085
Ag      2.6784792050     1.5483448360     8.3481395307
Ag      8.0397829333     1.5437872710     8.3554540473
Ag      5.3474210814     6.1900448561     8.3417679568
Ag      9.3917742026     3.8575823551     8.3335910720
Ag     12.0588988519     3.8680247805     8.3504722628
Ag      8.0687155729     6.2007378444     8.2170781930
Ag     13.3997570131     6.1883732707     8.3510983619
Ag      9.3862249319     8.5156633669     8.3494365430
Ag     12.0600492227     8.5106384111     8.3493078877
Ag     10.7273989937     6.1875048941     8.3474961936
Ag     10.7216479147     1.5464654243     8.3509458274
Ag      6.6914171576     8.5207112887     8.3457622229
Ag     14.7372115874     8.5098931536     8.3513904754
H       7.7212707166     4.5122943765    10.2078048896
O       7.5927770644     6.4536725019    10.5717878694
C       7.4299445218     5.3062117285    10.8753839023
O       7.9239400074     2.2497927090    11.8058922373
H       5.7789578338     4.6498318649    11.9459876473
H       8.4603118268     1.4792784497    12.1319704253
C       6.7621703179     4.9948650523    12.0980903804
H       6.2992126163     6.8198083060    12.7511960416
C       7.6924488119     3.1603564999    12.8593233987
O       6.8528450702     6.0315713204    13.0139142074
H       8.6226916431     3.5938520466    13.1556628782
H       5.8580373442     2.0872172842    13.5076325943
C       6.7099768418     2.5555029707    13.9417574710
O       7.5117338957     1.4032116335    14.3715010944
H       5.5459120901     4.3629671388    14.6574061871
C       6.1492078436     3.5944668465    15.0702481097
H       7.3640289052     0.9931978614    15.2687813705
H       8.1880316939     4.8912084773    15.3417639846
O       5.2072263573     2.8246550979    15.8015554517
C       7.4748557755     4.4340860043    15.9678673394
H       8.0217816798     3.6975434315    16.4986739201
O       6.9293921379     5.4331971809    16.7429041747
H       5.1184418828     2.9421154778    16.7702143241
H       7.5193553423     5.9876278228    17.2591833294
88
Step 4 | ATOMIC_POSITIONS (angstrom) | Cartesian Angstrom
Ni      2.6797587124     1.5471594140     1.5000001930
Ni      5.3595174249     1.5471594140     1.5000001930
Ni      8.0392761373     1.5471594140     1.5000001930
Ni     10.7190348497     1.5471594140     1.5000001930
Ni      4.0196380686     3.8678985350     1.5000001930
Ni      6.6993967811     3.8678985350     1.5000001930
Ni      9.3791554935     3.8678985350     1.5000001930
Ni     12.0589142059     3.8678985350     1.5000001930
Ni      5.3595174249     6.1886376559     1.5000001930
Ni      8.0392761373     6.1886376559     1.5000001930
Ni     10.7190348497     6.1886376559     1.5000001930
Ni     13.3987935621     6.1886376559     1.5000001930
Ni      6.6993967811     8.5093767769     1.5000001930
Ni      9.3791554935     8.5093767769     1.5000001930
Ni     12.0589142059     8.5093767769     1.5000001930
Ni     14.7386729183     8.5093767769     1.5000001930
Ni      1.3398148742     0.7743555858     3.3664602118
Ni      9.3790182913     0.7733585126     3.3667701067
Ni      5.3590188822     7.7364546929     3.3687603278
Ni      5.3587467070     3.0937031939     3.3675117373
Ni      4.0194187741     0.7748840387     3.3677856970
Ni      6.6997184506     0.7734495685     3.3669785384
Ni      2.6797408922     3.0944094172     3.3665710234
Ni      8.0393676009     3.0942640200     3.3698761423
Ni      4.0182961052     5.4147791871     3.3676686373
Ni      6.7008852943     5.4151288998     3.3687471568
Ni     10.7198869502     3.0945718644     3.3675964398
Ni      8.0395890055     7.7348925498     3.3685829277
Ni     13.3984532578     7.7354686917     3.3663052236
Ni      9.3777917879     5.4153078931     3.3678093687
Ni     12.0598856875     5.4148567288     3.3673606543
Ni     10.7196860247     7.7361291432     3.3690070663
Ag      5.3604213833     9.2826964942     5.5899270100
Ag      4.0200065402     2.3205987523     5.5909662180
Ag      6.7000226014     2.3207212664     5.5894876814
Ag      5.3601670156     4.6417689336     5.5886850421
Ag      1.3392493602     2.3209811642     5.5927112601
Ag      9.3790491327     2.3200805294     5.5901158854
Ag      4.0204523807     6.9623865719     5.5872094641
Ag      6.6991260484     6.9613599188     5.5951487154
Ag      8.0390047979     9.2825041434     5.5905548353
Ag     13.3985875029     9.2822105638     5.5908846486
Ag      2.6791964712     4.6410187379     5.5913879296
Ag      8.0388368280     4.6434048026     5.5977798451
Ag     10.7186704833     9.2824395011     5.5883258906
Ag     10.7196174674     4.6417445470     5.5869929057
Ag      9.3773553529     6.9622222976     5.5929112116
Ag     12.0594933928     6.9621325283     5.5896345613
Ag      5.3566817663     1.5438419184     8.3524020174
Ag      4.0180529018     3.8684386434     8.3519262812
Ag      6.6804787746     3.8470346218     8.3004724696
Ag      2.6786531739     1.5485777516     8.3479367590
Ag      8.0400031177     1.5436316636     8.3562461674
Ag      5.3484671075     6.1899483812     8.3390357846
Ag      9.3910148443     3.8572915685     8.3306944913
Ag     12.0596890337     3.8678242776     8.3505619168
Ag      8.0685442811     6.2019175678     8.1959308577
Ag     13.3994940389     6.1883755681     8.3511686432
Ag      9.3861986330     8.5164728610     8.3496034663
Ag     12.0605031580     8.5106125174     8.3491694220
Ag     10.7284854681     6.1875172579     8.3478589967
Ag     10.7214453869     1.5465010133     8.3509960146
Ag      6.6918363603     8.5201046356     8.3447314515
Ag     14.7368595715     8.5100418512     8.3516448826
H       7.7277920449     4.5010210664    10.2057790242
O       7.6077599018     6.4918714442    10.5692316024
C       7.4175990508     5.2796133933    10.8917637834
O       7.9223044224     2.2565256027    11.8089501735
H       5.7635481979     4.6340872622    11.9437663501
H       8.4475230046     1.4986214750    12.1315015813
C       6.7855677137     4.9741479201    12.1259319867
H       6.3133797134     6.7966701629    12.7519584124
C       7.6561470399     3.1642635301    12.8509802838
O       6.8412255674     6.0371518569    13.0247869138
H       8.6225587997     3.6004752156    13.1687162092
H       5.8479650563     2.0924574714    13.4953924566
C       6.7358801615     2.5797424873    13.9588648264
O       7.5146037093     1.4094405390    14.3876070107
H       5.5518420610     4.3762425651    14.6418931873
C       6.1996932367     3.5870106057    15.0850571855
H       7.3556342965     1.0113809446    15.2522473542
H       8.1928136315     4.8916561990    15.3107479871
O       5.2148465871     2.8140477112    15.8133782004
C       7.4397835559     4.4116603009    15.9460770501
H       8.0215299511     3.6812485019    16.5145577845
O       6.8962931348     5.4330960322    16.7546890812
H       5.1269733363     2.9508882338    16.7622445051
H       7.5295950136     5.9846829360    17.2573590046
