88
Step 1 | ATOMIC_POSITIONS (angstrom) | Cartesian Angstrom
NI      2.6797587120     1.5471594140     1.5000001930
NI      5.3595174250     1.5471594140     1.5000001930
NI      8.0392761370     1.5471594140     1.5000001930
NI     10.7190348500     1.5471594140     1.5000001930
NI      4.0196380690     3.8678985350     1.5000001930
NI      6.6993967810     3.8678985350     1.5000001930
NI      9.3791554940     3.8678985350     1.5000001930
NI     12.0589142060     3.8678985350     1.5000001930
NI      5.3595174250     6.1886376560     1.5000001930
NI      8.0392761370     6.1886376560     1.5000001930
NI     10.7190348500     6.1886376560     1.5000001930
NI     13.3987935620     6.1886376560     1.5000001930
NI      6.6993967810     8.5093767770     1.5000001930
NI      9.3791554940     8.5093767770     1.5000001930
NI     12.0589142060     8.5093767770     1.5000001930
NI     14.7386729180     8.5093767770     1.5000001930
NI      1.3397881393     0.7735186429     3.3684395647
NI      9.3792433632     0.7735313513     3.3684509697
NI      5.3595346769     7.7359007121     3.3684535328
NI      5.3595247873     3.0943162159     3.3684812602
NI      4.0195718962     0.7736578311     3.3684467127
NI      6.6994619097     0.7736632998     3.3684684054
NI      2.6798287238     3.0941977466     3.3684754332
NI      8.0392065044     3.0942041363     3.3684799837
NI      4.0197808261     5.4150692195     3.3685017920
NI      6.6992583538     5.4150575348     3.3684902767
NI     10.7190215805     3.0940509298     3.3684788288
NI      8.0390690189     7.7359556717     3.3684507687
NI     13.3989910270     7.7359529847     3.3684798276
NI      9.3790187516     5.4149819637     3.3684850286
NI     12.0590455444     5.4149886449     3.3685133890
NI     10.7190229432     7.7359939436     3.3684708653
AG      5.3595132003     9.2829570224     5.5907447036
AG      4.0196743317     2.3207597153     5.5907852825
AG      6.6993542753     2.3207629427     5.5908030343
AG      5.3595176568     4.6414490726     5.5908847487
AG      1.3398755647     2.3207337828     5.5907891764
AG      9.3791573565     2.3207243495     5.5907988057
AG      4.0196528825     6.9621939289     5.5907694407
AG      6.6993959817     6.9622123306     5.5907796194
AG      8.0392693830     9.2829614084     5.5908126220
AG     13.3988071843     9.2829637896     5.5907794518
AG      2.6798160622     4.6414688922     5.5908262554
AG      8.0392280074     4.6414558628     5.5908197720
AG     10.7190384069     9.2829810069     5.5908394525
AG     10.7190320666     4.6414551034     5.5909175387
AG      9.3791485510     6.9622372794     5.5908996146
AG     12.0589160367     6.9622249444     5.5909140036
AG      5.3595634407     1.5472370330     8.3503629331
AG      4.0197857353     3.8679086182     8.3508332476
AG      6.6993033800     3.8679603014     8.3512089763
AG      2.6797803303     1.5471819420     8.3500854263
AG      8.0392653147     1.5472767042     8.3503094971
AG      5.3596109828     6.1884977780     8.3507216067
AG      9.3790267193     3.8680070382     8.3504226294
AG     12.0589003793     3.8679092237     8.3500868962
AG      8.0393314972     6.1884967788     8.3501976595
AG     13.3987871978     6.1886264778     8.3500789627
AG      9.3791585436     8.5093485733     8.3500134546
AG     12.0588930438     8.5093967043     8.3500295560
AG     10.7189191651     6.1885691876     8.3500549128
AG     10.7189900703     1.5471958342     8.3501023144
AG      6.6993960465     8.5093254948     8.3500691157
AG     14.7386915047     8.5093646389     8.3500608303
O       6.0931128450     4.1361254349    12.2463232686
C       7.1647134925     3.8754452079    12.5194277580
C       7.8829663626     4.4483721474    13.7360548985
O       9.2973445110     4.4135034459    13.6303446346
C       7.4318136717     3.7180673585    14.9946069280
O       6.0187511371     3.6079987254    14.9375884620
C       7.9736156143     4.3483973285    16.2772912296
O       7.5241604911     5.7146661176    16.3363558662
C       7.6468041269     3.5607938577    17.5939074498
O       7.9421549497     2.1948986735    17.3222223951
C       8.5131928860     4.0585848878    18.7666809689
O       8.0789049263     3.3430802713    19.9473419251
H       7.7600509373     4.3240498615    11.5944977555
H       7.5153819392     5.5037748345    13.6569920888
H       9.5475020500     5.0380698825    12.9154674594
H       7.8277805691     2.7211613016    14.8371852417
H       5.6519571065     3.9383766444    15.7724378274
H       9.0402180693     4.3880663697    16.1309662600
H       7.1355016143     5.8890867774    17.2020413767
H       6.5919444392     3.6518685822    17.9206916506
H       7.6162267383     1.6874648067    18.0990631421
H       9.5731183681     3.8813761060    18.6071278721
H       8.4311844506     5.1202187816    18.9521143326
H       8.6590217136     3.6741277686    20.6691521136
88
Step 2 | ATOMIC_POSITIONS (angstrom) | Cartesian Angstrom
NI      2.6797587120     1.5471594140     1.5000001930
NI      5.3595174250     1.5471594140     1.5000001930
NI      8.0392761370     1.5471594140     1.5000001930
NI     10.7190348500     1.5471594140     1.5000001930
NI      4.0196380690     3.8678985350     1.5000001930
NI      6.6993967810     3.8678985350     1.5000001930
NI      9.3791554940     3.8678985350     1.5000001930
NI     12.0589142060     3.8678985350     1.5000001930
NI      5.3595174250     6.1886376560     1.5000001930
NI      8.0392761370     6.1886376560     1.5000001930
NI     10.7190348500     6.1886376560     1.5000001930
NI     13.3987935620     6.1886376560     1.5000001930
NI      6.6993967810     8.5093767770     1.5000001930
NI      9.3791554940     8.5093767770     1.5000001930
NI     12.0589142060     8.5093767770     1.5000001930
NI     14.7386729180     8.5093767770     1.5000001930
NI      1.3397860132     0.7735213398     3.3684179151
NI      9.3792490455     0.7735417409     3.3684444678
NI      5.3595528717     7.7359001326     3.3684330214
NI      5.3595254496     3.0943249688     3.3684744382
NI      4.0195709109     0.7736187156     3.3684005856
NI      6.6994583267     0.7736299297     3.3684466246
NI      2.6798158427     3.0942122214     3.3684392539
NI      8.0392370507     3.0942367380     3.3684593649
NI      4.0197639071     5.4150785907     3.3684767287
NI      6.6992831795     5.4150626288     3.3684673589
NI     10.7190009133     3.0940817095     3.3684366226
NI      8.0390974543     7.7359568220     3.3683939697
NI     13.3989581355     7.7359504668     3.3684422899
NI      9.3790533942     5.4149878134     3.3684029147
NI     12.0590042580     5.4150131214     3.3684490954
NI     10.7190093890     7.7359684635     3.3683973325
AG      5.3595173413     9.2829516476     5.5905718870
AG      4.0196754632     2.3207614747     5.5906399122
AG      6.6993508118     2.3207682378     5.5906610933
AG      5.3595244778     4.6414398465     5.5907859287
AG      1.3398817668     2.3207302015     5.5906110492
AG      9.3791458037     2.3207321964     5.5906582023
AG      4.0196484293     6.9621863568     5.5906084361
AG      6.6994025703     6.9622097320     5.5906039905
AG      8.0392609561     9.2829695302     5.5906691993
AG     13.3988111528     9.2829584480     5.5905931544
AG      2.6798407867     4.6414658143     5.5906515708
AG      8.0392243686     4.6414429340     5.5906508783
AG     10.7190422307     9.2829844981     5.5906708510
AG     10.7190093363     4.6414457489     5.5907651363
AG      9.3791471886     6.9622320778     5.5907396941
AG     12.0589214443     6.9622278911     5.5907559627
AG      5.3596060933     1.5473062445     8.3507135889
AG      4.0198964324     3.8679109523     8.3515502446
AG      6.6993166794     3.8680154970     8.3521788693
AG      2.6797962386     1.5471951375     8.3502054616
AG      8.0392423278     1.5473575788     8.3506032315
AG      5.3596761034     6.1884086800     8.3512975337
AG      9.3788663953     3.8681070634     8.3512214340
AG     12.0588667308     3.8679214551     8.3502183059
AG      8.0393525764     6.1883428163     8.3506416838
AG     13.3987807246     6.1886189189     8.3501878174
AG      9.3791551344     8.5093187250     8.3500832383
AG     12.0588832281     8.5094136100     8.3501202334
AG     10.7188596609     6.1885238378     8.3501797798
AG     10.7189604664     1.5472358924     8.3502521362
AG      6.6994102712     8.5092746170     8.3501794674
AG     14.7386939436     8.5093632844     8.3501546824
O       5.9877975107     4.1105364452    12.2382529605
C       7.2103725898     3.9483115136    12.5158815532
C       7.8876880735     4.4429772322    13.7538351550
O       9.3007439723     4.4145723343    13.6331447637
C       7.4307037488     3.7116545081    14.9944423105
O       6.0093607716     3.6064182953    14.9419008070
C       7.9741716417     4.3457902718    16.2727985884
O       7.5195209451     5.7189177224    16.3354448687
C       7.6588271341     3.5633991817    17.5968819809
O       7.9392320555     2.1864341564    17.3224199330
C       8.5176559700     4.0632576776    18.7714217084
O       8.0783261139     3.3415086165    19.9519681735
H       7.8056806651     4.3005859323    11.5596750153
H       7.5164246666     5.4950460925    13.6647334652
H       9.5490539347     5.0353942581    12.9163205625
H       7.8363385696     2.7149982696    14.8492433605
H       5.6483936699     3.9422877419    15.7751654398
H       9.0520724275     4.3832566723    16.1359728575
H       7.1315225104     5.8925018824    17.2092513702
H       6.5904604642     3.6570905068    17.9136708952
H       7.6196829987     1.6879002447    18.0974056724
H       9.5767810639     3.8737964218    18.5966521989
H       8.4224772878     5.1317680429    18.9473589591
H       8.6541633501     3.6691844402    20.6679537894
88
Step 3 | ATOMIC_POSITIONS (angstrom) | Cartesian Angstrom
NI      2.6797587120     1.5471594140     1.5000001930
NI      5.3595174250     1.5471594140     1.5000001930
NI      8.0392761370     1.5471594140     1.5000001930
NI     10.7190348500     1.5471594140     1.5000001930
NI      4.0196380690     3.8678985350     1.5000001930
NI      6.6993967810     3.8678985350     1.5000001930
NI      9.3791554940     3.8678985350     1.5000001930
NI     12.0589142060     3.8678985350     1.5000001930
NI      5.3595174250     6.1886376560     1.5000001930
NI      8.0392761370     6.1886376560     1.5000001930
NI     10.7190348500     6.1886376560     1.5000001930
NI     13.3987935620     6.1886376560     1.5000001930
NI      6.6993967810     8.5093767770     1.5000001930
NI      9.3791554940     8.5093767770     1.5000001930
NI     12.0589142060     8.5093767770     1.5000001930
NI     14.7386729180     8.5093767770     1.5000001930
NI      1.3397975570     0.7735086005     3.3683756172
NI      9.3792615718     0.7735632332     3.3684360822
NI      5.3596106328     7.7358842120     3.3683953284
NI      5.3595260175     3.0943460714     3.3684529126
NI      4.0195677350     0.7735214958     3.3683164593
NI      6.6994403700     0.7735582905     3.3683991534
NI      2.6797924618     3.0942450671     3.3683717413
NI      8.0392785724     3.0943039218     3.3684161185
NI      4.0197391980     5.4150949267     3.3684259832
NI      6.6993370314     5.4150879448     3.3684109223
NI     10.7189815477     3.0941449886     3.3683705598
NI      8.0391625357     7.7359541330     3.3682840511
NI     13.3988774532     7.7359323131     3.3683788212
NI      9.3791161823     5.4150373386     3.3682622164
NI     12.0589194313     5.4150701081     3.3683378232
NI     10.7189726659     7.7359108195     3.3682661941
AG      5.3595261969     9.2829426310     5.5902729711
AG      4.0196752732     2.3207578530     5.5903982418
AG      6.6993442378     2.3207693086     5.5904314108
AG      5.3595363676     4.6414268882     5.5906507971
AG      1.3398900075     2.3207267641     5.5903108244
AG      9.3791345736     2.3207465379     5.5904307627
AG      4.0196451571     6.9621756713     5.5903218303
AG      6.6994217749     6.9622065881     5.5903131907
AG      8.0392511658     9.2829767725     5.5904246342
AG     13.3988159183     9.2829501341     5.5902773864
AG      2.6798670550     4.6414628025     5.5903416512
AG      8.0392260370     4.6414337204     5.5903403401
AG     10.7190470302     9.2829836121     5.5903736270
AG     10.7189791592     4.6414326548     5.5905253463
AG      9.3791426151     6.9622230759     5.5904762665
AG     12.0589227330     6.9622254417     5.5904895674
AG      5.3596746802     1.5474152395     8.3513965333
AG      4.0200522449     3.8679168924     8.3529620711
AG      6.6993224055     3.8680861326     8.3539285509
AG      2.6798310166     1.5472219181     8.3504263811
AG      8.0391980811     1.5474963970     8.3510853790
AG      5.3597743350     6.1882856277     8.3523646481
AG      9.3786072522     3.8682576172     8.3525857238
AG     12.0588216035     3.8679432202     8.3504338372
AG      8.0393732666     6.1881050909     8.3513967276
AG     13.3987865753     6.1885889106     8.3503851186
AG      9.3791515442     8.5092717550     8.3501854468
AG     12.0588591856     8.5094438534     8.3502697521
AG     10.7187734429     6.1884566585     8.3503792799
AG     10.7189135695     1.5473077538     8.3504932956
AG      6.6994373042     8.5091787750     8.3503582477
AG     14.7387060198     8.5093537303     8.3503172053
O       5.9411214676     4.0518332050    12.2549526608
C       7.1862615440     4.0928348969    12.4308818507
C       7.8920890514     4.4454572494    13.7675290224
O       9.3065002433     4.4168421221    13.6363659096
C       7.4220259926     3.7064029692    15.0017302830
O       6.0007091021     3.6026834114    14.9507693392
C       7.9677328645     4.3452259216    16.2796711213
O       7.5126293435     5.7193113104    16.3371793619
C       7.6764957652     3.5683487744    17.5906651715
O       7.9341219989     2.1798595956    17.3269905794
C       8.5126651583     4.0565753544    18.7776141468
O       8.0829673305     3.3464087773    19.9530841136
H       7.8556290106     4.2467202993    11.5460692214
H       7.5192447902     5.4835662181    13.6853506959
H       9.5503449387     5.0274917587    12.9216147810
H       7.8511376902     2.6977192213    14.8698693298
H       5.6432368387     3.9494292422    15.7795351820
H       9.0739001289     4.3763864374    16.1425664102
H       7.1277983712     5.8955630239    17.2151059573
H       6.5933620386     3.6661660005    17.9011518610
H       7.6260029319     1.6870249992    18.0953309406
H       9.5870412364     3.8620101074    18.5804557628
H       8.4088928214     5.1543062931    18.9408567560
H       8.6455675955     3.6594601045    20.6688798734
88
Step 4 | ATOMIC_POSITIONS (angstrom) | Cartesian Angstrom
NI      2.6797587120     1.5471594140     1.5000001930
NI      5.3595174250     1.5471594140     1.5000001930
NI      8.0392761370     1.5471594140     1.5000001930
NI     10.7190348500     1.5471594140     1.5000001930
NI      4.0196380690     3.8678985350     1.5000001930
NI      6.6993967810     3.8678985350     1.5000001930
NI      9.3791554940     3.8678985350     1.5000001930
NI     12.0589142060     3.8678985350     1.5000001930
NI      5.3595174250     6.1886376560     1.5000001930
NI      8.0392761370     6.1886376560     1.5000001930
NI     10.7190348500     6.1886376560     1.5000001930
NI     13.3987935620     6.1886376560     1.5000001930
NI      6.6993967810     8.5093767770     1.5000001930
NI      9.3791554940     8.5093767770     1.5000001930
NI     12.0589142060     8.5093767770     1.5000001930
NI     14.7386729180     8.5093767770     1.5000001930
NI      1.3397860835     0.7735079926     3.3683392191
NI      9.3792823496     0.7735882569     3.3684135852
NI      5.3596418612     7.7358908014     3.3683693762
NI      5.3595358194     3.0943545576     3.3684400740
NI      4.0195611138     0.7734665525     3.3682686445
NI      6.6994412198     0.7735267766     3.3683641026
NI      2.6797614825     3.0942589553     3.3683285050
NI      8.0393208287     3.0943394093     3.3683670715
NI      4.0197313610     5.4151074903     3.3684079032
NI      6.6993839264     5.4151044736     3.3683715918
NI     10.7189609723     3.0941726989     3.3683081414
NI      8.0391950938     7.7359462420     3.3682153425
NI     13.3988423640     7.7359356109     3.3683529460
NI      9.3791502213     5.4150558648     3.3681668701
NI     12.0588519239     5.4150893199     3.3682747482
NI     10.7189489208     7.7358694254     3.3681937954
AG      5.3595285073     9.2829398900     5.5900991910
AG      4.0196774109     2.3207549991     5.5902757649
AG      6.6993396901     2.3207649196     5.5903078970
AG      5.3595412359     4.6414219798     5.5906137191
AG      1.3398899344     2.3207269625     5.5901374594
AG      9.3791330833     2.3207492745     5.5903024045
AG      4.0196515660     6.9621708660     5.5901482545
AG      6.6994262068     6.9622007565     5.5901525369
AG      8.0392479030     9.2829798140     5.5902814183
AG     13.3988198228     9.2829492563     5.5901029772
AG      2.6798739727     4.6414579547     5.5901642599
AG      8.0392258838     4.6414331117     5.5901484563
AG     10.7190483295     9.2829862617     5.5902028299
AG     10.7189710300     4.6414226640     5.5904014002
AG      9.3791378407     6.9622153943     5.5903285917
AG     12.0589226000     6.9622176669     5.5903371623
AG      5.3597052943     1.5474610985     8.3518853725
AG      4.0201026532     3.8679226240     8.3540125033
AG      6.6993100773     3.8680661317     8.3549398159
AG      2.6798487005     1.5472350472     8.3505540993
AG      8.0391815741     1.5475861015     8.3513643150
AG      5.3598088363     6.1882623874     8.3530538325
AG      9.3785121843     3.8682853751     8.3534087607
AG     12.0587939788     3.8679537206     8.3505427788
AG      8.0393770991     6.1880468446     8.3518113877
AG     13.3987996660     6.1885670220     8.3504894290
AG      9.3791458598     8.5092433832     8.3502334203
AG     12.0588463535     8.5094556073     8.3503483423
AG     10.7187392654     6.1884281363     8.3504905764
AG     10.7188851164     1.5473572006     8.3506282607
AG      6.6994562181     8.5091165900     8.3504576749
AG     14.7387147130     8.5093432536     8.3504000193
O       5.9490591394     4.0413314980    12.2523303452
C       7.1637871418     4.1268516748    12.4199344939
C       7.8820668500     4.4551873317    13.7370331322
O       9.3050207457     4.4113352911    13.6419415046
C       7.4191041145     3.6963447852    15.0010214576
O       6.0007444063     3.5990020305    14.9565402797
C       7.9791420204     4.3494319166    16.2848549534
O       7.5085307924     5.7144591091    16.3425500299
C       7.6695263145     3.5650801460    17.5896554621
O       7.9364510205     2.1870011623    17.3215110336
C       8.5171081110     4.0615621328    18.7765873396
O       8.0793718551     3.3466753220    19.9437159259
H       7.8716466134     4.2256396245    11.5407919966
H       7.5215730561     5.4908574526    13.7082676703
H       9.5532001021     5.0264178847    12.9219294572
H       7.8546976008     2.6928141245    14.8831609156
H       5.6398501788     3.9546913330    15.7832156416
H       9.0732934955     4.3734237140    16.1457846337
H       7.1276420403     5.8958838544    17.2143932486
H       6.6028107037     3.6715579014    17.8920484419
H       7.6264748402     1.6820032288    18.1030895107
H       9.5856619590     3.8585428869    18.5748982015
H       8.4037984996     5.1546117582    18.9356801107
H       8.6469397462     3.6569646231    20.6781009159
88
Step 5 | ATOMIC_POSITIONS (angstrom) | Cartesian Angstrom
NI      2.6797587120     1.5471594140     1.5000001930
NI      5.3595174250     1.5471594140     1.5000001930
NI      8.0392761370     1.5471594140     1.5000001930
NI     10.7190348500     1.5471594140     1.5000001930
NI      4.0196380690     3.8678985350     1.5000001930
NI      6.6993967810     3.8678985350     1.5000001930
NI      9.3791554940     3.8678985350     1.5000001930
NI     12.0589142060     3.8678985350     1.5000001930
NI      5.3595174250     6.1886376560     1.5000001930
NI      8.0392761370     6.1886376560     1.5000001930
NI     10.7190348500     6.1886376560     1.5000001930
NI     13.3987935620     6.1886376560     1.5000001930
NI      6.6993967810     8.5093767770     1.5000001930
NI      9.3791554940     8.5093767770     1.5000001930
NI     12.0589142060     8.5093767770     1.5000001930
NI     14.7386729180     8.5093767770     1.5000001930
NI      1.3397731396     0.7735264367     3.3683319757
NI      9.3792579161     0.7735866483     3.3683977741
NI      5.3596117599     7.7358795922     3.3683481915
NI      5.3595039773     3.0943781341     3.3684228910
NI      4.0195902055     0.7734659201     3.3682512869
NI      6.6994529029     0.7734834533     3.3683178052
NI      2.6797872837     3.0943202786     3.3682758873
NI      8.0393421719     3.0943387693     3.3683174503
NI      4.0197149524     5.4150891215     3.3683795160
NI      6.6993512414     5.4150867286     3.3683766537
NI     10.7189436072     3.0942170145     3.3682634184
NI      8.0392233375     7.7359596400     3.3682145592
NI     13.3988016307     7.7359481670     3.3683240353
NI      9.3792284020     5.4150545251     3.3681060064
NI     12.0588260315     5.4151188189     3.3682276365
NI     10.7189972471     7.7358416388     3.3681412181
AG      5.3595291018     9.2829316942     5.5898683200
AG      4.0196799216     2.3207568639     5.5901116825
AG      6.6993252190     2.3207562349     5.5901366041
AG      5.3595369521     4.6414161872     5.5905827259
AG      1.3398972281     2.3207278767     5.5899000012
AG      9.3791300770     2.3207443541     5.5901337061
AG      4.0196645329     6.9621619488     5.5899032619
AG      6.6994175332     6.9621929341     5.5899408942
AG      8.0392462500     9.2829874378     5.5900900306
AG     13.3988229237     9.2829450548     5.5898653401
AG      2.6798873580     4.6414474387     5.5899175632
AG      8.0392147378     4.6414325172     5.5898943440
AG     10.7190478560     9.2829945968     5.5899678160
AG     10.7189722413     4.6414092229     5.5902451754
AG      9.3791306780     6.9622123051     5.5901316908
AG     12.0589290652     6.9622070135     5.5901282732
AG      5.3597325903     1.5475065131     8.3526410573
AG      4.0201435471     3.8679344628     8.3556777700
AG      6.6992684931     3.8680166141     8.3564168024
AG      2.6798665633     1.5472477653     8.3507130921
AG      8.0391668972     1.5476890252     8.3517556075
AG      5.3598404220     6.1882542930     8.3540759652
AG      9.3784285236     3.8682877615     8.3546525079
AG     12.0587554562     3.8679663718     8.3506668351
AG      8.0393676282     6.1880257711     8.3523768484
AG     13.3988222307     6.1885380537     8.3506084588
AG      9.3791359791     8.5092090406     8.3502750081
AG     12.0588339726     8.5094691008     8.3504396028
AG     10.7187074414     6.1883992516     8.3506280278
AG     10.7188517435     1.5474174538     8.3508046150
AG      6.6994789112     8.5090411575     8.3505806165
AG     14.7387248050     8.5093334462     8.3504921155
O       5.9680316789     4.0339191352    12.2446273717
C       7.1468883689     4.1460080145    12.4058518774
C       7.8651652013     4.4608263724    13.7132251828
O       9.2969192956     4.4100058482    13.6353737696
C       7.4194139746     3.6954972950    14.9905113405
O       6.0011371941     3.5921838093    14.9687577177
C       7.9831104260     4.3507906297    16.2854666216
O       7.5070535650     5.7061183372    16.3438977549
C       7.6718446275     3.5663331996    17.5864080310
O       7.9337151747     2.1848440208    17.3297318199
C       8.5178985208     4.0657443445    18.7688924035
O       8.0848882871     3.3527708594    19.9454367192
H       7.8795755985     4.2036860927    11.5383394978
H       7.5240893245     5.5140712985    13.7451560248
H       9.5590722174     5.0195739152    12.9284666045
H       7.8578628254     2.6858005148    14.8995744274
H       5.6367440932     3.9619072948    15.7862220947
H       9.0754259035     4.3712621783    16.1496712729
H       7.1258349198     5.8962694122    17.2186909086
H       6.6085460050     3.6795247963    17.8812551619
H       7.6335559120     1.6843369284    18.0994059191
H       9.5830325318     3.8557423426    18.5683186832
H       8.3988176648     5.1528442417    18.9285054274
H       8.6389768838     3.6476585925    20.6789033211
88
Step 6 | ATOMIC_POSITIONS (angstrom) | Cartesian Angstrom
NI      2.6797587120     1.5471594140     1.5000001930
NI      5.3595174250     1.5471594140     1.5000001930
NI      8.0392761370     1.5471594140     1.5000001930
NI     10.7190348500     1.5471594140     1.5000001930
NI      4.0196380690     3.8678985350     1.5000001930
NI      6.6993967810     3.8678985350     1.5000001930
NI      9.3791554940     3.8678985350     1.5000001930
NI     12.0589142060     3.8678985350     1.5000001930
NI      5.3595174250     6.1886376560     1.5000001930
NI      8.0392761370     6.1886376560     1.5000001930
NI     10.7190348500     6.1886376560     1.5000001930
NI     13.3987935620     6.1886376560     1.5000001930
NI      6.6993967810     8.5093767770     1.5000001930
NI      9.3791554940     8.5093767770     1.5000001930
NI     12.0589142060     8.5093767770     1.5000001930
NI     14.7386729180     8.5093767770     1.5000001930
NI      1.3397457408     0.7735171393     3.3682904863
NI      9.3792732849     0.7735982352     3.3683472488
NI      5.3596253602     7.7358720676     3.3682934147
NI      5.3595131775     3.0944185606     3.3684024873
NI      4.0195859345     0.7734208695     3.3682150922
NI      6.6994727863     0.7734492625     3.3682646310
NI      2.6797708750     3.0943590216     3.3682249825
NI      8.0393839701     3.0943764375     3.3682457174
NI      4.0197248016     5.4151047089     3.3683433281
NI      6.6993711258     5.4151029602     3.3683283963
NI     10.7189071335     3.0942543157     3.3681942560
NI      8.0392380837     7.7359364968     3.3681578937
NI     13.3987816003     7.7359517319     3.3682765577
NI      9.3792641641     5.4150660429     3.3680124653
NI     12.0587645759     5.4151446251     3.3681606308
NI     10.7189942693     7.7357871013     3.3680724274
AG      5.3595302765     9.2829265914     5.5896819385
AG      4.0196830965     2.3207617837     5.5899990446
AG      6.6993214167     2.3207569004     5.5900126362
AG      5.3595392739     4.6414127360     5.5905977344
AG      1.3398939522     2.3207297872     5.5897047002
AG      9.3791272659     2.3207462092     5.5900068650
AG      4.0196797635     6.9621525857     5.5897055506
AG      6.6994134698     6.9621820117     5.5897688203
AG      8.0392427499     9.2829851966     5.5899359963
AG     13.3988285778     9.2829429210     5.5896831702
AG      2.6798956524     4.6414382509     5.5897263932
AG      8.0392091365     4.6414297643     5.5896914238
AG     10.7190461174     9.2829948283     5.5897827146
AG     10.7189656272     4.6413970533     5.5901303800
AG      9.3791220782     6.9622018785     5.5899690197
AG     12.0589295456     6.9621930475     5.5899663186
AG      5.3597499849     1.5475348716     8.3533734475
AG      4.0201652112     3.8679473133     8.3573009429
AG      6.6992273956     3.8679777405     8.3578082555
AG      2.6798775640     1.5472580257     8.3508572731
AG      8.0391570306     1.5477602483     8.3521244013
AG      5.3598636550     6.1882454798     8.3550412340
AG      9.3783704704     3.8682831274     8.3558534441
AG     12.0587265232     3.8679764338     8.3507681858
AG      8.0393515797     6.1880162657     8.3528792927
AG     13.3988425875     6.1885131216     8.3507078768
AG      9.3791320962     8.5091847315     8.3503100647
AG     12.0588290134     8.5094800049     8.3505270226
AG     10.7186867434     6.1883760525     8.3507460221
AG     10.7188270384     1.5474576203     8.3509690597
AG      6.6994912282     8.5089906425     8.3506958954
AG     14.7387308540     8.5093323055     8.3505743934
O       5.9689588718     4.0208025287    12.2354715556
C       7.1508770667     4.1598080069    12.3937689046
C       7.8546361049     4.4733446891    13.7081854643
O       9.2840401223     4.4039408969    13.6314433911
C       7.4195107311     3.6944823536    14.9837360014
O       6.0017622794     3.5840647621    14.9770417811
C       7.9852042458     4.3484427246    16.2791269829
O       7.5038644308     5.7028534063    16.3482555132
C       7.6752036200     3.5656565889    17.5841281721
O       7.9355172575     2.1887269477    17.3266916278
C       8.5187419533     4.0668334245    18.7653667739
O       8.0824944312     3.3545332491    19.9373111226
H       7.8830178818     4.1886792392    11.5339257386
H       7.5270745310     5.5304738837    13.7773837558
H       9.5668948194     5.0181543486    12.9289774900
H       7.8593716097     2.6826557030    14.9117433201
H       5.6348288177     3.9697013772    15.7901641930
H       9.0784820827     4.3701978572    16.1526823695
H       7.1258656982     5.8953598238    17.2196319028
H       6.6104758191     3.6869623011    17.8723556270
H       7.6362995822     1.6816416296    18.1054980252
H       9.5811455412     3.8542736732    18.5621657151
H       8.3951154710     5.1528711280    18.9217368242
H       8.6383087937     3.6433371039    20.6858833090
88
Step 7 | ATOMIC_POSITIONS (angstrom) | Cartesian Angstrom
NI      2.6797587120     1.5471594140     1.5000001930
NI      5.3595174250     1.5471594140     1.5000001930
NI      8.0392761370     1.5471594140     1.5000001930
NI     10.7190348500     1.5471594140     1.5000001930
NI      4.0196380690     3.8678985350     1.5000001930
NI      6.6993967810     3.8678985350     1.5000001930
NI      9.3791554940     3.8678985350     1.5000001930
NI     12.0589142060     3.8678985350     1.5000001930
NI      5.3595174250     6.1886376560     1.5000001930