88
Step 1 | ATOMIC_POSITIONS (angstrom) | Cartesian Angstrom
NI      2.6797587120     1.5471594140     1.5000001930
NI      5.3595174250     1.5471594140     1.5000001930
NI      8.0392761370     1.5471594140     1.5000001930
NI     10.7190348500     1.5471594140     1.5000001930
NI      4.0196380690     3.8678985350     1.5000001930
NI      6.6993967810     3.8678985350     1.5000001930
NI      9.3791554940     3.8678985350     1.5000001930
NI     12.0589142060     3.8678985350     1.5000001930
NI      5.3595174250     6.1886376560     1.5000001930
NI      8.0392761370     6.1886376560     1.5000001930
NI     10.7190348500     6.1886376560     1.5000001930
NI     13.3987935620     6.1886376560     1.5000001930
NI      6.6993967810     8.5093767770     1.5000001930
NI      9.3791554940     8.5093767770     1.5000001930
NI     12.0589142060     8.5093767770     1.5000001930
NI     14.7386729180     8.5093767770     1.5000001930
NI      1.3397749898     0.7735163387     3.3684286419
NI      9.3792473014     0.7735459948     3.3684370072
NI      5.3595461473     7.7358816133     3.3684333762
NI      5.3595465242     3.0943451495     3.3684702576
NI      4.0195704291     0.7736343316     3.3684427748
NI      6.6994748630     0.7736551338     3.3684584775
NI      2.6798007960     3.0942275768     3.3684615045
NI      8.0392330376     3.0942468562     3.3684502938
NI      4.0197775674     5.4150832733     3.3684790441
NI      6.6992945360     5.4150655493     3.3684524960
NI     10.7190027592     3.0940918939     3.3684476024
NI      8.0390786958     7.7359072001     3.3684224474
NI     13.3989802252     7.7359297086     3.3684573700
NI      9.3790204261     5.4149804614     3.3684356668
NI     12.0590138019     5.4149923582     3.3684759730
NI     10.7190144987     7.7359445877     3.3684438495
AG      5.3595132531     9.2829575910     5.5907346310
AG      4.0196735296     2.3207613556     5.5907771332
AG      6.6993593855     2.3207658840     5.5907934396
AG      5.3595211428     4.6414525384     5.5908710826
AG      1.3398711208     2.3207376973     5.5907771345
AG      9.3791588377     2.3207297447     5.5907857857
AG      4.0196523149     6.9621943061     5.5907563602
AG      6.6994000195     6.9622102278     5.5907637000
AG      8.0392687815     9.2829571841     5.5908019146
AG     13.3988083774     9.2829632271     5.5907699970
AG      2.6798113082     4.6414722909     5.5908112559
AG      8.0392332900     4.6414588015     5.5908005175
AG     10.7190394055     9.2829758269     5.5908299579
AG     10.7190292792     4.6414577367     5.5908976030
AG      9.3791495846     6.9622317716     5.5908809950
AG     12.0589129697     6.9622217744     5.5908977657
AG      5.3595657028     1.5472369240     8.3503721948
AG      4.0197866604     3.8679090455     8.3508434318
AG      6.6993062813     3.8679605527     8.3512132504
AG      2.6797794036     1.5471817948     8.3500961918
AG      8.0392670591     1.5472772894     8.3503166189
AG      5.3596126739     6.1884984808     8.3507304574
AG      9.3790273574     3.8680075389     8.3504289694
AG     12.0588975560     3.8679098058     8.3500960538
AG      8.0393332571     6.1884958390     8.3502053026
AG     13.3987858640     6.1886280436     8.3500885756
AG      9.3791596219     8.5093471029     8.3500234734
AG     12.0588937004     8.5093971026     8.3500388381
AG     10.7189183804     6.1885687364     8.3500636717
AG     10.7189885319     1.5471971991     8.3501110277
AG      6.6993960205     8.5093259602     8.3500790084
AG     14.7386913849     8.5093667151     8.3500701727
O       6.0930887739     4.1361332334    12.2463188873
C       7.1647207871     3.8754264396    12.5194340408
C       7.8829673892     4.4483703109    13.7360546681
O       9.2973632349     4.4134990669    13.6303519333
C       7.4318117991     3.7180713474    14.9946116600
O       6.0187281283     3.6079919687    14.9375809840
C       7.9736145802     4.3483989089    16.2772989075
O       7.5241619800     5.7146873804    16.3363485881
C       7.6468133305     3.5607935407    17.5939139806
O       7.9421613085     2.1948777622    17.3222111992
C       8.5131870930     4.0585764892    18.7666841855
O       8.0788927660     3.3430677068    19.9473666531
H       7.7600527690     4.3240574247    11.5944969067
H       7.5153802899     5.5037843110    13.6569944656
H       9.5475026133     5.0380726098    12.9154670673
H       7.8277831455     2.7211535176    14.8371878340
H       5.6519544440     3.9383782086    15.7724454197
H       9.0402235825     4.3880679686    16.1309688849
H       7.1355018350     5.8890865478    17.2020455104
H       6.5919335020     3.6518703791    17.9206984259
H       7.6162252630     1.6874618071    18.0990689799
H       9.5731203522     3.8813736755    18.6071297859
H       8.4311824355     5.1202207963    18.9521167742
H       8.6590228143     3.6741286887    20.6691558878
88
Step 2 | ATOMIC_POSITIONS (angstrom) | Cartesian Angstrom
NI      2.6797587120     1.5471594140     1.5000001930
NI      5.3595174250     1.5471594140     1.5000001930
NI      8.0392761370     1.5471594140     1.5000001930
NI     10.7190348500     1.5471594140     1.5000001930
NI      4.0196380690     3.8678985350     1.5000001930
NI      6.6993967810     3.8678985350     1.5000001930
NI      9.3791554940     3.8678985350     1.5000001930
NI     12.0589142060     3.8678985350     1.5000001930
NI      5.3595174250     6.1886376560     1.5000001930
NI      8.0392761370     6.1886376560     1.5000001930
NI     10.7190348500     6.1886376560     1.5000001930
NI     13.3987935620     6.1886376560     1.5000001930
NI      6.6993967810     8.5093767770     1.5000001930
NI      9.3791554940     8.5093767770     1.5000001930
NI     12.0589142060     8.5093767770     1.5000001930
NI     14.7386729180     8.5093767770     1.5000001930
NI      1.3397729114     0.7735170964     3.3684080485
NI      9.3792504971     0.7735560464     3.3684299508
NI      5.3595656235     7.7358793764     3.3684067863
NI      5.3595502074     3.0943560415     3.3684594334
NI      4.0195697379     0.7735885440     3.3683960420
NI      6.6994727024     0.7736161928     3.3684333605
NI      2.6797833667     3.0942448319     3.3684230045
NI      8.0392661667     3.0942831653     3.3684282008
NI      4.0197592336     5.4150975125     3.3684452575
NI      6.6993241670     5.4150743304     3.3684227906
NI     10.7189803930     3.0941289722     3.3684080320
NI      8.0391106880     7.7359034527     3.3683635651
NI     13.3989422648     7.7359262556     3.3684126422
NI      9.3790575820     5.4149911617     3.3683516148
NI     12.0589662148     5.4150221152     3.3684065236
NI     10.7190007843     7.7359132636     3.3683660558
AG      5.3595172977     9.2829531307     5.5905569092
AG      4.0196735044     2.3207621541     5.5906262227
AG      6.6993575191     2.3207709738     5.5906450476
AG      5.3595288664     4.6414449228     5.5907672709
AG      1.3398753927     2.3207342332     5.5905938514
AG      9.3791478794     2.3207384571     5.5906396061
AG      4.0196470100     6.9621886486     5.5905900839
AG      6.6994082084     6.9622087361     5.5905832518
AG      8.0392601384     9.2829641221     5.5906530971
AG     13.3988121345     9.2829577798     5.5905773581
AG      2.6798331465     4.6414704615     5.5906310498
AG      8.0392318316     4.6414473555     5.5906259883
AG     10.7190428996     9.2829769845     5.5906547228
AG     10.7190054985     4.6414499372     5.5907396483
AG      9.3791489271     6.9622263927     5.5907157707
AG     12.0589161642     6.9622252793     5.5907336893
AG      5.3596061397     1.5473107805     8.3507305046
AG      4.0199011876     3.8679143969     8.3515745159
AG      6.6993105821     3.8680201133     8.3521904625
AG      2.6797965434     1.5471963251     8.3502211982
AG      8.0392413795     1.5473582292     8.3506105650
AG      5.3596781545     6.1884054123     8.3513184893
AG      9.3788670800     3.8681093204     8.3512218140
AG     12.0588678954     3.8679235917     8.3502292298
AG      8.0393493523     6.1883440248     8.3506494974
AG     13.3987819953     6.1886183661     8.3502034378
AG      9.3791548808     8.5093173345     8.3500952028
AG     12.0588827192     8.5094124229     8.3501314343
AG     10.7188600316     6.1885251785     8.3501859554
AG     10.7189618623     1.5472357338     8.3502595151
AG      6.6994103775     8.5092723197     8.3501929054
AG     14.7386957363     8.5093615805     8.3501674738
O       5.9878050337     4.1105251059    12.2382551061
C       7.2103649460     3.9483058997    12.5158635815
C       7.8876970199     4.4429785156    13.7538429930
O       9.3007663348     4.4145805840    13.6331557026
C       7.4307006506     3.7116521177    14.9944412356
O       6.0093371596     3.6064053390    14.9419000346
C       7.9741737819     4.3457928380    16.2727991319
O       7.5195180658     5.7189548544    16.3354423417
C       7.6588328289     3.5633891104    17.5968877767
O       7.9392354284     2.1864092619    17.3224094623
C       8.5176486608     4.0632436172    18.7714342018
O       8.0783055129     3.3414905801    19.9519909994
H       7.8056786899     4.3005853364    11.5596802053
H       7.5164261696     5.4950516926    13.6647354060
H       9.5490553529     5.0353956080    12.9163212804
H       7.8363403453     2.7149938527    14.8492470490
H       5.6483881614     3.9422895510    15.7751728168
H       9.0520827364     4.3832585795    16.1359729280
H       7.1315230490     5.8925033723    17.2092511688
H       6.5904517161     3.6570916148    17.9136760696
H       7.6196826691     1.6878967146    18.0974078015
H       9.5767812348     3.8737925623    18.5966533613
H       8.4224731490     5.1317678768    18.9473600720
H       8.6541659544     3.6691859185    20.6679612313
88
Step 3 | ATOMIC_POSITIONS (angstrom) | Cartesian Angstrom
NI      2.6797587120     1.5471594140     1.5000001930
NI      5.3595174250     1.5471594140     1.5000001930
NI      8.0392761370     1.5471594140     1.5000001930
NI     10.7190348500     1.5471594140     1.5000001930
NI      4.0196380690     3.8678985350     1.5000001930
NI      6.6993967810     3.8678985350     1.5000001930
NI      9.3791554940     3.8678985350     1.5000001930
NI     12.0589142060     3.8678985350     1.5000001930
NI      5.3595174250     6.1886376560     1.5000001930
NI      8.0392761370     6.1886376560     1.5000001930
NI     10.7190348500     6.1886376560     1.5000001930
NI     13.3987935620     6.1886376560     1.5000001930
NI      6.6993967810     8.5093767770     1.5000001930
NI      9.3791554940     8.5093767770     1.5000001930
NI     12.0589142060     8.5093767770     1.5000001930
NI     14.7386729180     8.5093767770     1.5000001930
NI      1.3397710281     0.7735355151     3.3683913154
NI      9.3792682642     0.7736063618     3.3684524118
NI      5.3596158381     7.7358834542     3.3684038223
NI      5.3595530963     3.0943663704     3.3684593176
NI      4.0195584585     0.7735147865     3.3683336055
NI      6.6994666826     0.7735685763     3.3684192555
NI      2.6797406303     3.0942651827     3.3683690722
NI      8.0393329978     3.0943436268     3.3684110456
NI      4.0197321182     5.4151008208     3.3684235911
NI      6.6993865119     5.4150811262     3.3684031164
NI     10.7189489404     3.0941887204     3.3683627614
NI      8.0391733644     7.7359068595     3.3682963272
NI     13.3988689911     7.7359252798     3.3683906472
NI      9.3791303968     5.4150024309     3.3682435718
NI     12.0588608871     5.4150489612     3.3683263277
NI     10.7189622081     7.7358507318     3.3682761161
AG      5.3595239467     9.2829486383     5.5902422941
AG      4.0196704757     2.3207589639     5.5903731605
AG      6.6993511724     2.3207727369     5.5903981402
AG      5.3595401180     4.6414307441     5.5906243828
AG      1.3398809592     2.3207318696     5.5902749934
AG      9.3791371555     2.3207541921     5.5903876166
AG      4.0196425719     6.9621806976     5.5902960954
AG      6.6994248477     6.9622068550     5.5902840976
AG      8.0392476782     9.2829761399     5.5903972759
AG     13.3988178196     9.2829533768     5.5902454258
AG      2.6798561371     4.6414651003     5.5903110693
AG      8.0392351673     4.6414349234     5.5902972231
AG     10.7190472317     9.2829796689     5.5903454605
AG     10.7189733140     4.6414330455     5.5904804517
AG      9.3791442124     6.9622157927     5.5904414500
AG     12.0589170635     6.9622226649     5.5904574601
AG      5.3596651449     1.5474312145     8.3514062096
AG      4.0200610135     3.8679226342     8.3529855584
AG      6.6992916171     3.8680929778     8.3539309472
AG      2.6798416311     1.5472309274     8.3504317058
AG      8.0391834575     1.5474945091     8.3510749761
AG      5.3597671090     6.1882732636     8.3523818893
AG      9.3786045849     3.8682606551     8.3525586919
AG     12.0588432722     3.8679464809     8.3504283254
AG      8.0393553258     6.1881114462     8.3513865905
AG     13.3987998208     6.1885811932     8.3503914879
AG      9.3791492387     8.5092820172     8.3501835611
AG     12.0588575200     8.5094441884     8.3502672213
AG     10.7187819858     6.1884642635     8.3503635207
AG     10.7189239468     1.5473019802     8.3504793013
AG      6.6994359123     8.5091739480     8.3503584359
AG     14.7387085714     8.5093397001     8.3503169312
O       5.9411301142     4.0517815556    12.2549526576
C       7.1862632339     4.0928955396    12.4308396429
C       7.8921051661     4.4454675777    13.7675307168
O       9.3065428756     4.4168468058    13.6363817411
C       7.4220224035     3.7063932379    15.0017269683
O       6.0006965372     3.6026728822    14.9507819089
C       7.9677395593     4.3452359714    16.2796477419
O       7.5126408899     5.7193262568    16.3371508449
C       7.6764993736     3.5683341555    17.5906535031
O       7.9341181704     2.1798330315    17.3269726234
C       8.5126581117     4.0565585621    18.7776221456
O       8.0829479039     3.3463925700    19.9530973603
H       7.8556555137     4.2467020546    11.5460397849
H       7.5192537213     5.4835611417    13.6853473763
H       9.5503451636     5.0274803594    12.9216176796
H       7.8511417368     2.6977158083    14.8698718037
H       5.6432252345     3.9494352091    15.7795342170
H       9.0739089630     4.3763864909    16.1425567192
H       7.1277897958     5.8955710286    17.2151073776
H       6.5933619419     3.6661676050    17.9011363153
H       7.6260050491     1.6870185341    18.0953167977
H       9.5870347186     3.8619989819    18.5804418278
H       8.4088797803     5.1543010939    18.9408414843
H       8.6455619000     3.6594555409    20.6688744194
88
Step 4 | ATOMIC_POSITIONS (angstrom) | Cartesian Angstrom
NI      2.6797587120     1.5471594140     1.5000001930
NI      5.3595174250     1.5471594140     1.5000001930
NI      8.0392761370     1.5471594140     1.5000001930
NI     10.7190348500     1.5471594140     1.5000001930
NI      4.0196380690     3.8678985350     1.5000001930
NI      6.6993967810     3.8678985350     1.5000001930
NI      9.3791554940     3.8678985350     1.5000001930
NI     12.0589142060     3.8678985350     1.5000001930
NI      5.3595174250     6.1886376560     1.5000001930
NI      8.0392761370     6.1886376560     1.5000001930
NI     10.7190348500     6.1886376560     1.5000001930
NI     13.3987935620     6.1886376560     1.5000001930
NI      6.6993967810     8.5093767770     1.5000001930
NI      9.3791554940     8.5093767770     1.5000001930
NI     12.0589142060     8.5093767770     1.5000001930
NI     14.7386729180     8.5093767770     1.5000001930
NI      1.3397688516     0.7735754598     3.3683660129
NI      9.3792727840     0.7736643735     3.3684413005
NI      5.3596364074     7.7358788832     3.3683945292
NI      5.3595578996     3.0943748208     3.3684397643
NI      4.0195596457     0.7734848069     3.3682854839
NI      6.6994641961     0.7735541181     3.3683843290
NI      2.6797057886     3.0942926069     3.3683116347
NI      8.0393802012     3.0943832327     3.3683678142
NI      4.0197077346     5.4150808923     3.3683989015
NI      6.6994358892     5.4150615414     3.3683786371
NI     10.7189298556     3.0942423258     3.3683044308
NI      8.0392284532     7.7358920527     3.3682515379
NI     13.3988105051     7.7359175277     3.3683681435
NI      9.3791874024     5.4149945853     3.3681607580
NI     12.0587820114     5.4150471036     3.3682566216
NI     10.7189473018     7.7357934309     3.3682071087
AG      5.3595238500     9.2829512264     5.5900843124
AG      4.0196732667     2.3207587160     5.5902496649
AG      6.6993522484     2.3207727941     5.5902804243
AG      5.3595491826     4.6414227296     5.5905917831
AG      1.3398746666     2.3207374943     5.5901081964
AG      9.3791329796     2.3207641437     5.5902736100
AG      4.0196476759     6.9621738611     5.5901324737
AG      6.6994327885     6.9621953940     5.5901394793
AG      8.0392444525     9.2829788199     5.5902644816
AG     13.3988203694     9.2829587796     5.5900835067
AG      2.6798579717     4.6414584638     5.5901339527
AG      8.0392390256     4.6414303640     5.5901192327
AG     10.7190495309     9.2829821490     5.5901809203
AG     10.7189589429     4.6414206121     5.5903678144
AG      9.3791395780     6.9621997420     5.5903085756
AG     12.0589118925     6.9622108389     5.5903135440
AG      5.3597025599     1.5474727410     8.3518944991
AG      4.0201093298     3.8679291576     8.3540419291
AG      6.6992975962     3.8680744853     8.3549447460
AG      2.6798494932     1.5472405751     8.3505596761
AG      8.0391761542     1.5475917067     8.3513499838
AG      5.3598096295     6.1882534200     8.3530783843
AG      9.3785090961     3.8682895550     8.3533746070
AG     12.0587975135     3.8679574869     8.3505350209
AG      8.0393687171     6.1880462712     8.3517967531
AG     13.3988031504     6.1885622295     8.3504980089
AG      9.3791423551     8.5092425817     8.3502293134
AG     12.0588437119     8.5094546084     8.3503436056
AG     10.7187375825     6.1884281872     8.3504692858
AG     10.7188867775     1.5473585778     8.3506102223
AG      6.6994549056     8.5091112011     8.3504572879
AG     14.7387168819     8.5093383991     8.3503993605
O       5.9491019368     4.0413057439    12.2523215143
C       7.1638136899     4.1268397069    12.4199126116
C       7.8820773078     4.4551853181    13.7370339245
O       9.3050375982     4.4113393848    13.6419548021
C       7.4190953507     3.6963453456    15.0010067291
O       6.0007662415     3.5989897957    14.9565370413
C       7.9791385603     4.3494290010    16.2848295490
O       7.5085372157     5.7144684278    16.3425478603
C       7.6695379336     3.5650721466    17.5896417831
O       7.9364460508     2.1869924461    17.3214940453
C       8.5170968149     4.0615435491    18.7765900995
O       8.0793724445     3.3466900286    19.9436861307
H       7.8716397986     4.2256398609    11.5407790308
H       7.5215836080     5.4908559404    13.7082543562
H       9.5532073917     5.0264190696    12.9219158239
H       7.8546926622     2.6928186332    14.8831492545
H       5.6398405853     3.9546957361    15.7832131261
H       9.0732953069     4.3734266750    16.1457658334
H       7.1276489570     5.8958849101    17.2143551578
H       6.6028121866     3.6715526444    17.8920350574
H       7.6264716424     1.6819920264    18.1030777525
H       9.5856440901     3.8585372683    18.5748925107
H       8.4037916557     5.1545875528    18.9356652520
H       8.6469442942     3.6569679664    20.6781016711
88
Step 5 | ATOMIC_POSITIONS (angstrom) | Cartesian Angstrom
NI      2.6797587120     1.5471594140     1.5000001930
NI      5.3595174250     1.5471594140     1.5000001930
NI      8.0392761370     1.5471594140     1.5000001930
NI     10.7190348500     1.5471594140     1.5000001930
NI      4.0196380690     3.8678985350     1.5000001930
NI      6.6993967810     3.8678985350     1.5000001930
NI      9.3791554940     3.8678985350     1.5000001930
NI     12.0589142060     3.8678985350     1.5000001930
NI      5.3595174250     6.1886376560     1.5000001930
NI      8.0392761370     6.1886376560     1.5000001930
NI     10.7190348500     6.1886376560     1.5000001930
NI     13.3987935620     6.1886376560     1.5000001930
NI      6.6993967810     8.5093767770     1.5000001930
NI      9.3791554940     8.5093767770     1.5000001930
NI     12.0589142060     8.5093767770     1.5000001930
NI     14.7386729180     8.5093767770     1.5000001930
NI      1.3397551061     0.7735915935     3.3682299256
NI      9.3792641807     0.7736876546     3.3683015814
NI      5.3596332801     7.7358984749     3.3682637039
NI      5.3595630409     3.0943637776     3.3683327636
NI      4.0195840930     0.7734041500     3.3681281196
NI      6.6994645936     0.7734759531     3.3682179007
NI      2.6796626548     3.0943327957     3.3681583255
NI      8.0394405120     3.0944020950     3.3682174322
NI      4.0196536224     5.4151066728     3.3682761831
NI      6.6994939596     5.4150757751     3.3682602024
NI     10.7189040906     3.0943038128     3.3681384410
NI      8.0393137229     7.7358900644     3.3680874645
NI     13.3987205865     7.7359267651     3.3682081494
NI      9.3792814025     5.4150352508     3.3679644116
NI     12.0586878491     5.4151084740     3.3680685927
NI     10.7189596770     7.7357394439     3.3680024827
AG      5.3595214638     9.2829501474     5.5898819805
AG      4.0196776596     2.3207589216     5.5901111032
AG      6.6993490553     2.3207658036     5.5901422074
AG      5.3595514231     4.6414185331     5.5905943286
AG      1.3398700549     2.3207453812     5.5898981089
AG      9.3791276881     2.3207687881     5.5901415201
AG      4.0196543113     6.9621688024     5.5899139573
AG      6.6994341806     6.9621863326     5.5899574836
AG      8.0392460914     9.2829807342     5.5900947480
AG     13.3988198442     9.2829583949     5.5898749186
AG      2.6798601457     4.6414545327     5.5899131275
AG      8.0392392979     4.6414307962     5.5899005523
AG     10.7190518346     9.2829831242     5.5899654353
AG     10.7189519474     4.6414132084     5.5902424247
AG      9.3791373479     6.9621897969     5.5901362881
AG     12.0589088687     6.9622000219     5.5901251710
AG      5.3597415321     1.5475120139     8.3527006693
AG      4.0201464550     3.8679431344     8.3557635309
AG      6.6992827092     3.8680246697     8.3564679840
AG      2.6798572847     1.5472514656     8.3507725876
AG      8.0391705200     1.5477043780     8.3517834345
AG      5.3598506499     6.1882523352     8.3541605619
AG      9.3784240952     3.8682932257     8.3546445616
AG     12.0587395370     3.8679728411     8.3507036265
AG      8.0393710094     6.1880192718     8.3524012104
AG     13.3988134650     6.1885389747     8.3506722247
AG      9.3791346373     8.5091976904     8.3503188040
AG     12.0588299810     8.5094694769     8.3504829187
AG     10.7186967560     6.1883946270     8.3506422817
AG     10.7188414047     1.5474292118     8.3508309956
AG      6.6994784845     8.5090368583     8.3506343818
AG     14.7387245536     8.5093423279     8.3505447153
O       5.9680296875     4.0338840793    12.2446509762
C       7.1469240085     4.1459752138    12.4059061421
C       7.8651965901     4.4608020486    13.7132639182
O       9.2969653692     4.4099925305    13.6354507941
C       7.4194286834     3.6955011731    14.9905556541
O       6.0011347172     3.5921917846    14.9688072172
C       7.9831120458     4.3507818060    16.2855083213
O       7.5070703339     5.7061178504    16.3439019780
C       7.6718439653     3.5663252968    17.5864313258
O       7.9337318607     2.1848096977    17.3297293782
C       8.5178894048     4.0657306309    18.7689135606
O       8.0848768245     3.3527681618    19.9454726779
H       7.8795663471     4.2037012196    11.5383610826
H       7.5240992708     5.5140644835    13.7451695543
H       9.5590765723     5.0195568781    12.9285200378
H       7.8578632956     2.6858010858    14.8995975579
H       5.6367416657     3.9619095286    15.7862566924
H       9.0754222227     4.3712648076    16.1496941490
H       7.1258239521     5.8962772640    17.2187376319
H       6.6085552086     3.6795139953    17.8812849080
H       7.6335553646     1.6843308720    18.0994243752
H       9.5830312671     3.8557345691    18.5683574247
H       8.3988080099     5.1528364157    18.9285378227
H       8.6389573765     3.6476526334    20.6789120041
88
Step 6 | ATOMIC_POSITIONS (angstrom) | Cartesian Angstrom
NI      2.6797587120     1.5471594140     1.5000001930
NI      5.3595174250     1.5471594140     1.5000001930
NI      8.0392761370     1.5471594140     1.5000001930
NI     10.7190348500     1.5471594140     1.5000001930
NI      4.0196380690     3.8678985350     1.5000001930
NI      6.6993967810     3.8678985350     1.5000001930
NI      9.3791554940     3.8678985350     1.5000001930
NI     12.0589142060     3.8678985350     1.5000001930
NI      5.3595174250     6.1886376560     1.5000001930
NI      8.0392761370     6.1886376560     1.5000001930
NI     10.7190348500     6.1886376560     1.5000001930
NI     13.3987935620     6.1886376560     1.5000001930
NI      6.6993967810     8.5093767770     1.5000001930
NI      9.3791554940     8.5093767770     1.5000001930
NI     12.0589142060     8.5093767770     1.5000001930
NI     14.7386729180     8.5093767770     1.5000001930
NI      1.3397457501     0.7736054720     3.3681152138
NI      9.3792883557     0.7737200372     3.3681938026
NI      5.3596562258     7.7359055074     3.3681519782
NI      5.3595624710     3.0943827353     3.3682444535
NI      4.0195731767     0.7733675250     3.3680146727
NI      6.6994655658     0.7734519598     3.3681059515
NI      2.6796392416     3.0943533277     3.3680330171
NI      8.0394808643     3.0944324837     3.3680925799
NI      4.0196477045     5.4151030430     3.3681780364
NI      6.6995238561     5.4150815707     3.3681513470
NI     10.7188867548     3.0943341541     3.3680085940
NI      8.0393444756     7.7358882414     3.3679615460
NI     13.3986858867     7.7359288871     3.3681067767
NI      9.3793264175     5.4150465044     3.3678200543
NI     12.0586245854     5.4151194025     3.3679412703
NI     10.7189469522     7.7356972636     3.3678767593
AG      5.3595238706     9.2829473478     5.5897023993
AG      4.0196805502     2.3207645319     5.5899943109
AG      6.6993422562     2.3207655338     5.5900229740
AG      5.3595503338     4.6414127898     5.5906135365
AG      1.3398702249     2.3207478924     5.5897058316
AG      9.3791256001     2.3207692839     5.5900250811
AG      4.0196684249     6.9621588709     5.5897231603
AG      6.6994290731     6.9621775217     5.5897947870
AG      8.0392439840     9.2829832449     5.5899417845
AG     13.3988245598     9.2829572372     5.5896987440
AG      2.6798705076     4.6414432696     5.5897225432
AG      8.0392316312     4.6414268083     5.5897099363
AG     10.7190494999     9.2829876498     5.5897801363
AG     10.7189497218     4.6414000849     5.5901375399
AG      9.3791298355     6.9621834703     5.5899833410
AG     12.0589115253     6.9621871845     5.5899683915
AG      5.3597606641     1.5475376448     8.3534643769
AG      4.0201653513     3.8679547086     8.3574223516
AG      6.6992490140     3.8679838257     8.3578906619
AG      2.6798673389     1.5472614817     8.3509488344
AG      8.0391625762     1.5477767980     8.3521801264
AG      5.3598745089     6.1882475277     8.3551638935
AG      9.3783662034     3.8682883611     8.3558680121
AG     12.0587077363     3.8679826674     8.3508328199
AG      8.0393587047     6.1880094042     8.3529313689
AG     13.3988316552     6.1885164069     8.3508056094
AG      9.3791318095     8.5091741637     8.3503842508
AG     12.0588254425     8.5094823952     8.3506009616
AG     10.7186751870     6.1883711398     8.3507851987
AG     10.7188147948     1.5474715905     8.3510237697
AG      6.6994913906     8.5089889698     8.3507833600
AG     14.7387295337     8.5093449509     8.3506604098
O       5.9689617509     4.0207514246    12.2355142651
C       7.1508623595     4.1597951816    12.3938284781
C       7.8546467234     4.4733321493    13.7082486957
O       9.2840708232     4.4039152487    13.6315487424
C       7.4195273235     3.6944856216    14.9838017267
O       6.0017584455     3.5840620726    14.9771282479
C       7.9852128106     4.3484349101    16.2792015028
O       7.5038663824     5.7028463557    16.3483197311
C       7.6752160364     3.5656424109    17.5841725089
O       7.9355349169     2.1886915156    17.3267293188
C       8.5187363193     4.0668291594    18.7654033570
O       8.0824712863     3.3545256173    19.9373702895
H       7.8830304231     4.1886616441    11.5339691925
H       7.5270933440     5.5304905251    13.7774823212
H       9.5669122038     5.0181172640    12.9290858071
H       7.8593802129     2.6826421190    14.9118244827
H       5.6348219995     3.9697222721    15.7902492531
H       9.0784862125     4.3701952623    16.1527470473
H       7.1258609633     5.8953643200    17.2196986016
H       6.6104905565     3.6869607055    17.8724007519
H       7.6363135416     1.6816411542    18.1055350049
H       9.5811456904     3.8542604495    18.5622259907
H       8.3950967942     5.1528653950    18.9217892546
H       8.6382818804     3.6433210040    20.6859304462
88
Step 7 | ATOMIC_POSITIONS (angstrom) | Cartesian Angstrom
NI      2.6797587120     1.5471594140     1.5000001930
NI      5.3595174250     1.5471594140     1.5000001930
NI      8.0392761370     1.5471594140     1.5000001930
NI     10.7190348500     1.5471594140     1.5000001930
NI      4.0196380690     3.8678985350     1.5000001930
NI      6.6993967810     3.8678985350     1.5000001930
NI      9.3791554940     3.8678985350     1.5000001930
NI     12.0589142060     3.8678985350     1.5000001930
NI      5.3595174250     6.1886376560     1.5000001930