88
Step 1 | ATOMIC_POSITIONS (angstrom) | Cartesian Angstrom
NI      2.6797587120     1.5471594140     1.5000001930
NI      5.3595174250     1.5471594140     1.5000001930
NI      8.0392761370     1.5471594140     1.5000001930
NI     10.7190348500     1.5471594140     1.5000001930
NI      4.0196380690     3.8678985350     1.5000001930
NI      6.6993967810     3.8678985350     1.5000001930
NI      9.3791554940     3.8678985350     1.5000001930
NI     12.0589142060     3.8678985350     1.5000001930
NI      5.3595174250     6.1886376560     1.5000001930
NI      8.0392761370     6.1886376560     1.5000001930
NI     10.7190348500     6.1886376560     1.5000001930
NI     13.3987935620     6.1886376560     1.5000001930
NI      6.6993967810     8.5093767770     1.5000001930
NI      9.3791554940     8.5093767770     1.5000001930
NI     12.0589142060     8.5093767770     1.5000001930
NI     14.7386729180     8.5093767770     1.5000001930
NI      1.3397749898     0.7735163387     3.3684286419
NI      9.3792473014     0.7735459948     3.3684370072
NI      5.3595461473     7.7358816133     3.3684333762
NI      5.3595465242     3.0943451495     3.3684702576
NI      4.0195704291     0.7736343316     3.3684427748
NI      6.6994748630     0.7736551338     3.3684584775
NI      2.6798007960     3.0942275768     3.3684615045
NI      8.0392330376     3.0942468562     3.3684502938
NI      4.0197775674     5.4150832733     3.3684790441
NI      6.6992945360     5.4150655493     3.3684524960
NI     10.7190027592     3.0940918939     3.3684476024
NI      8.0390786958     7.7359072001     3.3684224474
NI     13.3989802252     7.7359297086     3.3684573700
NI      9.3790204261     5.4149804614     3.3684356668
NI     12.0590138019     5.4149923582     3.3684759730
NI     10.7190144987     7.7359445877     3.3684438495
AG      5.3595132531     9.2829575910     5.5907346310
AG      4.0196735296     2.3207613556     5.5907771332
AG      6.6993593855     2.3207658840     5.5907934396
AG      5.3595211428     4.6414525384     5.5908710826
AG      1.3398711208     2.3207376973     5.5907771345
AG      9.3791588377     2.3207297447     5.5907857857
AG      4.0196523149     6.9621943061     5.5907563602
AG      6.6994000195     6.9622102278     5.5907637000
AG      8.0392687815     9.2829571841     5.5908019146
AG     13.3988083774     9.2829632271     5.5907699970
AG      2.6798113082     4.6414722909     5.5908112559
AG      8.0392332900     4.6414588015     5.5908005175
AG     10.7190394055     9.2829758269     5.5908299579
AG     10.7190292792     4.6414577367     5.5908976030
AG      9.3791495846     6.9622317716     5.5908809950
AG     12.0589129697     6.9622217744     5.5908977657
AG      5.3595657028     1.5472369240     8.3503721948
AG      4.0197866604     3.8679090455     8.3508434318
AG      6.6993062813     3.8679605527     8.3512132504
AG      2.6797794036     1.5471817948     8.3500961918
AG      8.0392670591     1.5472772894     8.3503166189
AG      5.3596126739     6.1884984808     8.3507304574
AG      9.3790273574     3.8680075389     8.3504289694
AG     12.0588975560     3.8679098058     8.3500960538
AG      8.0393332571     6.1884958390     8.3502053026
AG     13.3987858640     6.1886280436     8.3500885756
AG      9.3791596219     8.5093471029     8.3500234734
AG     12.0588937004     8.5093971026     8.3500388381
AG     10.7189183804     6.1885687364     8.3500636717
AG     10.7189885319     1.5471971991     8.3501110277
AG      6.6993960205     8.5093259602     8.3500790084
AG     14.7386913849     8.5093667151     8.3500701727
O       6.0930887739     4.1361332334    12.2463188873
C       7.1647207871     3.8754264396    12.5194340408
C       7.8829673892     4.4483703109    13.7360546681
O       9.2973632349     4.4134990669    13.6303519333
C       7.4318117991     3.7180713474    14.9946116600
O       6.0187281283     3.6079919687    14.9375809840
C       7.9736145802     4.3483989089    16.2772989075
O       7.5241619800     5.7146873804    16.3363485881
C       7.6468133305     3.5607935407    17.5939139806
O       7.9421613085     2.1948777622    17.3222111992
C       8.5131870930     4.0585764892    18.7666841855
O       8.0788927660     3.3430677068    19.9473666531
H       7.7600527690     4.3240574247    11.5944969067
H       7.5153802899     5.5037843110    13.6569944656
H       9.5475026133     5.0380726098    12.9154670673
H       7.8277831455     2.7211535176    14.8371878340
H       5.6519544440     3.9383782086    15.7724454197
H       9.0402235825     4.3880679686    16.1309688849
H       7.1355018350     5.8890865478    17.2020455104
H       6.5919335020     3.6518703791    17.9206984259
H       7.6162252630     1.6874618071    18.0990689799
H       9.5731203522     3.8813736755    18.6071297859
H       8.4311824355     5.1202207963    18.9521167742
H       8.6590228143     3.6741286887    20.6691558878
88
Step 2 | ATOMIC_POSITIONS (angstrom) | Cartesian Angstrom
NI      2.6797587120     1.5471594140     1.5000001930
NI      5.3595174250     1.5471594140     1.5000001930
NI      8.0392761370     1.5471594140     1.5000001930
NI     10.7190348500     1.5471594140     1.5000001930
NI      4.0196380690     3.8678985350     1.5000001930
NI      6.6993967810     3.8678985350     1.5000001930
NI      9.3791554940     3.8678985350     1.5000001930
NI     12.0589142060     3.8678985350     1.5000001930
NI      5.3595174250     6.1886376560     1.5000001930
NI      8.0392761370     6.1886376560     1.5000001930
NI     10.7190348500     6.1886376560     1.5000001930
NI     13.3987935620     6.1886376560     1.5000001930
NI      6.6993967810     8.5093767770     1.5000001930
NI      9.3791554940     8.5093767770     1.5000001930
NI     12.0589142060     8.5093767770     1.5000001930
NI     14.7386729180     8.5093767770     1.5000001930
NI      1.3397729114     0.7735170964     3.3684080485
NI      9.3792504971     0.7735560464     3.3684299508
NI      5.3595656235     7.7358793764     3.3684067863
NI      5.3595502074     3.0943560415     3.3684594334
NI      4.0195697379     0.7735885440     3.3683960420
NI      6.6994727024     0.7736161928     3.3684333605
NI      2.6797833667     3.0942448319     3.3684230045
NI      8.0392661667     3.0942831653     3.3684282008
NI      4.0197592336     5.4150975125     3.3684452575
NI      6.6993241670     5.4150743304     3.3684227906
NI     10.7189803930     3.0941289722     3.3684080320
NI      8.0391106880     7.7359034527     3.3683635651
NI     13.3989422648     7.7359262556     3.3684126422
NI      9.3790575820     5.4149911617     3.3683516148
NI     12.0589662148     5.4150221152     3.3684065236
NI     10.7190007843     7.7359132636     3.3683660558
AG      5.3595172977     9.2829531307     5.5905569092
AG      4.0196735044     2.3207621541     5.5906262227
AG      6.6993575191     2.3207709738     5.5906450476
AG      5.3595288664     4.6414449228     5.5907672709
AG      1.3398753927     2.3207342332     5.5905938514
AG      9.3791478794     2.3207384571     5.5906396061
AG      4.0196470100     6.9621886486     5.5905900839
AG      6.6994082084     6.9622087361     5.5905832518
AG      8.0392601384     9.2829641221     5.5906530971
AG     13.3988121345     9.2829577798     5.5905773581
AG      2.6798331465     4.6414704615     5.5906310498
AG      8.0392318316     4.6414473555     5.5906259883
AG     10.7190428996     9.2829769845     5.5906547228
AG     10.7190054985     4.6414499372     5.5907396483
AG      9.3791489271     6.9622263927     5.5907157707
AG     12.0589161642     6.9622252793     5.5907336893
AG      5.3596061397     1.5473107805     8.3507305046
AG      4.0199011876     3.8679143969     8.3515745159
AG      6.6993105821     3.8680201133     8.3521904625
AG      2.6797965434     1.5471963251     8.3502211982
AG      8.0392413795     1.5473582292     8.3506105650
AG      5.3596781545     6.1884054123     8.3513184893
AG      9.3788670800     3.8681093204     8.3512218140
AG     12.0588678954     3.8679235917     8.3502292298
AG      8.0393493523     6.1883440248     8.3506494974
AG     13.3987819953     6.1886183661     8.3502034378
AG      9.3791548808     8.5093173345     8.3500952028
AG     12.0588827192     8.5094124229     8.3501314343
AG     10.7188600316     6.1885251785     8.3501859554
AG     10.7189618623     1.5472357338     8.3502595151
AG      6.6994103775     8.5092723197     8.3501929054
AG     14.7386957363     8.5093615805     8.3501674738
O       5.9878050337     4.1105251059    12.2382551061
C       7.2103649460     3.9483058997    12.5158635815
C       7.8876970199     4.4429785156    13.7538429930
O       9.3007663348     4.4145805840    13.6331557026
C       7.4307006506     3.7116521177    14.9944412356
O       6.0093371596     3.6064053390    14.9419000346
C       7.9741737819     4.3457928380    16.2727991319
O       7.5195180658     5.7189548544    16.3354423417
C       7.6588328289     3.5633891104    17.5968877767
O       7.9392354284     2.1864092619    17.3224094623
C       8.5176486608     4.0632436172    18.7714342018
O       8.0783055129     3.3414905801    19.9519909994
H       7.8056786899     4.3005853364    11.5596802053
H       7.5164261696     5.4950516926    13.6647354060
H       9.5490553529     5.0353956080    12.9163212804
H       7.8363403453     2.7149938527    14.8492470490
H       5.6483881614     3.9422895510    15.7751728168
H       9.0520827364     4.3832585795    16.1359729280
H       7.1315230490     5.8925033723    17.2092511688
H       6.5904517161     3.6570916148    17.9136760696
H       7.6196826691     1.6878967146    18.0974078015
H       9.5767812348     3.8737925623    18.5966533613
H       8.4224731490     5.1317678768    18.9473600720
H       8.6541659544     3.6691859185    20.6679612313
88
Step 3 | ATOMIC_POSITIONS (angstrom) | Cartesian Angstrom
NI      2.6797587120     1.5471594140     1.5000001930
NI      5.3595174250     1.5471594140     1.5000001930
NI      8.0392761370     1.5471594140     1.5000001930
NI     10.7190348500     1.5471594140     1.5000001930
NI      4.0196380690     3.8678985350     1.5000001930
NI      6.6993967810     3.8678985350     1.5000001930
NI      9.3791554940     3.8678985350     1.5000001930
NI     12.0589142060     3.8678985350     1.5000001930
NI      5.3595174250     6.1886376560     1.5000001930
NI      8.0392761370     6.1886376560     1.5000001930
NI     10.7190348500     6.1886376560     1.5000001930
NI     13.3987935620     6.1886376560     1.5000001930
NI      6.6993967810     8.5093767770     1.5000001930
NI      9.3791554940     8.5093767770     1.5000001930
NI     12.0589142060     8.5093767770     1.5000001930
NI     14.7386729180     8.5093767770     1.5000001930
NI      1.3397710281     0.7735355151     3.3683913154
NI      9.3792682642     0.7736063618     3.3684524118
NI      5.3596158381     7.7358834542     3.3684038223
NI      5.3595530963     3.0943663704     3.3684593176
NI      4.0195584585     0.7735147865     3.3683336055
NI      6.6994666826     0.7735685763     3.3684192555
NI      2.6797406303     3.0942651827     3.3683690722
NI      8.0393329978     3.0943436268     3.3684110456
NI      4.0197321182     5.4151008208     3.3684235911
NI      6.6993865119     5.4150811262     3.3684031164
NI     10.7189489404     3.0941887204     3.3683627614
NI      8.0391733644     7.7359068595     3.3682963272
NI     13.3988689911     7.7359252798     3.3683906472
NI      9.3791303968     5.4150024309     3.3682435718
NI     12.0588608871     5.4150489612     3.3683263277
NI     10.7189622081     7.7358507318     3.3682761161
AG      5.3595239467     9.2829486383     5.5902422941
AG      4.0196704757     2.3207589639     5.5903731605
AG      6.6993511724     2.3207727369     5.5903981402
AG      5.3595401180     4.6414307441     5.5906243828
AG      1.3398809592     2.3207318696     5.5902749934
AG      9.3791371555     2.3207541921     5.5903876166
AG      4.0196425719     6.9621806976     5.5902960954
AG      6.6994248477     6.9622068550     5.5902840976
AG      8.0392476782     9.2829761399     5.5903972759
AG     13.3988178196     9.2829533768     5.5902454258
AG      2.6798561371     4.6414651003     5.5903110693
AG      8.0392351673     4.6414349234     5.5902972231
AG     10.7190472317     9.2829796689     5.5903454605
AG     10.7189733140     4.6414330455     5.5904804517
AG      9.3791442124     6.9622157927     5.5904414500
AG     12.0589170635     6.9622226649     5.5904574601
AG      5.3596651449     1.5474312145     8.3514062096
AG      4.0200610135     3.8679226342     8.3529855584
AG      6.6992916171     3.8680929778     8.3539309472
AG      2.6798416311     1.5472309274     8.3504317058
AG      8.0391834575     1.5474945091     8.3510749761
AG      5.3597671090     6.1882732636     8.3523818893
AG      9.3786045849     3.8682606551     8.3525586919
AG     12.0588432722     3.8679464809     8.3504283254
AG      8.0393553258     6.1881114462     8.3513865905
AG     13.3987998208     6.1885811932     8.3503914879
AG      9.3791492387     8.5092820172     8.3501835611
AG     12.0588575200     8.5094441884     8.3502672213
AG     10.7187819858     6.1884642635     8.3503635207
AG     10.7189239468     1.5473019802     8.3504793013
AG      6.6994359123     8.5091739480     8.3503584359
AG     14.7387085714     8.5093397001     8.3503169312
O       5.9411301142     4.0517815556    12.2549526576
C       7.1862632339     4.0928955396    12.4308396429
C       7.8921051661     4.4454675777    13.7675307168
O       9.3065428756     4.4168468058    13.6363817411
C       7.4220224035     3.7063932379    15.0017269683
O       6.0006965372     3.6026728822    14.9507819089
C       7.9677395593     4.3452359714    16.2796477419
O       7.5126408899     5.7193262568    16.3371508449
C       7.6764993736     3.5683341555    17.5906535031
O       7.9341181704     2.1798330315    17.3269726234
C       8.5126581117     4.0565585621    18.7776221456
O       8.0829479039     3.3463925700    19.9530973603
H       7.8556555137     4.2467020546    11.5460397849
H       7.5192537213     5.4835611417    13.6853473763
H       9.5503451636     5.0274803594    12.9216176796
H       7.8511417368     2.6977158083    14.8698718037
H       5.6432252345     3.9494352091    15.7795342170
H       9.0739089630     4.3763864909    16.1425567192
H       7.1277897958     5.8955710286    17.2151073776
H       6.5933619419     3.6661676050    17.9011363153
H       7.6260050491     1.6870185341    18.0953167977
H       9.5870347186     3.8619989819    18.5804418278
H       8.4088797803     5.1543010939    18.9408414843
H       8.6455619000     3.6594555409    20.6688744194
