148
Step 1 | ATOMIC_POSITIONS (angstrom) | Cartesian Angstrom
NI      1.2189535980     0.7037631880     1.5000000000
NI      2.4379071950     2.8150527500     1.5000000000
NI      3.6568607930     4.9263423130     1.5000000000
NI      4.8758143900     7.0376318760     1.5000000000
NI      6.0947679870     9.1489214370     1.5000000000
NI      7.3137215840    11.2602110000     1.5000000000
NI      3.6568607920     0.7037631880     1.5000000000
NI      4.8758143890     2.8150527500     1.5000000000
NI      6.0947679860     4.9263423130     1.5000000000
NI      7.3137215840     7.0376318760     1.5000000000
NI      8.5326751800     9.1489214370     1.5000000000
NI      9.7516287780    11.2602110000     1.5000000000
NI      6.0947679870     0.7037631880     1.5000000000
NI      7.3137215840     2.8150527500     1.5000000000
NI      8.5326751810     4.9263423130     1.5000000000
NI      9.7516287790     7.0376318760     1.5000000000
NI     10.9705823750     9.1489214370     1.5000000000
NI     12.1895359730    11.2602110000     1.5000000000
NI      8.5326751820     0.7037631880     1.5000000000
NI      9.7516287790     2.8150527500     1.5000000000
NI     10.9705823760     4.9263423130     1.5000000000
NI     12.1895359740     7.0376318760     1.5000000000
NI     13.4084895710     9.1489214370     1.5000000000
NI     14.6274431680    11.2602110000     1.5000000000
NI     10.9705823750     0.7037631880     1.5000000000
NI     12.1895359720     2.8150527500     1.5000000000
NI     13.4084895700     4.9263423130     1.5000000000
NI     14.6274431670     7.0376318760     1.5000000000
NI     15.8463967640     9.1489214370     1.5000000000
NI     17.0653503620    11.2602110000     1.5000000000
NI     13.4084895710     0.7037631880     1.5000000000
NI     14.6274431670     2.8150527500     1.5000000000
NI     15.8463967650     4.9263423130     1.5000000000
NI     17.0653503620     7.0376318760     1.5000000000
NI     18.2843039590     9.1489214370     1.5000000000
NI     19.5032575570    11.2602110000     1.5000000000
NI     13.4349127008     7.7566331280     3.4439489659
NI     14.6274213318     9.8221884747     3.4439505713
NI     15.8199784196     7.7566239514     3.4439600999
NI     12.2348545013     9.8265439942     3.4661683833
NI     14.6274729565     5.6824239828     3.4661770736
NI     17.0200731319     9.8265249687     3.4661655290
NI     11.0224416108     7.7489561303     3.4790966781
NI     13.4278417608    11.9153055781     3.4791553445
NI     12.2219965420     5.6712087921     3.4791351424
NI     15.8270432759    11.9153185816     3.4791283938
NI     17.0328711630     5.6712012744     3.4791446542
NI     18.2324760768     7.7489728217     3.4791567397
NI      9.7967469849     9.8347840215     3.5016746377
NI     11.0086532827    11.9338644761     3.5016913191
NI     13.4155168579     3.5668390193     3.5017027373
NI     18.2462502760    11.9338479459     3.5016896505
NI     15.8393486147     3.5668502364     3.5017050104
NI     19.4581253882     9.8347948033     3.5016815906
NI      4.8418896139     5.6496735669     3.5043724757
NI      7.3137354059     1.3683650029     3.5043481244
NI      9.7855469027     5.6496689267     3.5042893640
NI      3.6444029297     3.5435425018     3.5194523705
NI      6.0671284109     7.7398332326     3.5194175502
NI      4.8909771859     1.3843529171     3.5194442315
NI      8.5602899704     7.7398500706     3.5194452052
NI      9.7364471279     1.3843790936     3.5194529221
NI     10.9830606691     3.5435177695     3.5194260422
NI      2.4502814044     1.4146636428     3.5273474228
NI      7.3137047038     9.8384279068     3.5273195340
NI     12.1771863799     1.4146583590     3.5273374300
NI      6.0886748195     3.5152973219     3.5307698636
NI      7.3137518475     5.6371299123     3.5307615369
NI      8.5387586983     3.5153107538     3.5307756779
NI      8.5525207902    11.9524941431     3.5314042537
NI     14.6274366813     1.4304457343     3.5314020729
NI     20.7023509399    11.9525102805     3.5313888309
AG      0.0000126169    -0.0000102219     5.8133388378
AG      5.8730820162     5.0543574457     5.8196186253
AG      7.3137121364     2.5590520095     5.8196086970
AG      8.7544383864     5.0543831679     5.8196457710
AG      1.4590103489     2.4931359315     5.8359135991
AG      5.8841161247    10.1576352785     5.8359021297
AG      2.8886032470     0.0169431871     5.8359307224
AG      8.7433316186    10.1577273295     5.8356442609
AG     11.7388134892     0.0169588761     5.8359184324
AG     13.1684527380     2.4931425661     5.8359316254
AG      4.3866842341     2.5326580126     5.8414210693
AG      7.3136714238     7.6023717112     5.8411256025
AG     10.2407389165     2.5326900582     5.8414313962
AG      2.9606422979     5.0209599366     5.8620325320
AG      4.4457876201     7.5932499591     5.8620338302
AG      5.8286277155     0.0535117640     5.8620383367
AG     10.1817190946     7.5931862661     5.8616762819
AG      8.7988221374     0.0535153270     5.8620617495
AG     11.6667616843     5.0209733973     5.8619170472
AG     11.6430344955    10.1682062660     5.8793543759
AG     14.6273997764     4.9990798666     5.8794307197
AG     17.6118364033    10.1682132617     5.8793994548
AG     13.1283332359     7.5796578922     5.9035634367
AG     14.6274627850    10.1761757592     5.9035847985
AG     16.1265450110     7.5796692887     5.9036023855
AG      5.8495344718     3.3772300910     8.1414213470
AG      7.3131435879     5.9129173786     8.1411141950
AG      8.7777191432     3.3768395147     8.1411632664
AG      4.3957592311     5.9072619834     8.1523096951
AG      7.3137243596     0.8532079345     8.1522907704
AG     10.2172238846     5.9033628801     8.1222761495
AG      1.4530981182     0.8389467487     8.1583630585
AG      7.3135139703    10.9902132390     8.1582695181
AG     13.1743540084     0.8389417721     8.1583887319
AG      2.9185762206     3.3635148571     8.1600472623
AG      5.8597002282     8.4584155215     8.1599800519
AG      4.3721721367     0.8458029016     8.1600627668
AG      8.7668826911     8.4594479436     7.8954451614
AG     10.2552599091     0.8458217494     8.1600840996
AG     11.7090800651     3.3628905676     8.1598168506
AG     11.6863035383     8.4519366099     8.1687254951
AG     13.1517194692    10.9900372874     8.1693218664
AG     13.1644250826     5.8940519740     8.1675422636
AG     16.1031576479    10.9900453763     8.1692834294
AG     16.0935022356     5.8947124589     8.1693048773
AG     17.5692312198     8.4507232277     8.1693068598
AG     10.2197799861    10.9904101053     8.1692736424
AG     14.6274294378     3.3553750409     8.1693520845
AG     19.0353229120    10.9900431340     8.1693534566
AG     14.6274190247     8.4451462097     8.1703896900
H      12.0000428134     6.5194356471     9.8515885578
O      11.3894514568     6.1654050936     9.2297710817
H       9.4526679626     6.6529980195     9.4823199841
C      10.1595691537     5.8904953652     9.8889537867
H       9.7327369579     4.9656954047     9.4304313732
H      12.6141169810     3.7936743923    11.7093325859
H      10.7128678538     6.8648407107    11.7277475246
C      10.2184316568     5.9231342469    11.3970127554
O      12.2646511676     4.6771096344    11.5455719267
H      10.4247280950     3.7304136867    11.6873723855
O       8.8723725596     5.9611164798    11.8331598433
C      10.9141455272     4.6972971751    11.9599487801
C       8.6701008444     6.0004619613    13.2312019569
O       9.0234184683     7.3273332108    13.5408164002
C      10.9096582469     4.7455698233    13.4803533964
H      11.4800556915     5.5974712605    13.9228925431
H       7.5631736701     5.9308011528    13.3182431537
H       9.9255607147     7.3296065300    13.8723611583
C       9.4693379345     4.9204836655    13.9296832501
O      11.3772138024     3.5161093006    14.0020241694
H       8.9077879346     3.9868390816    13.6906517763
H      11.6802531253     3.6718584571    14.9037110520
O       9.3985320357     5.0422929356    15.3355169904
H       8.5127698893     5.3461968327    15.5623176906
O       8.7672409935     8.4584009085     9.4219717217
H       8.7672739937     8.4585285358    10.1639434513
