102
Step 1 | ATOMIC_POSITIONS (angstrom) | Cartesian Angstrom
NI      0.0000000000     0.0000000000     1.1900000730
NI      1.2286496050     2.1280835410     1.1900000730
NI      2.4572992100     4.2561670810     1.1900000730
NI      3.6859488150     6.3842506220     1.1900000730
NI      4.9145984200     8.5123341620     1.1900000730
NI      2.4572992100     0.0000000000     1.1900000730
NI      3.6859488150     2.1280835410     1.1900000730
NI      4.9145984200     4.2561670810     1.1900000730
NI      6.1432480250     6.3842506220     1.1900000730
NI      7.3718976300     8.5123341620     1.1900000730
NI      4.9145984200     0.0000000000     1.1900000730
NI      6.1432480250     2.1280835410     1.1900000730
NI      7.3718976300     4.2561670810     1.1900000730
NI      8.6005472350     6.3842506220     1.1900000730
NI      9.8291968400     8.5123341620     1.1900000730
NI      7.3718976300     0.0000000000     1.1900000730
NI      8.6005472350     2.1280835410     1.1900000730
NI      9.8291968400     4.2561670810     1.1900000730
NI     11.0578464450     6.3842506220     1.1900000730
NI     12.2864960500     8.5123341620     1.1900000730
NI      9.8291968400     0.0000000000     1.1900000730
NI     11.0578464450     2.1280835410     1.1900000730
NI     12.2864960500     4.2561670810     1.1900000730
NI     13.5151456550     6.3842506220     1.1900000730
NI     14.7437952600     8.5123341620     1.1900000730
NI      1.2229976558     0.7108461331     3.1986396213
NI      2.4527374616     2.8409282354     3.1981883704
NI      3.6812167587     4.9693157020     3.2000905834
NI      4.9139594324     7.0934850047     3.2089954152
NI      6.1372618314     9.2228439680     3.2005623137
NI      3.6802037617     0.7120503357     3.1990238953
NI      4.9106349543     2.8397408310     3.1998933381
NI      6.1337765713     4.9662894293     3.2080668863
NI      7.3663408871     7.1004517193     3.2084125009
NI      8.5961610914     9.2231957639     3.2002154021
NI      6.1376823110     0.7137723665     3.2007628766
NI      7.3664794943     2.8454133954     3.2082115418
NI      8.5983022807     4.9667154224     3.2087899731
NI      9.8191327316     7.0939227212     3.2085009498
NI     11.0506441631     9.2233591585     3.2012106750
NI      8.5956831158     0.7135369316     3.2007918939
NI      9.8218019001     2.8405840730     3.2001323629
NI     11.0513809225     4.9700059348     3.2002169473
NI     12.2797311210     7.0949959638     3.2016874184
NI     13.5100509939     9.2241614227     3.1998737315
NI     11.0527469530     0.7128250097     3.1988090958
NI     12.2795637101     2.8409664892     3.1979312162
NI     13.5091044892     4.9675437837     3.1990882237
NI     14.7400304907     7.0944509246     3.2010964550
NI     15.9694978266     9.2235376329     3.2006791196
NI      2.4484446398     1.4228846425     5.2069559867
NI      3.6780278221     3.5510862425     5.2074578419
NI      4.9144112473     5.6859719407     5.2325378729
NI      6.1329568401     7.7962905200     5.2336834412
NI      7.3636234787     9.9341234550     5.2080785884
NI      4.9065465989     1.4228044056     5.2089359507
NI      6.1446861032     3.5552460890     5.2327429155
NI      7.3619883539     5.6792082545     5.2193283579
NI      8.5928530599     7.7961220742     5.2331229202
NI      9.8207162249     9.9344447504     5.2094108525
NI      7.3637510935     1.4210523444     5.2077338803
NI      8.5813163112     3.5554238405     5.2336631061
NI      9.8112855125     5.6862512563     5.2333294764
NI     11.0510305521     7.8078298038     5.2086618492
NI     12.2778643775     9.9352815244     5.2148134675
NI      9.8203901294     1.4238220046     5.2093939950
NI     11.0487280234     3.5515932665     5.2079374525
NI     12.2770029506     5.6792577293     5.2105811593
NI     13.5071858507     7.8059274032     5.2151002771
NI     14.7366190847     9.9354721778     5.2144275396
NI     12.2782673307     1.4231717157     5.2072244349
NI     13.5064112948     3.5506574781     5.2070836436
NI     14.7350283438     5.6789651886     5.2097063957
NI     15.9625655861     7.8080422020     5.2078547756
NI     17.1927051462     9.9353887866     5.2090994353
NI     -0.0132798075     0.0114683197     7.2230398493
NI      1.2185704133     2.1330186449     7.2207148136
NI      2.4399500611     4.2603086507     7.2231520607
NI      3.6604060909     6.3917380593     7.2186579733
NI      4.8947248322     8.5297132300     7.2193137318
NI      2.4505004578     0.0117354903     7.2234872411
NI      3.6713544846     2.1267643756     7.2230853545
NI      4.8728534989     4.2426482517     7.1994438769
NI      6.0879040159     6.4148871554     7.3265597651
NI      7.3617082128     8.5540272115     7.2009807042
NI      4.9064110754     0.0031254631     7.2305501168
NI      6.1271657703     2.1181107978     7.2182709798
NI      7.3617407258     4.2084371720     7.3258435404
NI      8.6331325644     6.4132079663     7.3240179589
NI      9.8282774185     8.5290332955     7.2193147528
NI      7.3616109320     0.0006728579     7.2259832008
NI      8.5960047162     2.1185083602     7.2190537898
NI      9.8516529459     4.2418392122     7.2003796548
NI     11.0620630446     6.3912038084     7.2202843991
NI     12.2792784773     8.5190676942     7.2265613191
NI      9.8165297181     0.0039818237     7.2305495901
NI     11.0522412320     2.1264078416     7.2237070843
NI     12.2842274240     4.2602721565     7.2240518572
NI     13.5043036646     6.3921391747     7.2321635703
NI     14.7301559537     8.5195733564     7.2259375514
O       7.3608089644     5.6797674727     8.6347314210
H       7.3615491559     5.6910438670     9.6050919815
102
Step 2 | ATOMIC_POSITIONS (angstrom) | Cartesian Angstrom
NI      0.0000000000     0.0000000000     1.1900000730
NI      1.2286496050     2.1280835410     1.1900000730
NI      2.4572992100     4.2561670810     1.1900000730
NI      3.6859488150     6.3842506220     1.1900000730
NI      4.9145984200     8.5123341620     1.1900000730
NI      2.4572992100     0.0000000000     1.1900000730
NI      3.6859488150     2.1280835410     1.1900000730
NI      4.9145984200     4.2561670810     1.1900000730
NI      6.1432480250     6.3842506220     1.1900000730
NI      7.3718976300     8.5123341620     1.1900000730
NI      4.9145984200     0.0000000000     1.1900000730
NI      6.1432480250     2.1280835410     1.1900000730
NI      7.3718976300     4.2561670810     1.1900000730
NI      8.6005472350     6.3842506220     1.1900000730
NI      9.8291968400     8.5123341620     1.1900000730
NI      7.3718976300     0.0000000000     1.1900000730
NI      8.6005472350     2.1280835410     1.1900000730
NI      9.8291968400     4.2561670810     1.1900000730
NI     11.0578464450     6.3842506220     1.1900000730
NI     12.2864960500     8.5123341620     1.1900000730
NI      9.8291968400     0.0000000000     1.1900000730
NI     11.0578464450     2.1280835410     1.1900000730
NI     12.2864960500     4.2561670810     1.1900000730
NI     13.5151456550     6.3842506220     1.1900000730
NI     14.7437952600     8.5123341620     1.1900000730
NI      1.2231307980     0.7107289879     3.1985362012
NI      2.4528361276     2.8408126109     3.1982270615
NI      3.6811440695     4.9693029132     3.2001206484
NI      4.9139035532     7.0935593729     3.2086441176
NI      6.1373423850     9.2229377169     3.2004392929
NI      3.6802466361     0.7120220962     3.1991204070
NI      4.9106881472     2.8397767654     3.1999834441
NI      6.1340071921     4.9661118145     3.2079827966
NI      7.3664627259     7.1004518372     3.2082930219
NI      8.5961117964     9.2231464178     3.2001890259
NI      6.1377186166     0.7136986207     3.2008715070
NI      7.3665742509     2.8453850796     3.2082825603
NI      8.5984408139     4.9665145887     3.2087201798
NI      9.8192873602     7.0938360355     3.2085174335
NI     11.0507957274     9.2233943306     3.2012127200
NI      8.5957793320     0.7136659972     3.2008774237
NI      9.8219740987     2.8405322460     3.2003143226
NI     11.0515048350     4.9698861879     3.2003851225
NI     12.2798021589     7.0948975330     3.2015693968
NI     13.5101013712     9.2240202423     3.2000069476
NI     11.0528201459     0.7126174278     3.1990319200
NI     12.2796869290     2.8409367966     3.1981564875
NI     13.5092754708     4.9676953271     3.1992961978
NI     14.7400206735     7.0945088982     3.2010210429
NI     15.9694310754     9.2235172022     3.2006886479
NI      2.4485116255     1.4229090856     5.2069748055
NI      3.6780163879     3.5510393713     5.2075216286
NI      4.9144620230     5.6858595319     5.2326711679
NI      6.1330406414     7.7962377225     5.2336159731
NI      7.3636517004     9.9342752011     5.2080693422
NI      4.9065866878     1.4227086723     5.2090077800
NI      6.1449230657     3.5551097392     5.2326813278
NI      7.3624390104     5.6789931394     5.2193481559
NI      8.5931727700     7.7959873801     5.2330901197
NI      9.8208587278     9.9345045989     5.2094114913
NI      7.3638023419     1.4209918932     5.2077084350
NI      8.5814542371     3.5554525084     5.2335154102
NI      9.8114212492     5.6860618750     5.2333366326
NI     11.0510249527     7.8077405993     5.2085644555
NI     12.2778418472     9.9352813370     5.2147394479
NI      9.8205487333     1.4236732751     5.2094084290
NI     11.0487680910     3.5515443796     5.2080068212
NI     12.2772303600     5.6791142966     5.2104542134
NI     13.5070821409     7.8059264314     5.2150433075
NI     14.7365916553     9.9355460986     5.2144137030
NI     12.2783594499     1.4232221191     5.2071833858
NI     13.5064624324     3.5505546759     5.2070889985
NI     14.7350888587     5.6788857770     5.2096481944
NI     15.9625588675     7.8080400643     5.2077967202
NI     17.1927864927     9.9353678861     5.2091333569
NI     -0.0132044040     0.0116080161     7.2230803160
NI      1.2186168907     2.1329834586     7.2205738791
NI      2.4398819620     4.2602900014     7.2231540080
NI      3.6603112891     6.3916144223     7.2186240452
NI      4.8947115402     8.5297437420     7.2192224190
NI      2.4505192328     0.0117312134     7.2234531491
NI      3.6714525950     2.1266955715     7.2230622464
NI      4.8728557385     4.2425619044     7.1995799166
NI      6.0881005060     6.4148167034     7.3265068907
NI      7.3618355025     8.5539492947     7.2009427974
NI      4.9066052348     0.0031296806     7.2305110073
NI      6.1272803135     2.1179985592     7.2183025738
NI      7.3618818230     4.2086354529     7.3260209108
NI      8.6334180139     6.4133010607     7.3242511517
NI      9.8283797997     8.5289110929     7.2192657038
NI      7.3617425357     0.0006903304     7.2259056749
NI      8.5961765195     2.1183609622     7.2190048269
NI      9.8516070583     4.2419357903     7.2003457375
NI     11.0622471018     6.3910887981     7.2200447038
NI     12.2794621465     8.5189927160     7.2264626808
NI      9.8166456445     0.0038974574     7.2305561941
NI     11.0523468959     2.1264597960     7.2236009530
NI     12.2842509650     4.2602082677     7.2239379822
NI     13.5044888779     6.3919890786     7.2319427215
NI     14.7301915355     8.5194755837     7.2259624296
O       7.3608628990     5.6799158766     8.6346859014
H       7.3615616800     5.6907764602     9.6053131401
102
Step 3 | ATOMIC_POSITIONS (angstrom) | Cartesian Angstrom
NI      0.0000000000     0.0000000000     1.1900000730
NI      1.2286496050     2.1280835410     1.1900000730
NI      2.4572992100     4.2561670810     1.1900000730
NI      3.6859488150     6.3842506220     1.1900000730
NI      4.9145984200     8.5123341620     1.1900000730
NI      2.4572992100     0.0000000000     1.1900000730
NI      3.6859488150     2.1280835410     1.1900000730
NI      4.9145984200     4.2561670810     1.1900000730
NI      6.1432480250     6.3842506220     1.1900000730
NI      7.3718976300     8.5123341620     1.1900000730
NI      4.9145984200     0.0000000000     1.1900000730
NI      6.1432480250     2.1280835410     1.1900000730
NI      7.3718976300     4.2561670810     1.1900000730
NI      8.6005472350     6.3842506220     1.1900000730
NI      9.8291968400     8.5123341620     1.1900000730
NI      7.3718976300     0.0000000000     1.1900000730
NI      8.6005472350     2.1280835410     1.1900000730
NI      9.8291968400     4.2561670810     1.1900000730
NI     11.0578464450     6.3842506220     1.1900000730
NI     12.2864960500     8.5123341620     1.1900000730
NI      9.8291968400     0.0000000000     1.1900000730
NI     11.0578464450     2.1280835410     1.1900000730
NI     12.2864960500     4.2561670810     1.1900000730
NI     13.5151456550     6.3842506220     1.1900000730
NI     14.7437952600     8.5123341620     1.1900000730
NI      1.2231307980     0.7107289879     3.1985362012
NI      2.4528361276     2.8408126109     3.1982270615
NI      3.6811440695     4.9693029132     3.2001206484
NI      4.9139035532     7.0935593729     3.2086441176
NI      6.1373423850     9.2229377169     3.2004392929
NI      3.6802466361     0.7120220962     3.1991204070
NI      4.9106881472     2.8397767654     3.1999834441
NI      6.1340071921     4.9661118145     3.2079827966
NI      7.3664627259     7.1004518372     3.2082930219
NI      8.5961117964     9.2231464178     3.2001890259
NI      6.1377186166     0.7136986207     3.2008715070
NI      7.3665742509     2.8453850796     3.2082825603
NI      8.5984408139     4.9665145887     3.2087201798
NI      9.8192873602     7.0938360355     3.2085174335
NI     11.0507957274     9.2233943306     3.2012127200
NI      8.5957793320     0.7136659972     3.2008774237
NI      9.8219740987     2.8405322460     3.2003143226
NI     11.0515048350     4.9698861879     3.2003851225
NI     12.2798021589     7.0948975330     3.2015693968
NI     13.5101013712     9.2240202423     3.2000069476
NI     11.0528201459     0.7126174278     3.1990319200
NI     12.2796869290     2.8409367966     3.1981564875
NI     13.5092754708     4.9676953271     3.1992961978
NI     14.7400206735     7.0945088982     3.2010210429
NI     15.9694310754     9.2235172022     3.2006886479
NI      2.4485116255     1.4229090856     5.2069748055
NI      3.6780163879     3.5510393713     5.2075216286
NI      4.9144620230     5.6858595319     5.2326711679
NI      6.1330406414     7.7962377225     5.2336159731
NI      7.3636517004     9.9342752011     5.2080693422
NI      4.9065866878     1.4227086723     5.2090077800
NI      6.1449230657     3.5551097392     5.2326813278
NI      7.3624390104     5.6789931394     5.2193481559
NI      8.5931727700     7.7959873801     5.2330901197
NI      9.8208587278     9.9345045989     5.2094114913
NI      7.3638023419     1.4209918932     5.2077084350
NI      8.5814542371     3.5554525084     5.2335154102
NI      9.8114212492     5.6860618750     5.2333366326
NI     11.0510249527     7.8077405993     5.2085644555
NI     12.2778418472     9.9352813370     5.2147394479
NI      9.8205487333     1.4236732751     5.2094084290
NI     11.0487680910     3.5515443796     5.2080068212
NI     12.2772303600     5.6791142966     5.2104542134
NI     13.5070821409     7.8059264314     5.2150433075
NI     14.7365916553     9.9355460986     5.2144137030
NI     12.2783594499     1.4232221191     5.2071833858
NI     13.5064624324     3.5505546759     5.2070889985
NI     14.7350888587     5.6788857770     5.2096481944
NI     15.9625588675     7.8080400643     5.2077967202
NI     17.1927864927     9.9353678861     5.2091333569
NI     -0.0132044040     0.0116080161     7.2230803160
NI      1.2186168907     2.1329834586     7.2205738791
NI      2.4398819620     4.2602900014     7.2231540080
NI      3.6603112891     6.3916144223     7.2186240452
NI      4.8947115402     8.5297437420     7.2192224190
NI      2.4505192328     0.0117312134     7.2234531491
NI      3.6714525950     2.1266955715     7.2230622464
NI      4.8728557385     4.2425619044     7.1995799166
NI      6.0881005060     6.4148167034     7.3265068907
NI      7.3618355025     8.5539492947     7.2009427974
NI      4.9066052348     0.0031296806     7.2305110073
NI      6.1272803135     2.1179985592     7.2183025738
NI      7.3618818230     4.2086354529     7.3260209108
NI      8.6334180139     6.4133010607     7.3242511517
NI      9.8283797997     8.5289110929     7.2192657038
NI      7.3617425357     0.0006903304     7.2259056749
NI      8.5961765195     2.1183609622     7.2190048269
NI      9.8516070583     4.2419357903     7.2003457375
NI     11.0622471018     6.3910887981     7.2200447038
NI     12.2794621465     8.5189927160     7.2264626808
NI      9.8166456445     0.0038974574     7.2305561941
NI     11.0523468959     2.1264597960     7.2236009530
NI     12.2842509650     4.2602082677     7.2239379822
NI     13.5044888779     6.3919890786     7.2319427215
NI     14.7301915355     8.5194755837     7.2259624296
O       7.3608628990     5.6799158766     8.6346859014
H       7.3615616800     5.6907764602     9.6053131401
