102
Step 1 | ATOMIC_POSITIONS (angstrom) | Cartesian Angstrom
NI      0.0000000000     0.0000000000     1.1900000730
NI      1.2286496050     2.1280835410     1.1900000730
NI      2.4572992100     4.2561670810     1.1900000730
NI      3.6859488150     6.3842506220     1.1900000730
NI      4.9145984200     8.5123341620     1.1900000730
NI      2.4572992100     0.0000000000     1.1900000730
NI      3.6859488150     2.1280835410     1.1900000730
NI      4.9145984200     4.2561670810     1.1900000730
NI      6.1432480250     6.3842506220     1.1900000730
NI      7.3718976300     8.5123341620     1.1900000730
NI      4.9145984200     0.0000000000     1.1900000730
NI      6.1432480250     2.1280835410     1.1900000730
NI      7.3718976300     4.2561670810     1.1900000730
NI      8.6005472350     6.3842506220     1.1900000730
NI      9.8291968400     8.5123341620     1.1900000730
NI      7.3718976300     0.0000000000     1.1900000730
NI      8.6005472350     2.1280835410     1.1900000730
NI      9.8291968400     4.2561670810     1.1900000730
NI     11.0578464450     6.3842506220     1.1900000730
NI     12.2864960500     8.5123341620     1.1900000730
NI      9.8291968400     0.0000000000     1.1900000730
NI     11.0578464450     2.1280835410     1.1900000730
NI     12.2864960500     4.2561670810     1.1900000730
NI     13.5151456550     6.3842506220     1.1900000730
NI     14.7437952600     8.5123341620     1.1900000730
NI      1.2282235944     0.7072934509     3.1987153004
NI      2.4568876045     2.8357528703     3.2002926664
NI      3.6859682420     4.9632994696     3.1976420624
NI      4.9154468066     7.0926184170     3.1978281261
NI      6.1437496507     9.2197452104     3.2000323211
NI      3.6855155513     0.7077117276     3.2004717553
NI      4.9183482406     2.8384905588     3.2026432998
NI      6.1463467128     4.9628810849     3.2066648493
NI      7.3723147972     7.0868221254     3.2043154164
NI      8.5997142227     9.2184949869     3.2016893235
NI      6.1421282787     0.7087144229     3.1978483605
NI      7.3723649119     2.8396465587     3.2060279469
NI      8.5976866933     4.9629418080     3.2074712853
NI      9.8272164504     7.0919086085     3.2000593615
NI     11.0573119480     9.2199942921     3.2008584520
NI      8.6011586614     0.7088215506     3.1981447521
NI      9.8244609426     2.8391608680     3.2041151540
NI     11.0563406206     4.9635233657     3.2001497633
NI     12.2860391879     7.0920043687     3.2011591015
NI     13.5152018115     9.2204803399     3.2013762693
NI     11.0575633267     0.7083766931     3.2002622403
NI     12.2849032291     2.8361018026     3.2010451423
NI     13.5145664773     4.9641132517     3.2011921530
NI     14.7439546203     7.0920050743     3.2012040102
NI     15.9728067162     9.2204926315     3.2011043514
NI      2.4550349036     1.4156965269     5.2116494613
NI      3.6846206156     3.5428376883     5.2091017201
NI      4.9146924981     5.6750734350     5.2050043177
NI      6.1441930699     7.7986627270     5.2110878498
NI      7.3708588085     9.9286706129     5.2139863882
NI      4.9124959240     1.4168376047     5.2097005996
NI      6.1553546593     3.5519875083     5.2393518962
NI      7.3697446024     5.6566171512     5.2466347287
NI      8.5979600997     7.7980169702     5.2149802552
NI      9.8283198401     9.9281765428     5.2130646768
NI      7.3711936059     1.4149350500     5.2027108685
NI      8.5850544324     3.5538331688     5.2440808696
NI      9.8283186980     5.6734704038     5.2096226742
NI     11.0570274660     7.8004965685     5.2131049651
NI     12.2856791321     9.9295666096     5.2132458681
NI      9.8299986185     1.4177412933     5.2085710191
NI     11.0556428117     3.5432398585     5.2126461593
NI     12.2851481237     5.6720505455     5.2131823738
NI     13.5146438789     7.8010692473     5.2136424849
NI     14.7438731737     9.9301210982     5.2131209688
NI     12.2860564449     1.4165613334     5.2140058446
NI     13.5132307921     3.5437152635     5.2134519558
NI     14.7437508762     5.6718934268     5.2137383011
NI     15.9730076037     7.8010710716     5.2130552147
NI     17.2013718190     9.9289194420     5.2140621317
NI     -0.0008028009    -0.0022280943     7.2268570197
NI      1.2270649409     2.1243843882     7.2243670391
NI      2.4508685419     4.2528972615     7.2288561300
NI      3.6776231423     6.3835102999     7.2261326635
NI      4.9102305675     8.5160560307     7.2255322706
NI      2.4556831422    -0.0025971595     7.2228194895
NI      3.6831123191     2.1239422351     7.2233130123
NI      4.8943433260     4.2534308428     7.1976185553
NI      6.1321718067     6.3911817050     7.2382263233
NI      7.3722071245     8.5137487534     7.2231554173
NI      4.9116531329    -0.0069973497     7.2280338268
NI      6.1376153846     2.1093178084     7.2028183196
NI      7.3716671997     4.2484601400     7.4049492848
NI      8.6102363339     6.3869108208     7.2164249698
NI      9.8300763608     8.5110590265     7.2264106056
NI      7.3714822545    -0.0066173307     7.2271473660
NI      8.6034992583     2.1122337846     7.2025742859
NI      9.8384305368     4.2560676822     7.2122094538
NI     11.0591747658     6.3824777313     7.2278645139
NI     12.2860675141     8.5091634287     7.2225866690
NI      9.8301322713    -0.0048717851     7.2275310828
NI     11.0562847032     2.1251098071     7.2261829278
NI     12.2868233293     4.2528311343     7.2260855267
NI     13.5136420183     6.3818799304     7.2225998000
NI     14.7420885349     8.5097803640     7.2218189452
O       6.1444116076     6.3827398301     9.2083520744
H       6.1431046558     6.3843122490    10.1788508335
102
Step 2 | ATOMIC_POSITIONS (angstrom) | Cartesian Angstrom
NI      0.0000000000     0.0000000000     1.1900000730
NI      1.2286496050     2.1280835410     1.1900000730
NI      2.4572992100     4.2561670810     1.1900000730
NI      3.6859488150     6.3842506220     1.1900000730
NI      4.9145984200     8.5123341620     1.1900000730
NI      2.4572992100     0.0000000000     1.1900000730
NI      3.6859488150     2.1280835410     1.1900000730
NI      4.9145984200     4.2561670810     1.1900000730
NI      6.1432480250     6.3842506220     1.1900000730
NI      7.3718976300     8.5123341620     1.1900000730
NI      4.9145984200     0.0000000000     1.1900000730
NI      6.1432480250     2.1280835410     1.1900000730
NI      7.3718976300     4.2561670810     1.1900000730
NI      8.6005472350     6.3842506220     1.1900000730
NI      9.8291968400     8.5123341620     1.1900000730
NI      7.3718976300     0.0000000000     1.1900000730
NI      8.6005472350     2.1280835410     1.1900000730
NI      9.8291968400     4.2561670810     1.1900000730
NI     11.0578464450     6.3842506220     1.1900000730
NI     12.2864960500     8.5123341620     1.1900000730
NI      9.8291968400     0.0000000000     1.1900000730
NI     11.0578464450     2.1280835410     1.1900000730
NI     12.2864960500     4.2561670810     1.1900000730
NI     13.5151456550     6.3842506220     1.1900000730
NI     14.7437952600     8.5123341620     1.1900000730
NI      1.2283114027     0.7073042277     3.1990591401
NI      2.4569355491     2.8356406505     3.2004869940
NI      3.6856173468     4.9631771579     3.1972881539
NI      4.9152674053     7.0927285480     3.1974066162
NI      6.1436465754     9.2201619580     3.1995903229
NI      3.6854601368     0.7077604819     3.2004921714
NI      4.9185091872     2.8386820484     3.2033608050
NI      6.1462602881     4.9627077057     3.2062744304
NI      7.3723012079     7.0866592691     3.2045665606
NI      8.5995727096     9.2184935427     3.2017129742
NI      6.1421460715     0.7087463526     3.1980793205
NI      7.3723345873     2.8398053209     3.2062152968
NI      8.5979893553     4.9627227684     3.2072951223
NI      9.8272565352     7.0918200016     3.2001374447
NI     11.0572587745     9.2199938204     3.2009925405
NI      8.6012377017     0.7088194676     3.1982539602
NI      9.8242583821     2.8390691211     3.2049108480
NI     11.0564846401     4.9636564340     3.2003613821
NI     12.2860188715     7.0919649140     3.2012923805
NI     13.5152475175     9.2204665409     3.2015123630
NI     11.0573934812     0.7083085049     3.2004505480
NI     12.2849236164     2.8361217244     3.2009502141
NI     13.5145041938     4.9642110125     3.2014596127
NI     14.7440363211     7.0919504674     3.2012657508
NI     15.9730122709     9.2205173191     3.2011219043
NI      2.4551927797     1.4157578395     5.2116536233
NI      3.6848694067     3.5433372831     5.2095194051
NI      4.9163175136     5.6763109124     5.2062230028
NI      6.1440092919     7.7964508297     5.2122694661
NI      7.3707065107     9.9280008596     5.2144902593
NI      4.9126012180     1.4164501104     5.2093720442
NI      6.1544584671     3.5518418343     5.2392602609
NI      7.3677408577     5.6591787900     5.2467424687
NI      8.5978210095     7.7980134991     5.2149240728
NI      9.8284847312     9.9281736429     5.2127511405
NI      7.3711838792     1.4143444525     5.2025874774
NI      8.5854763189     3.5536369127     5.2443192254
NI      9.8281198983     5.6737662504     5.2100695025
NI     11.0570435279     7.8006682565     5.2129699970
NI     12.2856196027     9.9296238684     5.2135638893
NI      9.8298634254     1.4175877256     5.2086856294
NI     11.0560262609     3.5431628495     5.2124884154
NI     12.2850981443     5.6720529026     5.2131729621
NI     13.5145592403     7.8011702530     5.2135647113
NI     14.7436957663     9.9301962745     5.2129987198
NI     12.2859032604     1.4169408040     5.2137914142
NI     13.5129810217     3.5435738889     5.2131499214
NI     14.7443369141     5.6720495010     5.2143329356
NI     15.9733441330     7.8008627266     5.2132217151
NI     17.2014616761     9.9282638084     5.2145630207
NI     -0.0007310240    -0.0019013393     7.2266729872
NI      1.2270124858     2.1243746491     7.2242476411
NI      2.4506514260     4.2528238974     7.2285780994
NI      3.6739059938     6.3833583512     7.2249293684
NI      4.9083502949     8.5194727986     7.2247882854
NI      2.4557606903    -0.0024353444     7.2228460236
NI      3.6830144989     2.1237067875     7.2228202333
NI      4.8963150300     4.2498692444     7.1998847126
NI      6.1331842710     6.3888982667     7.2744702379
NI      7.3740595659     8.5170382236     7.2223077069
NI      4.9116083845    -0.0070031019     7.2275323454
NI      6.1392663926     2.1122889843     7.2062376488
NI      7.3728888758     4.2457256246     7.3922121389
NI      8.6126811168     6.3847927985     7.2171446437
NI      9.8304937788     8.5114343829     7.2267603593
NI      7.3714097959    -0.0066148320     7.2261798520
NI      8.6015650357     2.1150960117     7.2058538206
NI      9.8355741071     4.2557970216     7.2146091701
NI     11.0594177345     6.3826280805     7.2272665716
NI     12.2860404502     8.5091424646     7.2224528107
NI      9.8299334420    -0.0048261380     7.2271357422
NI     11.0566949996     2.1249275722     7.2252881791
NI     12.2870169457     4.2527751943     7.2258908160
NI     13.5133817477     6.3819986163     7.2226176698
NI     14.7415724187     8.5101017482     7.2221506471
O       6.1457562166     6.3810360576     9.1934258642
H       6.1429070998     6.3844089002    10.1586861904
