102
Step 1 | ATOMIC_POSITIONS (angstrom) | Cartesian Angstrom
NI      0.0000000000     0.0000000000     1.1900000730
NI      1.2286496050     2.1280835410     1.1900000730
NI      2.4572992100     4.2561670810     1.1900000730
NI      3.6859488150     6.3842506220     1.1900000730
NI      4.9145984200     8.5123341620     1.1900000730
NI      2.4572992100     0.0000000000     1.1900000730
NI      3.6859488150     2.1280835410     1.1900000730
NI      4.9145984200     4.2561670810     1.1900000730
NI      6.1432480250     6.3842506220     1.1900000730
NI      7.3718976300     8.5123341620     1.1900000730
NI      4.9145984200     0.0000000000     1.1900000730
NI      6.1432480250     2.1280835410     1.1900000730
NI      7.3718976300     4.2561670810     1.1900000730
NI      8.6005472350     6.3842506220     1.1900000730
NI      9.8291968400     8.5123341620     1.1900000730
NI      7.3718976300     0.0000000000     1.1900000730
NI      8.6005472350     2.1280835410     1.1900000730
NI      9.8291968400     4.2561670810     1.1900000730
NI     11.0578464450     6.3842506220     1.1900000730
NI     12.2864960500     8.5123341620     1.1900000730
NI      9.8291968400     0.0000000000     1.1900000730
NI     11.0578464450     2.1280835410     1.1900000730
NI     12.2864960500     4.2561670810     1.1900000730
NI     13.5151456550     6.3842506220     1.1900000730
NI     14.7437952600     8.5123341620     1.1900000730
NI      1.2282235944     0.7072934509     3.1987153004
NI      2.4568876045     2.8357528703     3.2002926664
NI      3.6859682420     4.9632994696     3.1976420624
NI      4.9154468066     7.0926184170     3.1978281261
NI      6.1437496507     9.2197452104     3.2000323211
NI      3.6855155513     0.7077117276     3.2004717553
NI      4.9183482406     2.8384905588     3.2026432998
NI      6.1463467128     4.9628810849     3.2066648493
NI      7.3723147972     7.0868221254     3.2043154164
NI      8.5997142227     9.2184949869     3.2016893235
NI      6.1421282787     0.7087144229     3.1978483605
NI      7.3723649119     2.8396465587     3.2060279469
NI      8.5976866933     4.9629418080     3.2074712853
NI      9.8272164504     7.0919086085     3.2000593615
NI     11.0573119480     9.2199942921     3.2008584520
NI      8.6011586614     0.7088215506     3.1981447521
NI      9.8244609426     2.8391608680     3.2041151540
NI     11.0563406206     4.9635233657     3.2001497633
NI     12.2860391879     7.0920043687     3.2011591015
NI     13.5152018115     9.2204803399     3.2013762693
NI     11.0575633267     0.7083766931     3.2002622403
NI     12.2849032291     2.8361018026     3.2010451423
NI     13.5145664773     4.9641132517     3.2011921530
NI     14.7439546203     7.0920050743     3.2012040102
NI     15.9728067162     9.2204926315     3.2011043514
NI      2.4550349036     1.4156965269     5.2116494613
NI      3.6846206156     3.5428376883     5.2091017201
NI      4.9146924981     5.6750734350     5.2050043177
NI      6.1441930699     7.7986627270     5.2110878498
NI      7.3708588085     9.9286706129     5.2139863882
NI      4.9124959240     1.4168376047     5.2097005996
NI      6.1553546593     3.5519875083     5.2393518962
NI      7.3697446024     5.6566171512     5.2466347287
NI      8.5979600997     7.7980169702     5.2149802552
NI      9.8283198401     9.9281765428     5.2130646768
NI      7.3711936059     1.4149350500     5.2027108685
NI      8.5850544324     3.5538331688     5.2440808696
NI      9.8283186980     5.6734704038     5.2096226742
NI     11.0570274660     7.8004965685     5.2131049651
NI     12.2856791321     9.9295666096     5.2132458681
NI      9.8299986185     1.4177412933     5.2085710191
NI     11.0556428117     3.5432398585     5.2126461593
NI     12.2851481237     5.6720505455     5.2131823738
NI     13.5146438789     7.8010692473     5.2136424849
NI     14.7438731737     9.9301210982     5.2131209688
NI     12.2860564449     1.4165613334     5.2140058446
NI     13.5132307921     3.5437152635     5.2134519558
NI     14.7437508762     5.6718934268     5.2137383011
NI     15.9730076037     7.8010710716     5.2130552147
NI     17.2013718190     9.9289194420     5.2140621317
NI     -0.0008028009    -0.0022280943     7.2268570197
NI      1.2270649409     2.1243843882     7.2243670391
NI      2.4508685419     4.2528972615     7.2288561300
NI      3.6776231423     6.3835102999     7.2261326635
NI      4.9102305675     8.5160560307     7.2255322706
NI      2.4556831422    -0.0025971595     7.2228194895
NI      3.6831123191     2.1239422351     7.2233130123
NI      4.8943433260     4.2534308428     7.1976185553
NI      6.1321718067     6.3911817050     7.2382263233
NI      7.3722071245     8.5137487534     7.2231554173
NI      4.9116531329    -0.0069973497     7.2280338268
NI      6.1376153846     2.1093178084     7.2028183196
NI      7.3716671997     4.2484601400     7.4049492848
NI      8.6102363339     6.3869108208     7.2164249698
NI      9.8300763608     8.5110590265     7.2264106056
NI      7.3714822545    -0.0066173307     7.2271473660
NI      8.6034992583     2.1122337846     7.2025742859
NI      9.8384305368     4.2560676822     7.2122094538
NI     11.0591747658     6.3824777313     7.2278645139
NI     12.2860675141     8.5091634287     7.2225866690
NI      9.8301322713    -0.0048717851     7.2275310828
NI     11.0562847032     2.1251098071     7.2261829278
NI     12.2868233293     4.2528311343     7.2260855267
NI     13.5136420183     6.3818799304     7.2225998000
NI     14.7420885349     8.5097803640     7.2218189452
O       6.1444116076     6.3827398301     9.2083520744
H       6.1431046558     6.3843122490    10.1788508335
102
Step 2 | ATOMIC_POSITIONS (angstrom) | Cartesian Angstrom
NI      0.0000000000     0.0000000000     1.1900000730
NI      1.2286496050     2.1280835410     1.1900000730
NI      2.4572992100     4.2561670810     1.1900000730
NI      3.6859488150     6.3842506220     1.1900000730
NI      4.9145984200     8.5123341620     1.1900000730
NI      2.4572992100     0.0000000000     1.1900000730
NI      3.6859488150     2.1280835410     1.1900000730
NI      4.9145984200     4.2561670810     1.1900000730
NI      6.1432480250     6.3842506220     1.1900000730
NI      7.3718976300     8.5123341620     1.1900000730
NI      4.9145984200     0.0000000000     1.1900000730
NI      6.1432480250     2.1280835410     1.1900000730
NI      7.3718976300     4.2561670810     1.1900000730
NI      8.6005472350     6.3842506220     1.1900000730
NI      9.8291968400     8.5123341620     1.1900000730
NI      7.3718976300     0.0000000000     1.1900000730
NI      8.6005472350     2.1280835410     1.1900000730
NI      9.8291968400     4.2561670810     1.1900000730
NI     11.0578464450     6.3842506220     1.1900000730
NI     12.2864960500     8.5123341620     1.1900000730
NI      9.8291968400     0.0000000000     1.1900000730
NI     11.0578464450     2.1280835410     1.1900000730
NI     12.2864960500     4.2561670810     1.1900000730
NI     13.5151456550     6.3842506220     1.1900000730
NI     14.7437952600     8.5123341620     1.1900000730
NI      1.2283114027     0.7073042277     3.1990591401
NI      2.4569355491     2.8356406505     3.2004869940
NI      3.6856173468     4.9631771579     3.1972881539
NI      4.9152674053     7.0927285480     3.1974066162
NI      6.1436465754     9.2201619580     3.1995903229
NI      3.6854601368     0.7077604819     3.2004921714
NI      4.9185091872     2.8386820484     3.2033608050
NI      6.1462602881     4.9627077057     3.2062744304
NI      7.3723012079     7.0866592691     3.2045665606
NI      8.5995727096     9.2184935427     3.2017129742
NI      6.1421460715     0.7087463526     3.1980793205
NI      7.3723345873     2.8398053209     3.2062152968
NI      8.5979893553     4.9627227684     3.2072951223
NI      9.8272565352     7.0918200016     3.2001374447
NI     11.0572587745     9.2199938204     3.2009925405
NI      8.6012377017     0.7088194676     3.1982539602
NI      9.8242583821     2.8390691211     3.2049108480
NI     11.0564846401     4.9636564340     3.2003613821
NI     12.2860188715     7.0919649140     3.2012923805
NI     13.5152475175     9.2204665409     3.2015123630
NI     11.0573934812     0.7083085049     3.2004505480
NI     12.2849236164     2.8361217244     3.2009502141
NI     13.5145041938     4.9642110125     3.2014596127
NI     14.7440363211     7.0919504674     3.2012657508
NI     15.9730122709     9.2205173191     3.2011219043
NI      2.4551927797     1.4157578395     5.2116536233
NI      3.6848694067     3.5433372831     5.2095194051
NI      4.9163175136     5.6763109124     5.2062230028
NI      6.1440092919     7.7964508297     5.2122694661
NI      7.3707065107     9.9280008596     5.2144902593
NI      4.9126012180     1.4164501104     5.2093720442
NI      6.1544584671     3.5518418343     5.2392602609
NI      7.3677408577     5.6591787900     5.2467424687
NI      8.5978210095     7.7980134991     5.2149240728
NI      9.8284847312     9.9281736429     5.2127511405
NI      7.3711838792     1.4143444525     5.2025874774
NI      8.5854763189     3.5536369127     5.2443192254
NI      9.8281198983     5.6737662504     5.2100695025
NI     11.0570435279     7.8006682565     5.2129699970
NI     12.2856196027     9.9296238684     5.2135638893
NI      9.8298634254     1.4175877256     5.2086856294
NI     11.0560262609     3.5431628495     5.2124884154
NI     12.2850981443     5.6720529026     5.2131729621
NI     13.5145592403     7.8011702530     5.2135647113
NI     14.7436957663     9.9301962745     5.2129987198
NI     12.2859032604     1.4169408040     5.2137914142
NI     13.5129810217     3.5435738889     5.2131499214
NI     14.7443369141     5.6720495010     5.2143329356
NI     15.9733441330     7.8008627266     5.2132217151
NI     17.2014616761     9.9282638084     5.2145630207
NI     -0.0007310240    -0.0019013393     7.2266729872
NI      1.2270124858     2.1243746491     7.2242476411
NI      2.4506514260     4.2528238974     7.2285780994
NI      3.6739059938     6.3833583512     7.2249293684
NI      4.9083502949     8.5194727986     7.2247882854
NI      2.4557606903    -0.0024353444     7.2228460236
NI      3.6830144989     2.1237067875     7.2228202333
NI      4.8963150300     4.2498692444     7.1998847126
NI      6.1331842710     6.3888982667     7.2744702379
NI      7.3740595659     8.5170382236     7.2223077069
NI      4.9116083845    -0.0070031019     7.2275323454
NI      6.1392663926     2.1122889843     7.2062376488
NI      7.3728888758     4.2457256246     7.3922121389
NI      8.6126811168     6.3847927985     7.2171446437
NI      9.8304937788     8.5114343829     7.2267603593
NI      7.3714097959    -0.0066148320     7.2261798520
NI      8.6015650357     2.1150960117     7.2058538206
NI      9.8355741071     4.2557970216     7.2146091701
NI     11.0594177345     6.3826280805     7.2272665716
NI     12.2860404502     8.5091424646     7.2224528107
NI      9.8299334420    -0.0048261380     7.2271357422
NI     11.0566949996     2.1249275722     7.2252881791
NI     12.2870169457     4.2527751943     7.2258908160
NI     13.5133817477     6.3819986163     7.2226176698
NI     14.7415724187     8.5101017482     7.2221506471
O       6.1457562166     6.3810360576     9.1934258642
H       6.1429070998     6.3844089002    10.1586861904
102
Step 3 | ATOMIC_POSITIONS (angstrom) | Cartesian Angstrom
NI      0.0000000000     0.0000000000     1.1900000730
NI      1.2286496050     2.1280835410     1.1900000730
NI      2.4572992100     4.2561670810     1.1900000730
NI      3.6859488150     6.3842506220     1.1900000730
NI      4.9145984200     8.5123341620     1.1900000730
NI      2.4572992100     0.0000000000     1.1900000730
NI      3.6859488150     2.1280835410     1.1900000730
NI      4.9145984200     4.2561670810     1.1900000730
NI      6.1432480250     6.3842506220     1.1900000730
NI      7.3718976300     8.5123341620     1.1900000730
NI      4.9145984200     0.0000000000     1.1900000730
NI      6.1432480250     2.1280835410     1.1900000730
NI      7.3718976300     4.2561670810     1.1900000730
NI      8.6005472350     6.3842506220     1.1900000730
NI      9.8291968400     8.5123341620     1.1900000730
NI      7.3718976300     0.0000000000     1.1900000730
NI      8.6005472350     2.1280835410     1.1900000730
NI      9.8291968400     4.2561670810     1.1900000730
NI     11.0578464450     6.3842506220     1.1900000730
NI     12.2864960500     8.5123341620     1.1900000730
NI      9.8291968400     0.0000000000     1.1900000730
NI     11.0578464450     2.1280835410     1.1900000730
NI     12.2864960500     4.2561670810     1.1900000730
NI     13.5151456550     6.3842506220     1.1900000730
NI     14.7437952600     8.5123341620     1.1900000730
NI      1.2284133408     0.7073209059     3.1997180475
NI      2.4570165944     2.8354634724     3.2008486819
NI      3.6850819703     4.9630417863     3.1969470689
NI      4.9149800112     7.0928947477     3.1969074630
NI      6.1435069743     9.2207290929     3.1991507338
NI      3.6853494919     0.7078551710     3.2005333632
NI      4.9186350314     2.8389438984     3.2044752194
NI      6.1460379125     4.9625060468     3.2058351902
NI      7.3722161143     7.0865156537     3.2050236257
NI      8.5992981457     9.2185299657     3.2017617320
NI      6.1421993601     0.7087075940     3.1984232053
NI      7.3723208778     2.8399655981     3.2065792721
NI      8.5984686349     4.9624104978     3.2071934584
NI      9.8273512066     7.0916891016     3.2002738331
NI     11.0572508536     9.2200097220     3.2011842898
NI      8.6013571287     0.7087610627     3.1984281916
NI      9.8239976401     2.8389007092     3.2062257621
NI     11.0567350514     4.9638431274     3.2007421151
NI     12.2860401625     7.0919268872     3.2015104872
NI     13.5153046599     9.2204467101     3.2017173831
NI     11.0571369249     0.7082184361     3.2008352246
NI     12.2849333705     2.8361130188     3.2006804220
NI     13.5144375486     4.9644011623     3.2019259629
NI     14.7441348864     7.0918669599     3.2014069693
NI     15.9732747648     9.2205574249     3.2011890992
NI      2.4554374162     1.4158328950     5.2115075053
NI      3.6852242469     3.5442673123     5.2102855297
NI      4.9195166979     5.6785710399     5.2100716456
NI      6.1436324505     7.7921386150     5.2161042174
NI      7.3703571070     9.9270566502     5.2150531977
NI      4.9129270061     1.4159186181     5.2091237456
NI      6.1529542402     3.5515998053     5.2387638444
NI      7.3637254189     5.6637734909     5.2485368281
NI      8.5975735469     7.7979596753     5.2149493650
NI      9.8287049240     9.9281911170     5.2121971157
NI      7.3711608227     1.4135284564     5.2026707813
NI      8.5863280529     3.5533038391     5.2443307343
NI      9.8278003705     5.6740384719     5.2108229145
NI     11.0570936028     7.8009703106     5.2126613070
NI     12.2855343061     9.9296599543     5.2140060371
NI      9.8294811924     1.4173595370     5.2090452150
NI     11.0565099674     3.5431607536     5.2124251171
NI     12.2850933699     5.6720785857     5.2130132057
NI     13.5144582851     7.8013358990     5.2132878776
NI     14.7434678157     9.9302438014     5.2126544722
NI     12.2856926208     1.4174285916     5.2133500094
NI     13.5126698284     3.5433747468     5.2126433290
NI     14.7452049280     5.6721834942     5.2150374384
NI     15.9738903484     7.8005474889     5.2133883121
NI     17.2017092770     9.9273274370     5.2151215370
NI     -0.0006541760    -0.0012579766     7.2264552849
NI      1.2269252481     2.1244117417     7.2239973012
NI      2.4504860127     4.2526225913     7.2281295404
NI      3.6685470554     6.3831327461     7.2222428136
NI      4.9055735253     8.5243006962     7.2228083171
NI      2.4560319767    -0.0020170899     7.2230313289
NI      3.6829150520     2.1232663969     7.2221341372
NI      4.8989608445     4.2445604962     7.2028907465
NI      6.1343058397     6.3862883063     7.3288909724
NI      7.3768507745     8.5217539619     7.2202144717
NI      4.9117057124    -0.0067298512     7.2266496465
NI      6.1415010795     2.1161487211     7.2115622027
NI      7.3750218397     4.2411561958     7.3697885262
NI      8.6164534732     6.3820657118     7.2176109039
NI      9.8311922515     8.5119623627     7.2273150441
NI      7.3712556020    -0.0063681055     7.2245988246
NI      8.5990452837     2.1188124608     7.2110557774
NI      9.8318454772     4.2552375533     7.2184043763
NI     11.0598576050     6.3827721855     7.2264551473
NI     12.2859835126     8.5091750004     7.2222420474
NI      9.8293328288    -0.0043014969     7.2266302698
NI     11.0571457406     2.1247506817     7.2238029635
NI     12.2870719293     4.2526652810     7.2254963235
NI     13.5127922642     6.3821566724     7.2228026861
NI     14.7406467625     8.5106968515     7.2227320540
O       6.1482174993     6.3780965458     9.1678545646
H       6.1424104683     6.3847091235    10.1310442317
102
Step 4 | ATOMIC_POSITIONS (angstrom) | Cartesian Angstrom
NI      0.0000000000     0.0000000000     1.1900000730
NI      1.2286496050     2.1280835410     1.1900000730
NI      2.4572992100     4.2561670810     1.1900000730
NI      3.6859488150     6.3842506220     1.1900000730
NI      4.9145984200     8.5123341620     1.1900000730
NI      2.4572992100     0.0000000000     1.1900000730
NI      3.6859488150     2.1280835410     1.1900000730
NI      4.9145984200     4.2561670810     1.1900000730
NI      6.1432480250     6.3842506220     1.1900000730
NI      7.3718976300     8.5123341620     1.1900000730
NI      4.9145984200     0.0000000000     1.1900000730
NI      6.1432480250     2.1280835410     1.1900000730
NI      7.3718976300     4.2561670810     1.1900000730
NI      8.6005472350     6.3842506220     1.1900000730
NI      9.8291968400     8.5123341620     1.1900000730
NI      7.3718976300     0.0000000000     1.1900000730
NI      8.6005472350     2.1280835410     1.1900000730
NI      9.8291968400     4.2561670810     1.1900000730
NI     11.0578464450     6.3842506220     1.1900000730
NI     12.2864960500     8.5123341620     1.1900000730
NI      9.8291968400     0.0000000000     1.1900000730
NI     11.0578464450     2.1280835410     1.1900000730
NI     12.2864960500     4.2561670810     1.1900000730
NI     13.5151456550     6.3842506220     1.1900000730
NI     14.7437952600     8.5123341620     1.1900000730
NI      1.2284999087     0.7072799361     3.2006723859
NI      2.4572223325     2.8353131934     3.2013070360
NI      3.6847066952     4.9629991861     3.1970328715
NI      4.9148809516     7.0928966813     3.1967351299
NI      6.1434457070     9.2210215170     3.1991711799
NI      3.6851481971     0.7080542614     3.2005155909
NI      4.9186541924     2.8393905658     3.2058213453
NI      6.1457137987     4.9624995857     3.2057262306
NI      7.3719239244     7.0863697855     3.2058391703
NI      8.5987865447     9.2184585147     3.2018128286
NI      6.1422648809     0.7087123527     3.1987503018
NI      7.3723167255     2.8402985088     3.2071239624
NI      8.5988583275     4.9621891962     3.2074855615
NI      9.8272896275     7.0914026164     3.2004585048
NI     11.0571870826     9.2199983675     3.2013018394
NI      8.6015135711     0.7087861807     3.1985764071
NI      9.8236569371     2.8388301849     3.2079016456
NI     11.0568997338     4.9640599605     3.2012258626
NI     12.2860253207     7.0917905872     3.2017205759
NI     13.5153452310     9.2204055446     3.2018722162
NI     11.0568626858     0.7081387786     3.2013870244
NI     12.2848735563     2.8361044061     3.1999744079
NI     13.5144355267     4.9646503505     3.2024912405
NI     14.7443649928     7.0916363443     3.2016371612
NI     15.9736738747     9.2205050601     3.2013076904
NI      2.4558057807     1.4158770152     5.2110962108
NI      3.6857386087     3.5458156916     5.2113950647
NI      4.9245857427     5.6817260501     5.2178934459
NI      6.1430978797     7.7854609289     5.2238787015
NI      7.3697170623     9.9259340478     5.2152725256
NI      4.9136354682     1.4155676135     5.2093393496
NI      6.1509126939     3.5512533385     5.2370840554
NI      7.3574335718     5.6703695290     5.2530554279
NI      8.5972902996     7.7977273032     5.2149097746
NI      9.8287844074     9.9281564134     5.2114506495
NI      7.3710842781     1.4130185579     5.2034050957
NI      8.5876951835     3.5530526747     5.2434206861
NI      9.8271353356     5.6739880750     5.2118348592
NI     11.0570047678     7.8012886112     5.2121706369
NI     12.2853616191     9.9295979643     5.2145646959
NI      9.8286390808     1.4171892508     5.2098748071
NI     11.0567744449     3.5435097843     5.2127013015
NI     12.2851454623     5.6721608073     5.2126113773
NI     13.5144187998     7.8014337794     5.2127817455
NI     14.7433675658     9.9301272290     5.2120300743
NI     12.2854878836     1.4178197314     5.2126435022
NI     13.5124657879     3.5432250633     5.2119914982
NI     14.7462825859     5.6720910223     5.2154376297
NI     15.9745878573     7.8001507745     5.2131942314
NI     17.2023069027     9.9262452076     5.2153612066
NI     -0.0006009246    -0.0001145832     7.2264212011
NI      1.2268269492     2.1245764513     7.2237427651
NI      2.4505355633     4.2521595311     7.2276399821
NI      3.6625138697     6.3828663234     7.2173986642
NI      4.9022793114     8.5295423663     7.2188213963
NI      2.4566628052    -0.0012054053     7.2236615643
NI      3.6829314658     2.1226170185     7.2215728146
NI      4.9016330691     4.2382000720     7.2059160435
NI      6.1348812545     6.3845834948     7.3855238759
NI      7.3803607144     8.5269697647     7.2161909866
NI      4.9121265589    -0.0058696782     7.2255419319
NI      6.1437005257     2.1195694853     7.2186134837
NI      7.3780991910     4.2349542789     7.3355541588
NI      8.6212196411     6.3796379922     7.2170748282
NI      9.8322407990     8.5125304457     7.2281302133
NI      7.3709328735    -0.0055553204     7.2227077697
NI      8.5967632445     2.1222563675     7.2182179769
NI      9.8284959770     4.2542993641     7.2235464282
NI     11.0604382373     6.3827439965     7.2257575745
NI     12.2858112127     8.5093141801     7.2221891128
NI      9.8280596385    -0.0027746745     7.2263624243
NI     11.0573329434     2.1247989339     7.2219647092
NI     12.2866441048     4.2525316045     7.2250015906
NI     13.5116623881     6.3822671269     7.2234770533
NI     14.7391464719     8.5116561427     7.2237720713
O       6.1523539221     6.3735931471     9.1418881406
H       6.1413177584     6.3854562147    10.1023941911
102
Step 5 | ATOMIC_POSITIONS (angstrom) | Cartesian Angstrom
NI      0.0000000000     0.0000000000     1.1900000730
NI      1.2286496050     2.1280835410     1.1900000730
NI      2.4572992100     4.2561670810     1.1900000730
NI      3.6859488150     6.3842506220     1.1900000730
NI      4.9145984200     8.5123341620     1.1900000730
NI      2.4572992100     0.0000000000     1.1900000730
NI      3.6859488150     2.1280835410     1.1900000730
NI      4.9145984200     4.2561670810     1.1900000730
NI      6.1432480250     6.3842506220     1.1900000730
NI      7.3718976300     8.5123341620     1.1900000730
NI      4.9145984200     0.0000000000     1.1900000730
NI      6.1432480250     2.1280835410     1.1900000730
NI      7.3718976300     4.2561670810     1.1900000730
NI      8.6005472350     6.3842506220     1.1900000730
NI      9.8291968400     8.5123341620     1.1900000730
NI      7.3718976300     0.0000000000     1.1900000730
NI      8.6005472350     2.1280835410     1.1900000730
NI      9.8291968400     4.2561670810     1.1900000730
NI     11.0578464450     6.3842506220     1.1900000730
NI     12.2864960500     8.5123341620     1.1900000730
NI      9.8291968400     0.0000000000     1.1900000730
NI     11.0578464450     2.1280835410     1.1900000730
NI     12.2864960500     4.2561670810     1.1900000730
NI     13.5151456550     6.3842506220     1.1900000730
NI     14.7437952600     8.5123341620     1.1900000730
NI      1.2284440096     0.7072496417     3.2006782379
NI      2.4572550751     2.8353857892     3.2012872511
NI      3.6849638095     4.9631350489     3.1974176284
NI      4.9150579964     7.0927701849     3.1970980397
NI      6.1434821914     9.2206843827     3.1995883612
NI      3.6851369087     0.7080867603     3.2005108458
NI      4.9185402774     2.8394065026     3.2056610167
NI      6.1456863860     4.9627124712     3.2060456172
NI      7.3717744126     7.0864361427     3.2059475703
NI      8.5987247492     9.2184005260     3.2018101318
NI      6.1422737478     0.7087242999     3.1987008305
NI      7.3723133762     2.8403158262     3.2071294649
NI      8.5986342028     4.9623552030     3.2077725734
NI      9.8271857033     7.0913696366     3.2004647827
NI     11.0571749321     9.2199945891     3.2012373987
NI      8.6015061969     0.7088153512     3.1985650517
NI      9.8237226264     2.8388749688     3.2077610306
NI     11.0568173937     4.9640192791     3.2011992855
NI     12.2860279558     7.0917653553     3.2016802356
NI     13.5153406533     9.2204017048     3.2018146027
NI     11.0569127657     0.7081514496     3.2014022502
NI     12.2848409863     2.8360984821     3.1998493177
NI     13.5144993243     4.9646201572     3.2024271312
NI     14.7444287769     7.0916053066     3.2016546866
NI     15.9736827928     9.2204360414     3.2013241790
NI      2.4558030585     1.4158423802     5.2110188175
NI      3.6857067841     3.5459060786     5.2113790032
NI      4.9245343415     5.6815027123     5.2188308284
NI      6.1430748112     7.7856178498     5.2247244991
NI      7.3696266177     9.9261101220     5.2149441050
NI      4.9137380924     1.4157966932     5.2096464399
NI      6.1509741341     3.5511285721     5.2364305377
NI      7.3574613644     5.6701473769     5.2537360041
NI      8.5974249007     7.7977296509     5.2147547818
NI      9.8286427659     9.9281330722     5.2115161188
NI      7.3710765887     1.4134012112     5.2037947735
NI      8.5878115717     3.5531385668     5.2428289784
NI      9.8270183987     5.6737325735     5.2118117857
NI     11.0569397574     7.8012320432     5.2121701387
NI     12.2853629153     9.9295125478     5.2145013124
NI      9.8285081662     1.4172312928     5.2100394989
NI     11.0565835181     3.5436590353     5.2128852304
NI     12.2852167338     5.6721994938     5.2125378120
NI     13.5145111353     7.8013601599     5.2127532810
NI     14.7435142166     9.9299919069     5.2119777748
NI     12.2855324538     1.4176520317     5.2126228216
NI     13.5125845338     3.5432884624     5.2120571145
NI     14.7461424393     5.6719548331     5.2150739617
NI     15.9744021400     7.8002711852     5.2128475119
NI     17.2024047605     9.9264310674     5.2150475174
NI     -0.0006504812     0.0000097772     7.2264971208
NI      1.2268290478     2.1246348694     7.2237398026
NI      2.4506487841     4.2520694440     7.2276694820
NI      3.6633633610     6.3829471436     7.2169486130
NI      4.9025957529     8.5286865795     7.2182615148
NI      2.4567597423    -0.0010988702     7.2237908226
NI      3.6829997006     2.1226273900     7.2217808655
NI      4.9010484831     4.2388605625     7.2053158175
NI      6.1342395553     6.3856592433     7.3680020571
NI      7.3800977143     8.5261913606     7.2157329414
NI      4.9122832728    -0.0056590324     7.2255838303
NI      6.1431475107     2.1184120901     7.2182907916
NI      7.3780048046     4.2352931605     7.3342105344
NI      8.6208572101     6.3804382071     7.2165244194
NI      9.8322935321     8.5124778461     7.2280906558
NI      7.3708835253    -0.0053561245     7.2228874085
NI      8.5974949943     2.1212384941     7.2180477021
NI      9.8295971824     4.2542115435     7.2233639663
NI     11.0604197063     6.3826290173     7.2259764476
NI     12.2857854512     8.5093872984     7.2222719497
NI      9.8278830275    -0.0024254557     7.2265258356
NI     11.0571206034     2.1249346845     7.2221046637
NI     12.2864226264     4.2525292887     7.2249894842
NI     13.5115515713     6.3822146217     7.2236274299
NI     14.7390523699     8.5117275683     7.2238191016
O       6.1529790670     6.3731945467     9.1509988702
H       6.1409928671     6.3857305206    10.1118369869
102
Step 6 | ATOMIC_POSITIONS (angstrom) | Cartesian Angstrom
NI      0.0000000000     0.0000000000     1.1900000730
NI      1.2286496050     2.1280835410     1.1900000730
NI      2.4572992100     4.2561670810     1.1900000730
NI      3.6859488150     6.3842506220     1.1900000730
NI      4.9145984200     8.5123341620     1.1900000730
NI      2.4572992100     0.0000000000     1.1900000730
NI      3.6859488150     2.1280835410     1.1900000730
NI      4.9145984200     4.2561670810     1.1900000730
NI      6.1432480250     6.3842506220     1.1900000730
NI      7.3718976300     8.5123341620     1.1900000730
NI      4.9145984200     0.0000000000     1.1900000730
NI      6.1432480250     2.1280835410     1.1900000730
NI      7.3718976300     4.2561670810     1.1900000730
NI      8.6005472350     6.3842506220     1.1900000730
NI      9.8291968400     8.5123341620     1.1900000730
NI      7.3718976300     0.0000000000     1.1900000730
NI      8.6005472350     2.1280835410     1.1900000730
NI      9.8291968400     4.2561670810     1.1900000730
NI     11.0578464450     6.3842506220     1.1900000730
NI     12.2864960500     8.5123341620     1.1900000730
NI      9.8291968400     0.0000000000     1.1900000730
NI     11.0578464450     2.1280835410     1.1900000730
NI     12.2864960500     4.2561670810     1.1900000730
NI     13.5151456550     6.3842506220     1.1900000730
NI     14.7437952600     8.5123341620     1.1900000730
NI      1.2283507152     0.7071587617     3.2011140970
NI      2.4574331291     2.8355052979     3.2014630308
NI      3.6854436577     4.9634751964     3.1983833209