102
Step 1 | ATOMIC_POSITIONS (angstrom) | Cartesian Angstrom
NI      0.0000000000     0.0000000000     1.1900000730
NI      1.2286496050     2.1280835410     1.1900000730
NI      2.4572992100     4.2561670810     1.1900000730
NI      3.6859488150     6.3842506220     1.1900000730
NI      4.9145984200     8.5123341620     1.1900000730
NI      2.4572992100     0.0000000000     1.1900000730
NI      3.6859488150     2.1280835410     1.1900000730
NI      4.9145984200     4.2561670810     1.1900000730
NI      6.1432480250     6.3842506220     1.1900000730
NI      7.3718976300     8.5123341620     1.1900000730
NI      4.9145984200     0.0000000000     1.1900000730
NI      6.1432480250     2.1280835410     1.1900000730
NI      7.3718976300     4.2561670810     1.1900000730
NI      8.6005472350     6.3842506220     1.1900000730
NI      9.8291968400     8.5123341620     1.1900000730
NI      7.3718976300     0.0000000000     1.1900000730
NI      8.6005472350     2.1280835410     1.1900000730
NI      9.8291968400     4.2561670810     1.1900000730
NI     11.0578464450     6.3842506220     1.1900000730
NI     12.2864960500     8.5123341620     1.1900000730
NI      9.8291968400     0.0000000000     1.1900000730
NI     11.0578464450     2.1280835410     1.1900000730
NI     12.2864960500     4.2561670810     1.1900000730
NI     13.5151456550     6.3842506220     1.1900000730
NI     14.7437952600     8.5123341620     1.1900000730
NI      1.2282235944     0.7072934509     3.1987153004
NI      2.4568876045     2.8357528703     3.2002926664
NI      3.6859682420     4.9632994696     3.1976420624
NI      4.9154468066     7.0926184170     3.1978281261
NI      6.1437496507     9.2197452104     3.2000323211
NI      3.6855155513     0.7077117276     3.2004717553
NI      4.9183482406     2.8384905588     3.2026432998
NI      6.1463467128     4.9628810849     3.2066648493
NI      7.3723147972     7.0868221254     3.2043154164
NI      8.5997142227     9.2184949869     3.2016893235
NI      6.1421282787     0.7087144229     3.1978483605
NI      7.3723649119     2.8396465587     3.2060279469
NI      8.5976866933     4.9629418080     3.2074712853
NI      9.8272164504     7.0919086085     3.2000593615
NI     11.0573119480     9.2199942921     3.2008584520
NI      8.6011586614     0.7088215506     3.1981447521
NI      9.8244609426     2.8391608680     3.2041151540
NI     11.0563406206     4.9635233657     3.2001497633
NI     12.2860391879     7.0920043687     3.2011591015
NI     13.5152018115     9.2204803399     3.2013762693
NI     11.0575633267     0.7083766931     3.2002622403
NI     12.2849032291     2.8361018026     3.2010451423
NI     13.5145664773     4.9641132517     3.2011921530
NI     14.7439546203     7.0920050743     3.2012040102
NI     15.9728067162     9.2204926315     3.2011043514
NI      2.4550349036     1.4156965269     5.2116494613
NI      3.6846206156     3.5428376883     5.2091017201
NI      4.9146924981     5.6750734350     5.2050043177
NI      6.1441930699     7.7986627270     5.2110878498
NI      7.3708588085     9.9286706129     5.2139863882
NI      4.9124959240     1.4168376047     5.2097005996
NI      6.1553546593     3.5519875083     5.2393518962
NI      7.3697446024     5.6566171512     5.2466347287
NI      8.5979600997     7.7980169702     5.2149802552
NI      9.8283198401     9.9281765428     5.2130646768
NI      7.3711936059     1.4149350500     5.2027108685
NI      8.5850544324     3.5538331688     5.2440808696
NI      9.8283186980     5.6734704038     5.2096226742
NI     11.0570274660     7.8004965685     5.2131049651
NI     12.2856791321     9.9295666096     5.2132458681
NI      9.8299986185     1.4177412933     5.2085710191
NI     11.0556428117     3.5432398585     5.2126461593
NI     12.2851481237     5.6720505455     5.2131823738
NI     13.5146438789     7.8010692473     5.2136424849
NI     14.7438731737     9.9301210982     5.2131209688
NI     12.2860564449     1.4165613334     5.2140058446
NI     13.5132307921     3.5437152635     5.2134519558
NI     14.7437508762     5.6718934268     5.2137383011
NI     15.9730076037     7.8010710716     5.2130552147
NI     17.2013718190     9.9289194420     5.2140621317
NI     -0.0008028009    -0.0022280943     7.2268570197
NI      1.2270649409     2.1243843882     7.2243670391
NI      2.4508685419     4.2528972615     7.2288561300
NI      3.6776231423     6.3835102999     7.2261326635
NI      4.9102305675     8.5160560307     7.2255322706
NI      2.4556831422    -0.0025971595     7.2228194895
NI      3.6831123191     2.1239422351     7.2233130123
NI      4.8943433260     4.2534308428     7.1976185553
NI      6.1321718067     6.3911817050     7.2382263233
NI      7.3722071245     8.5137487534     7.2231554173
NI      4.9116531329    -0.0069973497     7.2280338268
NI      6.1376153846     2.1093178084     7.2028183196
NI      7.3716671997     4.2484601400     7.4049492848
NI      8.6102363339     6.3869108208     7.2164249698
NI      9.8300763608     8.5110590265     7.2264106056
NI      7.3714822545    -0.0066173307     7.2271473660
NI      8.6034992583     2.1122337846     7.2025742859
NI      9.8384305368     4.2560676822     7.2122094538
NI     11.0591747658     6.3824777313     7.2278645139
NI     12.2860675141     8.5091634287     7.2225866690
NI      9.8301322713    -0.0048717851     7.2275310828
NI     11.0562847032     2.1251098071     7.2261829278
NI     12.2868233293     4.2528311343     7.2260855267
NI     13.5136420183     6.3818799304     7.2225998000
NI     14.7420885349     8.5097803640     7.2218189452
O       6.1444116076     6.3827398301     9.2083520744
H       6.1431046558     6.3843122490    10.1788508335
