102
Step 1 | ATOMIC_POSITIONS (angstrom) | Cartesian Angstrom
NI      0.0000000000     0.0000000000     1.1900000730
NI      1.2286496050     2.1280835410     1.1900000730
NI      2.4572992100     4.2561670810     1.1900000730
NI      3.6859488150     6.3842506220     1.1900000730
NI      4.9145984200     8.5123341620     1.1900000730
NI      2.4572992100     0.0000000000     1.1900000730
NI      3.6859488150     2.1280835410     1.1900000730
NI      4.9145984200     4.2561670810     1.1900000730
NI      6.1432480250     6.3842506220     1.1900000730
NI      7.3718976300     8.5123341620     1.1900000730
NI      4.9145984200     0.0000000000     1.1900000730
NI      6.1432480250     2.1280835410     1.1900000730
NI      7.3718976300     4.2561670810     1.1900000730
NI      8.6005472350     6.3842506220     1.1900000730
NI      9.8291968400     8.5123341620     1.1900000730
NI      7.3718976300     0.0000000000     1.1900000730
NI      8.6005472350     2.1280835410     1.1900000730
NI      9.8291968400     4.2561670810     1.1900000730
NI     11.0578464450     6.3842506220     1.1900000730
NI     12.2864960500     8.5123341620     1.1900000730
NI      9.8291968400     0.0000000000     1.1900000730
NI     11.0578464450     2.1280835410     1.1900000730
NI     12.2864960500     4.2561670810     1.1900000730
NI     13.5151456550     6.3842506220     1.1900000730
NI     14.7437952600     8.5123341620     1.1900000730
NI      1.2229976558     0.7108461331     3.1986396213
NI      2.4527374616     2.8409282354     3.1981883704
NI      3.6812167587     4.9693157020     3.2000905834
NI      4.9139594324     7.0934850047     3.2089954152
NI      6.1372618314     9.2228439680     3.2005623137
NI      3.6802037617     0.7120503357     3.1990238953
NI      4.9106349543     2.8397408310     3.1998933381
NI      6.1337765713     4.9662894293     3.2080668863
NI      7.3663408871     7.1004517193     3.2084125009
NI      8.5961610914     9.2231957639     3.2002154021
NI      6.1376823110     0.7137723665     3.2007628766
NI      7.3664794943     2.8454133954     3.2082115418
NI      8.5983022807     4.9667154224     3.2087899731
NI      9.8191327316     7.0939227212     3.2085009498
NI     11.0506441631     9.2233591585     3.2012106750
NI      8.5956831158     0.7135369316     3.2007918939
NI      9.8218019001     2.8405840730     3.2001323629
NI     11.0513809225     4.9700059348     3.2002169473
NI     12.2797311210     7.0949959638     3.2016874184
NI     13.5100509939     9.2241614227     3.1998737315
NI     11.0527469530     0.7128250097     3.1988090958
NI     12.2795637101     2.8409664892     3.1979312162
NI     13.5091044892     4.9675437837     3.1990882237
NI     14.7400304907     7.0944509246     3.2010964550
NI     15.9694978266     9.2235376329     3.2006791196
NI      2.4484446398     1.4228846425     5.2069559867
NI      3.6780278221     3.5510862425     5.2074578419
NI      4.9144112473     5.6859719407     5.2325378729
NI      6.1329568401     7.7962905200     5.2336834412
NI      7.3636234787     9.9341234550     5.2080785884
NI      4.9065465989     1.4228044056     5.2089359507
NI      6.1446861032     3.5552460890     5.2327429155
NI      7.3619883539     5.6792082545     5.2193283579
NI      8.5928530599     7.7961220742     5.2331229202
NI      9.8207162249     9.9344447504     5.2094108525
NI      7.3637510935     1.4210523444     5.2077338803
NI      8.5813163112     3.5554238405     5.2336631061
NI      9.8112855125     5.6862512563     5.2333294764
NI     11.0510305521     7.8078298038     5.2086618492
NI     12.2778643775     9.9352815244     5.2148134675
NI      9.8203901294     1.4238220046     5.2093939950
NI     11.0487280234     3.5515932665     5.2079374525
NI     12.2770029506     5.6792577293     5.2105811593
NI     13.5071858507     7.8059274032     5.2151002771
NI     14.7366190847     9.9354721778     5.2144275396
NI     12.2782673307     1.4231717157     5.2072244349
NI     13.5064112948     3.5506574781     5.2070836436
NI     14.7350283438     5.6789651886     5.2097063957
NI     15.9625655861     7.8080422020     5.2078547756
NI     17.1927051462     9.9353887866     5.2090994353
NI     -0.0132798075     0.0114683197     7.2230398493
NI      1.2185704133     2.1330186449     7.2207148136
NI      2.4399500611     4.2603086507     7.2231520607
NI      3.6604060909     6.3917380593     7.2186579733
NI      4.8947248322     8.5297132300     7.2193137318
NI      2.4505004578     0.0117354903     7.2234872411
NI      3.6713544846     2.1267643756     7.2230853545
NI      4.8728534989     4.2426482517     7.1994438769
NI      6.0879040159     6.4148871554     7.3265597651
NI      7.3617082128     8.5540272115     7.2009807042
NI      4.9064110754     0.0031254631     7.2305501168
NI      6.1271657703     2.1181107978     7.2182709798
NI      7.3617407258     4.2084371720     7.3258435404
NI      8.6331325644     6.4132079663     7.3240179589
NI      9.8282774185     8.5290332955     7.2193147528
NI      7.3616109320     0.0006728579     7.2259832008
NI      8.5960047162     2.1185083602     7.2190537898
NI      9.8516529459     4.2418392122     7.2003796548
NI     11.0620630446     6.3912038084     7.2202843991
NI     12.2792784773     8.5190676942     7.2265613191
NI      9.8165297181     0.0039818237     7.2305495901
NI     11.0522412320     2.1264078416     7.2237070843
NI     12.2842274240     4.2602721565     7.2240518572
NI     13.5043036646     6.3921391747     7.2321635703
NI     14.7301559537     8.5195733564     7.2259375514
O       7.3608089644     5.6797674727     8.6347314210
H       7.3615491559     5.6910438670     9.6050919815
