168
Step 1 | ATOMIC_POSITIONS (angstrom) | Cartesian Angstrom
NI      0.0000000000     0.0000000000     1.5000000000
NI     15.9724448650     2.1280835410     1.5000000000
NI     17.2010944700     4.2561670810     1.5000000000
NI      3.6859488150     6.3842506220     1.5000000000
NI     19.6583936800     8.5123341620     1.5000000000
NI     20.8870432850    10.6404177020     1.5000000000
NI      2.4572992100     0.0000000000     1.5000000000
NI      3.6859488160     2.1280835410     1.5000000000
NI      4.9145984200     4.2561670810     1.5000000000
NI      6.1432480250     6.3842506220     1.5000000000
NI      7.3718976300     8.5123341620     1.5000000000
NI      8.6005472350    10.6404177020     1.5000000000
NI      4.9145984200     0.0000000000     1.5000000000
NI      6.1432480250     2.1280835410     1.5000000000
NI      7.3718976300     4.2561670810     1.5000000000
NI      8.6005472350     6.3842506220     1.5000000000
NI      9.8291968400     8.5123341620     1.5000000000
NI     11.0578464450    10.6404177020     1.5000000000
NI      7.3718976300     0.0000000000     1.5000000000
NI      8.6005472350     2.1280835410     1.5000000000
NI      9.8291968400     4.2561670810     1.5000000000
NI     11.0578464450     6.3842506220     1.5000000000
NI     12.2864960500     8.5123341620     1.5000000000
NI     13.5151456550    10.6404177020     1.5000000000
NI      9.8291968400     0.0000000000     1.5000000000
NI     11.0578464450     2.1280835410     1.5000000000
NI     12.2864960500     4.2561670810     1.5000000000
NI     13.5151456550     6.3842506220     1.5000000000
NI     14.7437952600     8.5123341620     1.5000000000
NI     15.9724448650    10.6404177020     1.5000000000
NI     12.2864960500     0.0000000000     1.5000000000
NI     13.5151456550     2.1280835410     1.5000000000
NI     14.7437952600     4.2561670810     1.5000000000
NI     15.9724448650     6.3842506220     1.5000000000
NI     17.2010944700     8.5123341620     1.5000000000
NI     18.4297440740    10.6404177020     1.5000000000
NI      1.2287466088     0.7094866927     3.5132050074
NI      2.4573609311     2.8371618686     3.5131703386
NI      3.6859859305     4.9654956196     3.5133726343
NI      4.9145489320     7.0936655059     3.5132107846
NI      6.1432536970     9.2216944750     3.5133147884
NI      7.3719462554    11.3498638775     3.5131586697
NI      3.6859058476     0.7094870022     3.5134535587
NI      4.9143687579     2.8371599603     3.5131989521
NI      6.1433950076     4.9654316160     3.5136516607
NI      7.3718549844     7.0936935668     3.5130806624
NI      8.6006119844     9.2216743715     3.5131998240
NI      9.8293171885    11.3497512643     3.5134610763
NI      6.1429909359     0.7093690724     3.5131881320
NI      7.3717857441     2.8374542385     3.5135573605
NI      8.6005271852     4.9655124420     3.5133535705
NI      9.8293188747     7.0938523453     3.5131062829
NI     11.0578269687     9.2221592041     3.5126880594
NI     12.2862855314    11.3498325558     3.5133303855
NI      8.6005064779     0.7093874737     3.5134476708
NI      9.8291900778     2.8374096643     3.5128752859
NI     11.0579311141     4.9654891146     3.5131319905
NI     12.2863959062     7.0938364022     3.5133842487
NI     13.5150807695     9.2217587114     3.5130043551
NI     14.7438065487    11.3498621503     3.5133177748
NI     11.0579156449     0.7093700607     3.5131498587
NI     12.2865944808     2.8374063256     3.5128687708
NI     13.5151826658     4.9653502262     3.5136505593
NI     14.7439904776     7.0936777497     3.5131396624
NI     15.9724238537     9.2216768323     3.5133896125
NI     17.2011390826    11.3497359044     3.5132577340
NI     13.5151851752     0.7094315550     3.5133410869
NI     14.7439235244     2.8373458543     3.5132944273
NI     15.9723236802     4.9653820874     3.5132530445
NI     17.2011012126     7.0936310882     3.5133474407
NI     18.4297864578     9.2217355294     3.5132633876
NI     19.6583897061    11.3497624289     3.5132826809
NI      2.4571573517     1.4186676755     5.5295266784
NI      3.6859871144     3.5468407094     5.5293575459
NI      4.9144574925     5.6749067926     5.5292949256
NI      6.1432840934     7.8030248025     5.5295152040
NI      7.3718970016     9.9310496115     5.5293488186
NI      8.6004945431    12.0592317235     5.5291492771
NI      4.9146320080     1.4186891425     5.5295194911
NI      6.1430277623     3.5468064545     5.5292586544
NI      7.3718122340     5.6747084727     5.5296608002
NI      8.6010476154     7.8027101010     5.5296723649
NI      9.8294262564     9.9312592672     5.5293951954
NI     11.0577794956    12.0590856717     5.5293332548
NI      7.3718547943     1.4184728124     5.5293535817
NI      8.6023405411     3.5477735102     5.5317583151
NI      9.8286943937     5.6754833843     5.5269388250
NI     11.0576066788     7.8002769114     5.5317424315
NI     12.2863584259     9.9311058880     5.5292772203
NI     13.5151891463    12.0592568606     5.5293116180
NI      9.8291808849     1.4188558065     5.5298156057
NI     11.0573997151     3.5458539505     5.5261835060
NI     12.2871149352     5.6757331564     5.5246426754
NI     13.5144580723     7.8030473434     5.5293855595
NI     14.7437479385     9.9310220497     5.5295190845
NI     15.9724036618    12.0590745679     5.5292526968
NI     12.2864573165     1.4189515422     5.5295734774
NI     13.5130413544     3.5479140235     5.5323537775
NI     14.7439954122     5.6744621226     5.5291032202
NI     15.9722496743     7.8029315380     5.5294727208
NI     17.2010968876     9.9310538647     5.5294256539
NI     18.4297704495    12.0591422505     5.5295083949
NI     14.7438789685     1.4185393789     5.5295129055
NI     15.9724074306     3.5469008542     5.5295097593
NI     17.2010715581     5.6748522759     5.5294327623
NI     18.4297390184     7.8029943069     5.5292559166
NI     19.6584009908     9.9310669952     5.5295126985
NI     20.8870305982    12.0591554666     5.5292590813
NI     -0.0002464269     0.0004249195     7.5423694252
NI     15.9725445234     2.1280329768     7.5426838516
NI     17.2006700002     4.2561622950     7.5423425651
NI      3.6859809858     6.3842204129     7.5424518881
NI     19.6582819333     8.5123405174     7.5425303963
NI     20.8870952925    10.6404384867     7.5425172894
NI      2.4573071147     0.0000595187     7.5424792793
NI      3.6860226203     2.1280694458     7.5424806337
NI      4.9147366267     4.2561943974     7.5425444521
NI      6.1439186549     6.3841446897     7.5429103869
NI      7.3722505194     8.5121700766     7.5430230167
NI      8.6009322393    10.6396161915     7.5424966607
NI      4.9146634939     0.0001339766     7.5425375253
NI      6.1429329529     2.1279330349     7.5426717394
NI      7.3722988655     4.2564131321     7.5431695377
NI      8.5925121704     6.3854693832     7.5374425293
NI      9.8255929591     8.5170127596     7.5378410067
NI     11.0578100406    10.6404104211     7.5428239437
NI      7.3720019877     0.0000641232     7.5425327450
NI      8.6009568905     2.1286930265     7.5428960385
NI      9.8131442997     4.2451235339     7.5324677769
NI     11.0427492063     6.4238077800     7.4762021425
NI     12.2907506098     8.5181814170     7.5384633129
NI     13.5147226812    10.6397117160     7.5425639892
NI      9.8291967152     0.0002804634     7.5426447098
NI     11.0571624351     2.1237188061     7.5407939402
NI     12.3134331143     4.2064919218     7.4866799754
NI     13.5323861850     6.3918279760     7.5315347284
NI     14.7430962061     8.5115651756     7.5431833121
NI     15.9725455686    10.6404663955     7.5425940412
NI     12.2865873486     0.0001273983     7.5426769012
NI     13.5151790425     2.1278047846     7.5423884446
NI     14.7458667371     4.2561916492     7.5430007211
NI     15.9712800672     6.3841474306     7.5431266963
NI     17.2012801846     8.5123983683     7.5425102986
NI     18.4296678065    10.6402851735     7.5425014347
O      11.1466879889     7.4585729242    11.8353169318
O      11.5891848313     3.8187383422    11.2745979232
O      10.7585505766     3.9899857709    14.0893166098
O      11.7001694988     6.3952579694    15.3298038781
O      13.0618043877     7.5787892865    13.1826874174
O      11.3283690399     5.1722830826     9.0360695406
C      11.0462504795     4.9853625085    11.8863154048
C      11.4414534538     5.0164996851    13.3760884265
C      11.5508983405     6.2520440368    11.1618362783
C      11.1141213318     6.3697197318    14.0079016570
C      11.6467443835     7.5332071688    13.1717509391
C      10.9768587110     6.3433762685     9.7849632365
H       9.9421398687     4.9269226388    11.8233202382
H      12.5251175341     4.8040613271    13.4575078333
H      12.6465969235     6.2163461455    11.0909122526
H      10.0183389088     6.4451947059    14.1253172533
H      11.2849481796     8.4851550694    13.5909382372
H       9.9017700639     6.3569268776     9.7379046208
H      11.3459686451     7.2617377818     9.2282209216
H      11.3232082653     3.8389744919    10.3362134888
H      11.0984887133     4.0430102751    15.0048632087
H      11.3028677055     7.1467457016    15.8065506880
H      13.3482714122     7.0722582516    13.9684869602
H      12.4225643967     5.3644287902     8.7275946363
