124
Step 1 | ATOMIC_POSITIONS (angstrom) | Cartesian Angstrom
NI      0.0000000000     0.0000000000     1.1900000730
NI      1.2286496050     2.1280835410     1.1900000730
NI      2.4572992100     4.2561670810     1.1900000730
NI      3.6859488150     6.3842506220     1.1900000730
NI      4.9145984200     8.5123341620     1.1900000730
NI      2.4572992100     0.0000000000     1.1900000730
NI      3.6859488150     2.1280835410     1.1900000730
NI      4.9145984200     4.2561670810     1.1900000730
NI      6.1432480250     6.3842506220     1.1900000730
NI      7.3718976300     8.5123341620     1.1900000730
NI      4.9145984200     0.0000000000     1.1900000730
NI      6.1432480250     2.1280835410     1.1900000730
NI      7.3718976300     4.2561670810     1.1900000730
NI      8.6005472350     6.3842506220     1.1900000730
NI      9.8291968400     8.5123341620     1.1900000730
NI      7.3718976300     0.0000000000     1.1900000730
NI      8.6005472350     2.1280835410     1.1900000730
NI      9.8291968400     4.2561670810     1.1900000730
NI     11.0578464450     6.3842506220     1.1900000730
NI     12.2864960500     8.5123341620     1.1900000730
NI      9.8291968400     0.0000000000     1.1900000730
NI     11.0578464450     2.1280835410     1.1900000730
NI     12.2864960500     4.2561670810     1.1900000730
NI     13.5151456550     6.3842506220     1.1900000730
NI     14.7437952600     8.5123341620     1.1900000730
NI      1.2286061181     0.7093413873     3.2004695115
NI      2.4574215793     2.8374643746     3.2006757867
NI      3.6861065269     4.9653900051     3.2004387022
NI      4.9147332381     7.0936248598     3.2004387832
NI      6.1432829118     9.2215788869     3.2006965448
NI      3.6859571954     0.7093666384     3.2005353841
NI      4.9143720414     2.8373142272     3.1996594270
NI      6.1432290123     4.9656505348     3.2003882421
NI      7.3718581362     7.0938586515     3.1997570601
NI      8.6005149929     9.2215689382     3.2005672484
NI      6.1431834933     0.7094797808     3.2005490303
NI      7.3717581820     2.8374120522     3.2006367150
NI      8.6005528801     4.9658123584     3.2002516123
NI      9.8290322823     7.0935767686     3.2006523262
NI     11.0578275431     9.2216608501     3.2005437533
NI      8.6006254595     0.7093412657     3.2004633290
NI      9.8293829639     2.8373742406     3.1999883330
NI     11.0577328850     4.9654646250     3.2003021425
NI     12.2864610953     7.0936114607     3.2006052312
NI     13.5151618598     9.2218163766     3.2006818585
NI     11.0579663181     0.7092107921     3.2002779693
NI     12.2865981894     2.8374187073     3.2005466056
NI     13.5150927076     4.9655233603     3.2005341104
NI     14.7438213184     7.0936165107     3.2005737318
NI     15.9724642195     9.2217242193     3.2004889664
NI      2.4571431630     1.4186318337     5.2133214754
NI      3.6862278141     3.5467160798     5.2136144006
NI      4.9151658783     5.6745882181     5.2136788718
NI      6.1434214871     7.8026802902     5.2136855246
NI      7.3718734437     9.9312099401     5.2132363001
NI      4.9147662056     1.4189635302     5.2135569604
NI      6.1446515411     3.5475995606     5.2135982948
NI      7.3718126550     5.6744551502     5.2124595868
NI      8.6002823641     7.8025356636     5.2137697771
NI      9.8292087784     9.9311006460     5.2133658063
NI      7.3720969875     1.4194967230     5.2134453313
NI      8.6000684353     3.5469520233     5.2122712327
NI      9.8286090096     5.6743805151     5.2136712061
NI     11.0579540879     7.8030410083     5.2132569681
NI     12.2865619953     9.9310436832     5.2132471964
NI      9.8291426582     1.4191266133     5.2131896368
NI     11.0574997106     3.5465195898     5.2133267882
NI     12.2865099269     5.6749736103     5.2130929063
NI     13.5151118314     7.8030409626     5.2133649801
NI     14.7437380357     9.9310596019     5.2131883802
NI     12.2866002037     1.4185749249     5.2133524083
NI     13.5149740618     3.5467746526     5.2136147125
NI     14.7437375609     5.6749333263     5.2132572144
NI     15.9723232080     7.8030727916     5.2133239129
NI     17.2010245009     9.9313028426     5.2135059860
NI     -0.0000654706     0.0000363185     7.2239913733
NI      1.2285746693     2.1281041094     7.2239395754
NI      2.4573574650     4.2561735179     7.2239249159
NI      3.6858798515     6.3842546921     7.2242814203
NI      4.9146854198     8.5123476693     7.2239121642
NI      2.4573560362    -0.0000240949     7.2238830443
NI      3.6862649863     2.1280430964     7.2242304865
NI      4.9104385748     4.2560912368     7.2215791519
NI      6.1410430693     6.3881858559     7.2205545396
NI      7.3718661290     8.5121915633     7.2241605893
NI      4.9148719137     0.0002341511     7.2245792790
NI      6.1411853206     2.1239391114     7.2210070923
NI      7.3700458277     4.2599146529     7.2296146758
NI      8.6027865406     6.3879472395     7.2209317374
NI      9.8292009264     8.5120143862     7.2240538241
NI      7.3718659081     0.0000584030     7.2253910288
NI      8.6008032440     2.1234203670     7.2241201432
NI      9.8364545721     4.2580341178     7.2173740553
NI     11.0577686436     6.3841049029     7.2247455387
NI     12.2864260295     8.5124622369     7.2237803090
NI      9.8290655577    -0.0000163797     7.2241744288
NI     11.0578583365     2.1282883983     7.2240459789
NI     12.2860779424     4.2563009820     7.2242687718
NI     13.5151065709     6.3842033569     7.2238483598
NI     14.7437704033     8.5124227895     7.2237342571
C       8.1180557439     3.4257576274     9.7392885675
C       7.8909760115     2.9086501588    11.1349295309
C       8.0607678128     4.0327529955    12.1871776964
C       8.0484692616     3.4512029797    13.6310339498
C       8.1516717409     4.5994168907    14.6589803028
C       8.0152382058     4.1219468062    16.1148682423
O       7.3654055803     4.2488022924     9.1710843920
O       6.6121763327     2.3268929989    11.2848332472
O       9.3299412254     4.6391950719    11.9832808903
O       6.7995442998     2.8105290131    13.8213300699
O       9.4239465977     5.2151068917    14.5010656847
O       6.6595494012     3.7366797025    16.3630732795
H       9.1242468884     3.1991303737     9.3062314476
H       8.6508039436     2.1582399680    11.2995605628
H       7.2427363425     4.7562977569    12.0257075418
H       8.8950885151     2.7364945993    13.8045579919
H       7.3542816143     5.3398848114    14.5080828749
H       8.7006002087     3.3175510143    16.3724434056
H       8.2788829325     4.9255590035    16.8216676248
H       6.4933599270     1.7436781600    10.5067990119
H       9.2234679327     5.2725288652    11.2518770546
H       6.9479728642     2.0008103564    14.3261018428
H       9.4135792431     5.9996217862    15.0800090627
H       6.6369784950     3.4442229086    17.2898494380
124
Step 2 | ATOMIC_POSITIONS (angstrom) | Cartesian Angstrom
NI      0.0000000000     0.0000000000     1.1900000730
NI      1.2286496050     2.1280835410     1.1900000730
NI      2.4572992100     4.2561670810     1.1900000730
NI      3.6859488150     6.3842506220     1.1900000730
NI      4.9145984200     8.5123341620     1.1900000730
NI      2.4572992100     0.0000000000     1.1900000730
NI      3.6859488150     2.1280835410     1.1900000730
NI      4.9145984200     4.2561670810     1.1900000730
NI      6.1432480250     6.3842506220     1.1900000730
NI      7.3718976300     8.5123341620     1.1900000730
NI      4.9145984200     0.0000000000     1.1900000730
NI      6.1432480250     2.1280835410     1.1900000730
NI      7.3718976300     4.2561670810     1.1900000730
NI      8.6005472350     6.3842506220     1.1900000730
NI      9.8291968400     8.5123341620     1.1900000730
NI      7.3718976300     0.0000000000     1.1900000730
NI      8.6005472350     2.1280835410     1.1900000730
NI      9.8291968400     4.2561670810     1.1900000730
NI     11.0578464450     6.3842506220     1.1900000730
NI     12.2864960500     8.5123341620     1.1900000730
NI      9.8291968400     0.0000000000     1.1900000730
NI     11.0578464450     2.1280835410     1.1900000730
NI     12.2864960500     4.2561670810     1.1900000730
NI     13.5151456550     6.3842506220     1.1900000730
NI     14.7437952600     8.5123341620     1.1900000730
NI      1.2286011001     0.7092978899     3.2005451708
NI      2.4575866144     2.8374911111     3.2011131722
NI      3.6862977483     4.9652307722     3.2004780080
NI      4.9148487668     7.0936687101     3.2005191166
NI      6.1433331578     9.2214137716     3.2012089471
NI      3.6859976849     0.7093124585     3.2007728991
NI      4.9140571177     2.8371034242     3.1985522320
NI      6.1431484793     4.9658190413     3.2002216080
NI      7.3718131347     7.0943013094     3.1987351079
NI      8.6005345400     9.2214149813     3.2008458060
NI      6.1430928763     0.7095942885     3.2007701544
NI      7.3715327959     2.8372905131     3.2008040698
NI      8.6005978398     4.9662390409     3.1998494359
NI      9.8288510975     7.0935739848     3.2010143617
NI     11.0578180973     9.2216290693     3.2007139313
NI      8.6006856997     0.7092790811     3.2005376696
NI      9.8296645748     2.8372666954     3.1992632624
NI     11.0575941563     4.9654200427     3.2001027152
NI     12.2864368494     7.0936712878     3.2008189009
NI     13.5151502349     9.2219560568     3.2010349794
NI     11.0581244681     0.7089671114     3.2001961534
NI     12.2867824262     2.8373919288     3.2007900421
NI     13.5150344319     4.9655639510     3.2006863117
NI     14.7438237922     7.0936509454     3.2007705553
NI     15.9724440650     9.2217403170     3.2006429061
NI      2.4569710829     1.4184802264     5.2133378231
NI      3.6865895549     3.5464823048     5.2138376131
NI      4.9158760761     5.6741443102     5.2139749942
NI      6.1436573851     7.8024559833     5.2139662134
NI      7.3718736298     9.9314269439     5.2131683965
NI      4.9148666382     1.4192543969     5.2136292598
NI      6.1468738931     3.5488206740     5.2143427752
NI      7.3717097964     5.6736954782     5.2113158661
NI      8.5999176911     7.8021076002     5.2141822074
NI      9.8292826691     9.9311681779     5.2134697836
NI      7.3724222220     1.4205386827     5.2135740472
NI      8.5991513758     3.5471806266     5.2112013943
NI      9.8278197592     5.6737942701     5.2137700673
NI     11.0581134381     7.8031510382     5.2131183624
NI     12.2866740735     9.9310796872     5.2131638994
NI      9.8290952547     1.4196783159     5.2128609581
NI     11.0572221514     3.5459355429     5.2128915707
NI     12.2864981157     5.6751315364     5.2127068396
NI     13.5150471704     7.8031665658     5.2133845225
NI     14.7435849530     9.9311159412     5.2130190221
NI     12.2867671881     1.4183373396     5.2134215746
NI     13.5147260876     3.5467369938     5.2140675311
NI     14.7436800911     5.6750288281     5.2131069200
NI     15.9721177893     7.8032095669     5.2132879753
NI     17.2008727239     9.9316527653     5.2138255726
NI     -0.0001511396     0.0001104400     7.2240973025
NI      1.2284879133     2.1281033738     7.2239340303
NI      2.4571960767     4.2561893133     7.2239294460
NI      3.6855783237     6.3843810680     7.2248299937
NI      4.9146412724     8.5126254063     7.2238761938
NI      2.4574738633    -0.0000708905     7.2237657664
NI      3.6865779677     2.1278583085     7.2247490035
NI      4.9042059674     4.2558944282     7.2178129610
NI      6.1376683014     6.3942274125     7.2152014365
NI      7.3718547266     8.5122143486     7.2245444613
NI      4.9151843191     0.0003675949     7.2256456811
NI      6.1381534852     2.1179225772     7.2162379127
NI      7.3678163513     4.2653362328     7.2375407409
NI      8.6061340355     6.3934830845     7.2161029105
NI      9.8293660903     8.5118172866     7.2242043985
NI      7.3717860112    -0.0000126975     7.2277298728
NI      8.6015537778     2.1167491682     7.2233338323
NI      9.8468013051     4.2605356871     7.2071196527
NI     11.0579201738     6.3841930773     7.2260312883
NI     12.2863196563     8.5126857211     7.2234506400
NI      9.8289015876    -0.0001434111     7.2246563570
NI     11.0577806594     2.1284882383     7.2243570584
NI     12.2859038404     4.2565190796     7.2247810207
NI     13.5150376811     6.3841703690     7.2236403605
NI     14.7436929000     8.5125744422     7.2233440812
C       8.1406102612     3.4556460480     9.7653489397
C       7.8766956025     2.8869249578    11.1311505563
C       8.0710208205     4.0187983934    12.1738043334
C       8.0382515165     3.4721664465    13.6381152558
C       8.1622879900     4.6051366571    14.6864452841
C       8.0078201885     4.1191249780    16.1317290960
O       7.3561849251     4.2361006325     9.1833209659
O       6.5884136385     2.3220562788    11.2660881852
O       9.3394596094     4.6441719039    11.9685016142
O       6.7952726224     2.8026616455    13.8171291960
O       9.4396936642     5.2251744795    14.5123835787
O       6.6474498765     3.7304088432    16.3715582816
H       9.1234646126     3.1926278287     9.2959757799
H       8.6732587835     2.1510136225    11.3064899241
H       7.2401566400     4.7501333169    12.0410640752
H       8.8885634498     2.7539522197    13.7903754554
H       7.3442368080     5.3314789147    14.4946321817
H       8.7132128610     3.3023249325    16.3585320569
H       8.2845440515     4.9420596271    16.8079852755
H       6.4855896876     1.7392183400    10.5051440827
H       9.2291403334     5.2780578836    11.2510883097
H       6.9425812241     1.9977259096    14.3320822741
H       9.4191471233     6.0013369343    15.0804837099
H       6.6306615891     3.4439521743    17.2927648682
