168
Step 1 | ATOMIC_POSITIONS (angstrom) | Cartesian Angstrom
NI      0.0000000000     0.0000000000     1.5000000000
NI     15.9724448650     2.1280835410     1.5000000000
NI     17.2010944700     4.2561670810     1.5000000000
NI      3.6859488150     6.3842506220     1.5000000000
NI     19.6583936800     8.5123341620     1.5000000000
NI     20.8870432850    10.6404177020     1.5000000000
NI      2.4572992100     0.0000000000     1.5000000000
NI      3.6859488160     2.1280835410     1.5000000000
NI      4.9145984200     4.2561670810     1.5000000000
NI      6.1432480250     6.3842506220     1.5000000000
NI      7.3718976300     8.5123341620     1.5000000000
NI      8.6005472350    10.6404177020     1.5000000000
NI      4.9145984200     0.0000000000     1.5000000000
NI      6.1432480250     2.1280835410     1.5000000000
NI      7.3718976300     4.2561670810     1.5000000000
NI      8.6005472350     6.3842506220     1.5000000000
NI      9.8291968400     8.5123341620     1.5000000000
NI     11.0578464450    10.6404177020     1.5000000000
NI      7.3718976300     0.0000000000     1.5000000000
NI      8.6005472350     2.1280835410     1.5000000000
NI      9.8291968400     4.2561670810     1.5000000000
NI     11.0578464450     6.3842506220     1.5000000000
NI     12.2864960500     8.5123341620     1.5000000000
NI     13.5151456550    10.6404177020     1.5000000000
NI      9.8291968400     0.0000000000     1.5000000000
NI     11.0578464450     2.1280835410     1.5000000000
NI     12.2864960500     4.2561670810     1.5000000000
NI     13.5151456550     6.3842506220     1.5000000000
NI     14.7437952600     8.5123341620     1.5000000000
NI     15.9724448650    10.6404177020     1.5000000000
NI     12.2864960500     0.0000000000     1.5000000000
NI     13.5151456550     2.1280835410     1.5000000000
NI     14.7437952600     4.2561670810     1.5000000000
NI     15.9724448650     6.3842506220     1.5000000000
NI     17.2010944700     8.5123341620     1.5000000000
NI     18.4297440740    10.6404177020     1.5000000000
NI      1.2286639101     0.7094397296     3.5132482331
NI      2.4573659974     2.8374187086     3.5136176841
NI      3.6859895968     4.9654187300     3.5132276402
NI      4.9145273244     7.0936094084     3.5132804905
NI      6.1432762178     9.2216791309     3.5133134202
NI      7.3718876828    11.3497332733     3.5132691238
NI      3.6859272126     0.7096057855     3.5133596026
NI      4.9143542403     2.8373673234     3.5135266548
NI      6.1435114432     4.9655432252     3.5137764080
NI      7.3719141064     7.0935718864     3.5132111588
NI      8.6005247629     9.2216080655     3.5131113392
NI      9.8292436901    11.3496556484     3.5137258196
NI      6.1431442647     0.7093690044     3.5130586789
NI      7.3720092753     2.8376251187     3.5136327474
NI      8.6000362877     4.9652260026     3.5122619075
NI      9.8293149301     7.0935876145     3.5135791317
NI     11.0579317156     9.2218782039     3.5125969699
NI     12.2864553976    11.3497051073     3.5135701847
NI      8.6004939665     0.7093633642     3.5133981537
NI      9.8292800342     2.8375664402     3.5132917517
NI     11.0577935943     4.9658982982     3.5138378463
NI     12.2862942395     7.0935817313     3.5135123636
NI     13.5150466143     9.2215218018     3.5134746075
NI     14.7437842057    11.3497731618     3.5133654221
NI     11.0578535776     0.7094320741     3.5133097562
NI     12.2866115531     2.8372901372     3.5129432561
NI     13.5155781031     4.9654030013     3.5127996672
NI     14.7438731352     7.0935220064     3.5128744714
NI     15.9724044514     9.2216404702     3.5133025255
NI     17.2011704448    11.3496860889     3.5133072886
NI     13.5152352273     0.7093918932     3.5132143578
NI     14.7438218800     2.8374771072     3.5130463629
NI     15.9723311324     4.9655825375     3.5134363130
NI     17.2011405721     7.0935409958     3.5133876338
NI     18.4297535473     9.2217430182     3.5132496246
NI     19.6583388258    11.3496587254     3.5133408672
NI      2.4572127338     1.4187235876     5.5291754425
NI      3.6859542330     3.5468561521     5.5292882549
NI      4.9143034612     5.6749089779     5.5291895285
NI      6.1433070922     7.8030371973     5.5294991862
NI      7.3718737445     9.9310237288     5.5294391517
NI      8.6004694857    12.0594004662     5.5291727068
NI      4.9146588343     1.4186970054     5.5293803561
NI      6.1433112642     3.5468016597     5.5294896378
NI      7.3721586241     5.6747979562     5.5297250149
NI      8.6010081203     7.8026755175     5.5297477011
NI      9.8293845414     9.9308973871     5.5297039019
NI     11.0577985937    12.0591460126     5.5294540342
NI      7.3718920687     1.4185226826     5.5292954413
NI      8.6006727200     3.5472798854     5.5298798720
NI      9.8306107318     5.6756861438     5.5282662355
NI     11.0577070671     7.8033889306     5.5264599193
NI     12.2862010465     9.9307433164     5.5297286461
NI     13.5152815447    12.0593602126     5.5293443372
NI      9.8293483778     1.4187040747     5.5296038579
NI     11.0580215903     3.5472829271     5.5295497698
NI     12.2861352264     5.6750387579     5.5256495592
NI     13.5147113776     7.8025587859     5.5301565975
NI     14.7438827464     9.9310552775     5.5294517065
NI     15.9724443997    12.0591806657     5.5293752921
NI     12.2863422856     1.4188964837     5.5293855621
NI     13.5153181305     3.5472164436     5.5295710531
NI     14.7434632858     5.6743962157     5.5293001216
NI     15.9723104846     7.8030312841     5.5293609173
NI     17.2010954596     9.9310312268     5.5292827034
NI     18.4297679414    12.0591631989     5.5293097544
NI     14.7437920927     1.4186294141     5.5294670474
NI     15.9724188703     3.5468627179     5.5296589540
NI     17.2011914459     5.6749014711     5.5293803873
NI     18.4296912259     7.8029800476     5.5293995253
NI     19.6583854072     9.9310484978     5.5294412392
NI     20.8870032253    12.0592293099     5.5292811271
NI     -0.0000941211     0.0000801504     7.5425077344
NI     15.9725042726     2.1279952400     7.5425410123
NI     17.2012159055     4.2561480945     7.5426474135
NI      3.6859454212     6.3843262612     7.5425281009
NI     19.6582120536     8.5123754600     7.5425820532
NI     20.8869341122    10.6405342030     7.5425357342
NI      2.4573031831     0.0001066617     7.5425251743
NI      3.6859451958     2.1281281964     7.5426362323
NI      4.9144339438     4.2560757493     7.5426395877
NI      6.1439602741     6.3842272426     7.5426014085
NI      7.3718969353     8.5124272169     7.5426084185
NI      8.6008589410    10.6398031310     7.5426246495
NI      4.9146199779     0.0001702745     7.5425438916
NI      6.1430200223     2.1279628455     7.5425520724
NI      7.3721976653     4.2561095721     7.5429219922
NI      8.5934102422     6.3839070310     7.5392117217
NI      9.8255510755     8.5187807491     7.5380202365
NI     11.0579295455    10.6406792037     7.5427975437
NI      7.3719900181    -0.0000049415     7.5424611522
NI      8.6011040873     2.1289604288     7.5431666360
NI      9.8255143661     4.2495209621     7.5394832966
NI     11.0481634138     6.3887873374     7.4305442588
NI     12.2898961648     8.5186052058     7.5385512443
NI     13.5146679847    10.6394610394     7.5428039383
NI      9.8291474558    -0.0000326890     7.5426367508
NI     11.0576151313     2.1277155668     7.5430488843
NI     12.2852327534     4.2507747750     7.5481021793
NI     13.5271359000     6.3871901986     7.5345627995
NI     14.7439553074     8.5125227894     7.5429974171
NI     15.9724808007    10.6405343493     7.5425354534
NI     12.2865869379    -0.0000732738     7.5426335917
NI     13.5148638271     2.1283623824     7.5424314390
NI     14.7449028054     4.2558876410     7.5419278047
NI     15.9712696173     6.3842241480     7.5428261324
NI     17.2012598923     8.5123184362     7.5426206311
NI     18.4297217189    10.6404127217     7.5425102541
C      11.8054974052     5.5839341727     9.7637998953
C      11.5702313823     5.1024701312    11.1414414010
C      11.7402841022     6.2263522826    12.1944305260
C      11.7276002220     5.6445105035    13.6384279563
C      11.8309876537     6.7927767611    14.6663282128
C      11.6944498880     6.3152720344    16.1222406444
O      11.0349043381     6.4675681326     9.2826041824
O      10.2916643623     4.5217450378    11.2938850289
O      13.0087501405     6.8323588627    11.9910133215
O      10.4790501802     5.0039640212    13.8285009238
O      13.1032919588     7.4084589787    14.5082406032
O      10.3390543583     5.9300531645    16.3702293496
H      12.8131855151     5.3972337528     9.3174802756
H      12.3302593825     4.3520912344    11.3059730183
H      10.9220869842     6.9498802375    12.0332668936
H      12.5744675767     4.9298528058    13.8117913261
H      11.0336423048     7.5332341330    14.5153546750
H      12.3799722463     5.5109259994    16.3797117084
H      11.9582446059     7.1188883781    16.8288988516
H      10.1732482932     3.9360009873    10.5127140151
H      12.9031207787     7.4658275878    11.2587387034
H      10.6272769337     4.1941358718    14.3334396242
H      13.0929592033     8.1929617027    15.0873171569
H      10.3163066749     5.6375771292    17.2971333241
168
Step 2 | ATOMIC_POSITIONS (angstrom) | Cartesian Angstrom
NI      0.0000000000     0.0000000000     1.5000000000
NI     15.9724448650     2.1280835410     1.5000000000
NI     17.2010944700     4.2561670810     1.5000000000
NI      3.6859488150     6.3842506220     1.5000000000
NI     19.6583936800     8.5123341620     1.5000000000
NI     20.8870432850    10.6404177020     1.5000000000
NI      2.4572992100     0.0000000000     1.5000000000
NI      3.6859488160     2.1280835410     1.5000000000
NI      4.9145984200     4.2561670810     1.5000000000
NI      6.1432480250     6.3842506220     1.5000000000
NI      7.3718976300     8.5123341620     1.5000000000
NI      8.6005472350    10.6404177020     1.5000000000
NI      4.9145984200     0.0000000000     1.5000000000
NI      6.1432480250     2.1280835410     1.5000000000
NI      7.3718976300     4.2561670810     1.5000000000
NI      8.6005472350     6.3842506220     1.5000000000
NI      9.8291968400     8.5123341620     1.5000000000
NI     11.0578464450    10.6404177020     1.5000000000
NI      7.3718976300     0.0000000000     1.5000000000
NI      8.6005472350     2.1280835410     1.5000000000
NI      9.8291968400     4.2561670810     1.5000000000
NI     11.0578464450     6.3842506220     1.5000000000
NI     12.2864960500     8.5123341620     1.5000000000
NI     13.5151456550    10.6404177020     1.5000000000
NI      9.8291968400     0.0000000000     1.5000000000
NI     11.0578464450     2.1280835410     1.5000000000
NI     12.2864960500     4.2561670810     1.5000000000
NI     13.5151456550     6.3842506220     1.5000000000
NI     14.7437952600     8.5123341620     1.5000000000
NI     15.9724448650    10.6404177020     1.5000000000
NI     12.2864960500     0.0000000000     1.5000000000
NI     13.5151456550     2.1280835410     1.5000000000
NI     14.7437952600     4.2561670810     1.5000000000
NI     15.9724448650     6.3842506220     1.5000000000
NI     17.2010944700     8.5123341620     1.5000000000
NI     18.4297440740    10.6404177020     1.5000000000
NI      1.2286853227     0.7094667550     3.5132197962
NI      2.4573825210     2.8373981592     3.5139423565
NI      3.6860606306     4.9652781973     3.5131168805
NI      4.9145209978     7.0936151193     3.5132310429
NI      6.1433342346     9.2216614292     3.5133829003
NI      7.3718988823    11.3497015484     3.5132691133
NI      3.6858928962     0.7097840149     3.5134471056
NI      4.9141977683     2.8373026731     3.5137276062
NI      6.1438127806     4.9655155563     3.5142950421
NI      7.3719131363     7.0935618920     3.5131483465
NI      8.6004874671     9.2215618978     3.5129725359
NI      9.8293381469    11.3495080810     3.5142326470
NI      6.1430526371     0.7094020896     3.5128004450
NI      7.3720684009     2.8378245275     3.5140012540
NI      8.5995753297     4.9649330457     3.5114138940
NI      9.8291818542     7.0936083140     3.5131836078
NI     11.0579751914     9.2221756231     3.5119722554
NI     12.2863509551    11.3496281036     3.5139404097
NI      8.6004396443     0.7093347834     3.5134637759
NI      9.8293475624     2.8376428432     3.5133138378
NI     11.0576587988     4.9660194206     3.5137380761
NI     12.2863034546     7.0936763621     3.5129978952
NI     13.5149708523     9.2213912195     3.5137189926
NI     14.7437616607    11.3498146671     3.5133975523
NI     11.0578456640     0.7095136280     3.5134064961
NI     12.2867463280     2.8371084887     3.5127122884
NI     13.5160255821     4.9651587010     3.5123778779
NI     14.7439560276     7.0934889105     3.5125552588
NI     15.9723508120     9.2216174592     3.5133523702
NI     17.2012254037    11.3496438180     3.5133445570
NI     13.5153422701     0.7093816840     3.5131882800
NI     14.7438966779     2.8374808532     3.5128231248
NI     15.9722395801     4.9655651550     3.5136621646
NI     17.2011916309     7.0934655436     3.5134581120
NI     18.4297810737     9.2217911417     3.5132273702
NI     19.6583229689    11.3495821181     3.5134321602
NI      2.4571433570     1.4187307905     5.5291136675
NI      3.6859762315     3.5468562206     5.5293051711
NI      4.9140680689     5.6748863123     5.5290873834
NI      6.1432894089     7.8031391625     5.5295706710
NI      7.3717896900     9.9311004479     5.5294944524
NI      8.6003978838    12.0596485779     5.5290682293
NI      4.9146953798     1.4186667997     5.5294103959
NI      6.1432341231     3.5467020677     5.5295544614
NI      7.3722416758     5.6745876381     5.5295448349
NI      8.6012035561     7.8024922374     5.5299058976
NI      9.8295054224     9.9310551262     5.5296345771
NI     11.0577627541    12.0593385524     5.5294400607
NI      7.3719190547     1.4184093764     5.5292690043
NI      8.6005945070     3.5475612569     5.5297608855
NI      9.8283041428     5.6740812150     5.5219512701
NI     11.0577697008     7.8076253435     5.5190510708
NI     12.2859535073     9.9307515162     5.5296245098
NI     13.5153814836    12.0595476678     5.5293308992
NI      9.8294862342     1.4186583971     5.5297744730
NI     11.0583767243     3.5475828145     5.5299583001
NI     12.2889145233     5.6730955551     5.5184977692
NI     13.5144720464     7.8023884662     5.5305268334
NI     14.7439951092     9.9311580969     5.5295222298
NI     15.9724746152    12.0592503199     5.5294587999
NI     12.2862377591     1.4190048293     5.5293707845
NI     13.5154715780     3.5475890359     5.5295850552
NI     14.7434605879     5.6736732821     5.5284258320
NI     15.9722303455     7.8031019807     5.5293282000
NI     17.2011189492     9.9310644045     5.5292444678
NI     18.4297872375    12.0592012483     5.5292709016
NI     14.7437558652     1.4186162143     5.5295841752
NI     15.9725469434     3.5467865723     5.5297892704
NI     17.2012437992     5.6748669924     5.5294194127
NI     18.4296443673     7.8030050866     5.5295018204
NI     19.6583638324     9.9310902504     5.5295260660
NI     20.8869433834    12.0593464315     5.5292946977
NI     -0.0001374148     0.0001894506     7.5423966286
NI     15.9725082072     2.1278635439     7.5424838951
NI     17.2013699838     4.2561401142     7.5427085312
NI      3.6858785900     6.3843194004     7.5423853712
NI     19.6580437633     8.5124022924     7.5425744850
NI     20.8868982694    10.6406739076     7.5424735492
NI      2.4572867747     0.0001783787     7.5424281074
NI      3.6859123570     2.1281375267     7.5426111995
NI      4.9142664612     4.2560384619     7.5426556523
NI      6.1441179496     6.3842046025     7.5426598993
NI      7.3715978262     8.5126674399     7.5426588766
NI      8.6008647884    10.6397455219     7.5427273364
NI      4.9146793010     0.0003144579     7.5424681019
NI      6.1428922414     2.1277939648     7.5424472430
NI      7.3722718997     4.2558772516     7.5433585244
NI      8.5868909474     6.3832506500     7.5363902926
NI      9.8222867856     8.5252067259     7.5335911716
NI     11.0579664874    10.6411917459     7.5431885061
NI      7.3719983556     0.0000010932     7.5422153868
NI      8.6013811548     2.1292934802     7.5438988898
NI      9.8220790865     4.2434939118     7.5366054051
NI     11.0426298395     6.3937493675     7.4204550416
NI     12.2926719590     8.5238845255     7.5348575188
NI     13.5145193437    10.6390303564     7.5431272575
NI      9.8291103345    -0.0000418379     7.5426549501
NI     11.0574048033     2.1272403822     7.5438102582
NI     12.2839417268     4.2464657981     7.5534304951
NI     13.5379212468     6.3897040844     7.5263947398
NI     14.7443701373     8.5130179873     7.5435466423
NI     15.9724852207    10.6406887698     7.5424357761
NI     12.2866586881    -0.0001170013     7.5426438775
NI     13.5146765459     2.1284375121     7.5424074607
NI     14.7458679266     4.2554851589     7.5413241869
NI     15.9708863887     6.3842200540     7.5431208251
NI     17.2014181447     8.5122899458     7.5426565664
NI     18.4296626619    10.6404421637     7.5424018609
C      11.8082275974     5.6008077697     9.7794647739
C      11.5643882881     5.0811371065    11.1518744487
C      11.7498890958     6.2153420026    12.1900490184
C      11.7212136776     5.6582370944    13.6408611662
C      11.8404235969     6.7912695969    14.6829237733
C      11.6848481606     6.3172290978    16.1281668592
O      11.0322588004     6.4701898825     9.3102256181
O      10.2747761448     4.5142670894    11.2758887853
O      13.0131987301     6.8373556552    11.9785407448
O      10.4765711827     4.9986586971    13.8260959883
O      13.1120675737     7.4178035559    14.5188816548
O      10.3340142820     5.9254943343    16.3785981983
H      12.8208565218     5.3959701569     9.3134148666
H      12.3477653623     4.3417679846    11.3151130061
H      10.9196086213     6.9463449140    12.0421533008
H      12.5694364703     4.9425801264    13.8023235828
H      11.0256855353     7.5295393916    14.5069729153
H      12.3902322540     5.4979867472    16.3714193787
H      11.9622991434     7.1304550179    16.8215036402
H      10.1680381844     3.9354323930    10.5155037667
H      12.9078495226     7.4680434016    11.2597255442
H      10.6234446396     4.1925517208    14.3374158850
H      13.0976979142     8.1925751042    15.0861608560
H      10.3110471679     5.6376259038    17.2978677497
