168
Step 1 | ATOMIC_POSITIONS (angstrom) | Cartesian Angstrom
NI      0.0000000000     0.0000000000     1.5000000000
NI     15.9724448650     2.1280835410     1.5000000000
NI     17.2010944700     4.2561670810     1.5000000000
NI      3.6859488150     6.3842506220     1.5000000000
NI     19.6583936800     8.5123341620     1.5000000000
NI     20.8870432850    10.6404177020     1.5000000000
NI      2.4572992100     0.0000000000     1.5000000000
NI      3.6859488160     2.1280835410     1.5000000000
NI      4.9145984200     4.2561670810     1.5000000000
NI      6.1432480250     6.3842506220     1.5000000000
NI      7.3718976300     8.5123341620     1.5000000000
NI      8.6005472350    10.6404177020     1.5000000000
NI      4.9145984200     0.0000000000     1.5000000000
NI      6.1432480250     2.1280835410     1.5000000000
NI      7.3718976300     4.2561670810     1.5000000000
NI      8.6005472350     6.3842506220     1.5000000000
NI      9.8291968400     8.5123341620     1.5000000000
NI     11.0578464450    10.6404177020     1.5000000000
NI      7.3718976300     0.0000000000     1.5000000000
NI      8.6005472350     2.1280835410     1.5000000000
NI      9.8291968400     4.2561670810     1.5000000000
NI     11.0578464450     6.3842506220     1.5000000000
NI     12.2864960500     8.5123341620     1.5000000000
NI     13.5151456550    10.6404177020     1.5000000000
NI      9.8291968400     0.0000000000     1.5000000000
NI     11.0578464450     2.1280835410     1.5000000000
NI     12.2864960500     4.2561670810     1.5000000000
NI     13.5151456550     6.3842506220     1.5000000000
NI     14.7437952600     8.5123341620     1.5000000000
NI     15.9724448650    10.6404177020     1.5000000000
NI     12.2864960500     0.0000000000     1.5000000000
NI     13.5151456550     2.1280835410     1.5000000000
NI     14.7437952600     4.2561670810     1.5000000000
NI     15.9724448650     6.3842506220     1.5000000000
NI     17.2010944700     8.5123341620     1.5000000000
NI     18.4297440740    10.6404177020     1.5000000000
NI      1.2287466088     0.7094866927     3.5132050074
NI      2.4573609311     2.8371618686     3.5131703386
NI      3.6859859305     4.9654956196     3.5133726343
NI      4.9145489320     7.0936655059     3.5132107846
NI      6.1432536970     9.2216944750     3.5133147884
NI      7.3719462554    11.3498638775     3.5131586697
NI      3.6859058476     0.7094870022     3.5134535587
NI      4.9143687579     2.8371599603     3.5131989521
NI      6.1433950076     4.9654316160     3.5136516607
NI      7.3718549844     7.0936935668     3.5130806624
NI      8.6006119844     9.2216743715     3.5131998240
NI      9.8293171885    11.3497512643     3.5134610763
NI      6.1429909359     0.7093690724     3.5131881320
NI      7.3717857441     2.8374542385     3.5135573605
NI      8.6005271852     4.9655124420     3.5133535705
NI      9.8293188747     7.0938523453     3.5131062829
NI     11.0578269687     9.2221592041     3.5126880594
NI     12.2862855314    11.3498325558     3.5133303855
NI      8.6005064779     0.7093874737     3.5134476708
NI      9.8291900778     2.8374096643     3.5128752859
NI     11.0579311141     4.9654891146     3.5131319905
NI     12.2863959062     7.0938364022     3.5133842487
NI     13.5150807695     9.2217587114     3.5130043551
NI     14.7438065487    11.3498621503     3.5133177748
NI     11.0579156449     0.7093700607     3.5131498587
NI     12.2865944808     2.8374063256     3.5128687708
NI     13.5151826658     4.9653502262     3.5136505593
NI     14.7439904776     7.0936777497     3.5131396624
NI     15.9724238537     9.2216768323     3.5133896125
NI     17.2011390826    11.3497359044     3.5132577340
NI     13.5151851752     0.7094315550     3.5133410869
NI     14.7439235244     2.8373458543     3.5132944273
NI     15.9723236802     4.9653820874     3.5132530445
NI     17.2011012126     7.0936310882     3.5133474407
NI     18.4297864578     9.2217355294     3.5132633876
NI     19.6583897061    11.3497624289     3.5132826809
NI      2.4571573517     1.4186676755     5.5295266784
NI      3.6859871144     3.5468407094     5.5293575459
NI      4.9144574925     5.6749067926     5.5292949256
NI      6.1432840934     7.8030248025     5.5295152040
NI      7.3718970016     9.9310496115     5.5293488186
NI      8.6004945431    12.0592317235     5.5291492771
NI      4.9146320080     1.4186891425     5.5295194911
NI      6.1430277623     3.5468064545     5.5292586544
NI      7.3718122340     5.6747084727     5.5296608002
NI      8.6010476154     7.8027101010     5.5296723649
NI      9.8294262564     9.9312592672     5.5293951954
NI     11.0577794956    12.0590856717     5.5293332548
NI      7.3718547943     1.4184728124     5.5293535817
NI      8.6023405411     3.5477735102     5.5317583151
NI      9.8286943937     5.6754833843     5.5269388250
NI     11.0576066788     7.8002769114     5.5317424315
NI     12.2863584259     9.9311058880     5.5292772203
NI     13.5151891463    12.0592568606     5.5293116180
NI      9.8291808849     1.4188558065     5.5298156057
NI     11.0573997151     3.5458539505     5.5261835060
NI     12.2871149352     5.6757331564     5.5246426754
NI     13.5144580723     7.8030473434     5.5293855595
NI     14.7437479385     9.9310220497     5.5295190845
NI     15.9724036618    12.0590745679     5.5292526968
NI     12.2864573165     1.4189515422     5.5295734774
NI     13.5130413544     3.5479140235     5.5323537775
NI     14.7439954122     5.6744621226     5.5291032202
NI     15.9722496743     7.8029315380     5.5294727208
NI     17.2010968876     9.9310538647     5.5294256539
NI     18.4297704495    12.0591422505     5.5295083949
NI     14.7438789685     1.4185393789     5.5295129055
NI     15.9724074306     3.5469008542     5.5295097593
NI     17.2010715581     5.6748522759     5.5294327623
NI     18.4297390184     7.8029943069     5.5292559166
NI     19.6584009908     9.9310669952     5.5295126985
NI     20.8870305982    12.0591554666     5.5292590813
NI     -0.0002464269     0.0004249195     7.5423694252
NI     15.9725445234     2.1280329768     7.5426838516
NI     17.2006700002     4.2561622950     7.5423425651
NI      3.6859809858     6.3842204129     7.5424518881
NI     19.6582819333     8.5123405174     7.5425303963
NI     20.8870952925    10.6404384867     7.5425172894
NI      2.4573071147     0.0000595187     7.5424792793
NI      3.6860226203     2.1280694458     7.5424806337
NI      4.9147366267     4.2561943974     7.5425444521
NI      6.1439186549     6.3841446897     7.5429103869
NI      7.3722505194     8.5121700766     7.5430230167
NI      8.6009322393    10.6396161915     7.5424966607
NI      4.9146634939     0.0001339766     7.5425375253
NI      6.1429329529     2.1279330349     7.5426717394
NI      7.3722988655     4.2564131321     7.5431695377
NI      8.5925121704     6.3854693832     7.5374425293
NI      9.8255929591     8.5170127596     7.5378410067
NI     11.0578100406    10.6404104211     7.5428239437
NI      7.3720019877     0.0000641232     7.5425327450
NI      8.6009568905     2.1286930265     7.5428960385
NI      9.8131442997     4.2451235339     7.5324677769
NI     11.0427492063     6.4238077800     7.4762021425
NI     12.2907506098     8.5181814170     7.5384633129
NI     13.5147226812    10.6397117160     7.5425639892
NI      9.8291967152     0.0002804634     7.5426447098
NI     11.0571624351     2.1237188061     7.5407939402
NI     12.3134331143     4.2064919218     7.4866799754
NI     13.5323861850     6.3918279760     7.5315347284
NI     14.7430962061     8.5115651756     7.5431833121
NI     15.9725455686    10.6404663955     7.5425940412
NI     12.2865873486     0.0001273983     7.5426769012
NI     13.5151790425     2.1278047846     7.5423884446
NI     14.7458667371     4.2561916492     7.5430007211
NI     15.9712800672     6.3841474306     7.5431266963
NI     17.2012801846     8.5123983683     7.5425102986
NI     18.4296678065    10.6402851735     7.5425014347
O      11.1466879889     7.4585729242    11.8353169318
O      11.5891848313     3.8187383422    11.2745979232
O      10.7585505766     3.9899857709    14.0893166098
O      11.7001694988     6.3952579694    15.3298038781
O      13.0618043877     7.5787892865    13.1826874174
O      11.3283690399     5.1722830826     9.0360695406
C      11.0462504795     4.9853625085    11.8863154048
C      11.4414534538     5.0164996851    13.3760884265
C      11.5508983405     6.2520440368    11.1618362783
C      11.1141213318     6.3697197318    14.0079016570
C      11.6467443835     7.5332071688    13.1717509391
C      10.9768587110     6.3433762685     9.7849632365
H       9.9421398687     4.9269226388    11.8233202382
H      12.5251175341     4.8040613271    13.4575078333
H      12.6465969235     6.2163461455    11.0909122526
H      10.0183389088     6.4451947059    14.1253172533
H      11.2849481796     8.4851550694    13.5909382372
H       9.9017700639     6.3569268776     9.7379046208
H      11.3459686451     7.2617377818     9.2282209216
H      11.3232082653     3.8389744919    10.3362134888
H      11.0984887133     4.0430102751    15.0048632087
H      11.3028677055     7.1467457016    15.8065506880
H      13.3482714122     7.0722582516    13.9684869602
H      12.4225643967     5.3644287902     8.7275946363
168
Step 2 | ATOMIC_POSITIONS (angstrom) | Cartesian Angstrom
NI      0.0000000000     0.0000000000     1.5000000000
NI     15.9724448650     2.1280835410     1.5000000000
NI     17.2010944700     4.2561670810     1.5000000000
NI      3.6859488150     6.3842506220     1.5000000000
NI     19.6583936800     8.5123341620     1.5000000000
NI     20.8870432850    10.6404177020     1.5000000000
NI      2.4572992100     0.0000000000     1.5000000000
NI      3.6859488160     2.1280835410     1.5000000000
NI      4.9145984200     4.2561670810     1.5000000000
NI      6.1432480250     6.3842506220     1.5000000000
NI      7.3718976300     8.5123341620     1.5000000000
NI      8.6005472350    10.6404177020     1.5000000000
NI      4.9145984200     0.0000000000     1.5000000000
NI      6.1432480250     2.1280835410     1.5000000000
NI      7.3718976300     4.2561670810     1.5000000000
NI      8.6005472350     6.3842506220     1.5000000000
NI      9.8291968400     8.5123341620     1.5000000000
NI     11.0578464450    10.6404177020     1.5000000000
NI      7.3718976300     0.0000000000     1.5000000000
NI      8.6005472350     2.1280835410     1.5000000000
NI      9.8291968400     4.2561670810     1.5000000000
NI     11.0578464450     6.3842506220     1.5000000000
NI     12.2864960500     8.5123341620     1.5000000000
NI     13.5151456550    10.6404177020     1.5000000000
NI      9.8291968400     0.0000000000     1.5000000000
NI     11.0578464450     2.1280835410     1.5000000000
NI     12.2864960500     4.2561670810     1.5000000000
NI     13.5151456550     6.3842506220     1.5000000000
NI     14.7437952600     8.5123341620     1.5000000000
NI     15.9724448650    10.6404177020     1.5000000000
NI     12.2864960500     0.0000000000     1.5000000000
NI     13.5151456550     2.1280835410     1.5000000000
NI     14.7437952600     4.2561670810     1.5000000000
NI     15.9724448650     6.3842506220     1.5000000000
NI     17.2010944700     8.5123341620     1.5000000000
NI     18.4297440740    10.6404177020     1.5000000000
NI      1.2288328271     0.7096404106     3.5131264272
NI      2.4573517413     2.8369252339     3.5130601685
NI      3.6860130279     4.9654829282     3.5134438013
NI      4.9145553555     7.0936529806     3.5131474490
NI      6.1433019183     9.2216484150     3.5134489021
NI      7.3719777354    11.3499050232     3.5130331383
NI      3.6858825305     0.7095797097     3.5135782609
NI      4.9142625745     2.8369249348     3.5130454405
NI      6.1436127920     4.9653204258     3.5140158718
NI      7.3718366781     7.0937003095     3.5129735346
NI      8.6006929346     9.2216068249     3.5131973417
NI      9.8294964266    11.3496315877     3.5136457573
NI      6.1428057638     0.7094466190     3.5130710514
NI      7.3717595224     2.8375451442     3.5139247638
NI      8.6002763022     4.9653229986     3.5134394219
NI      9.8293715855     7.0942794924     3.5124822193
NI     11.0578518796     9.2225379673     3.5123621516
NI     12.2860418243    11.3497574448     3.5133944028
NI      8.6004844471     0.7094898831     3.5135950583
NI      9.8287958009     2.8372318514     3.5122686453
NI     11.0578414630     4.9653909138     3.5124038068
NI     12.2863150423     7.0945063652     3.5129518711
NI     13.5149830076     9.2218590147     3.5125054573
NI     14.7438030070    11.3498781125     3.5132977156
NI     11.0579064395     0.7094252512     3.5131546492
NI     12.2867918952     2.8372361248     3.5122017906
NI     13.5155441903     4.9650217821     3.5137674858
NI     14.7440886811     7.0937399401     3.5132061810
NI     15.9723505692     9.2216692336     3.5135848498
NI     17.2011269220    11.3497359808     3.5132572864
NI     13.5151668313     0.7095307450     3.5135622289
NI     14.7439350733     2.8373758126     3.5137341371
NI     15.9722084942     4.9652262205     3.5131331490
NI     17.2010778376     7.0936136519     3.5134484676
NI     18.4297921587     9.2217532047     3.5132825544
NI     19.6583622805    11.3497571869     3.5133473554
NI      2.4569940660     1.4186746317     5.5296996822
NI      3.6859722234     3.5469470837     5.5294181678
NI      4.9143937332     5.6749549005     5.5292350270
NI      6.1433399239     7.8030456228     5.5296148942
NI      7.3719057277     9.9309819484     5.5293533985
NI      8.6003736817    12.0592794188     5.5291402598
NI      4.9147790087     1.4187174648     5.5295893121
NI      6.1428853167     3.5468096351     5.5289972024
NI      7.3713955198     5.6744135809     5.5293977016
NI      8.6012386199     7.8026083443     5.5293336469
NI      9.8297145112     9.9316512095     5.5288546632
NI     11.0577494128    12.0590553051     5.5292076671
NI      7.3718491600     1.4183163776     5.5292206855
NI      8.6041253058     3.5487527834     5.5337386358
NI      9.8268882984     5.6748319803     5.5214281797
NI     11.0575693949     7.8003286734     5.5294967745
NI     12.2861826412     9.9313332629     5.5285707216
NI     13.5152748075    12.0593012181     5.5292797787
NI      9.8289985741     1.4187913267     5.5299533932
NI     11.0553367741     3.5446784224     5.5202005142
NI     12.2885402609     5.6764921409     5.5176036641
NI     13.5139708857     7.8034664309     5.5281997888
NI     14.7436950708     9.9309265062     5.5296663592
NI     15.9724107348    12.0590588576     5.5291567759
NI     12.2864551886     1.4189411466     5.5295158201
NI     13.5135475621     3.5476947964     5.5304927076
NI     14.7448196481     5.6738850262     5.5275330359
NI     15.9720288796     7.8028913295     5.5295274331
NI     17.2010847504     9.9310458579     5.5294763527
NI     18.4297606229    12.0591668899     5.5296624141
NI     14.7440574210     1.4183336310     5.5294113800
NI     15.9723221647     3.5470141167     5.5293859984
NI     17.2010133578     5.6748737568     5.5294748270
NI     18.4297257605     7.8030044324     5.5291179229
NI     19.6583942777     9.9310545591     5.5296424384
NI     20.8870027429    12.0591643907     5.5292117769
NI     -0.0004512171     0.0008161488     7.5422381311
NI     15.9728006439     2.1276045426     7.5428503229
NI     17.2004612868     4.2564154047     7.5421284973
NI      3.6859001535     6.3842571314     7.5422217657
NI     19.6583090425     8.5121836509     7.5423986653
NI     20.8871502143    10.6404725102     7.5424194089
NI      2.4571574667     0.0000418921     7.5423324409
NI      3.6860279742     2.1282741506     7.5423222446
NI      4.9150796496     4.2561866372     7.5423991260
NI      6.1440719343     6.3839231390     7.5433071328
NI      7.3722279220     8.5124021024     7.5435398187
NI      8.6011731197    10.6390150332     7.5424602494
NI      4.9149074471     0.0000620748     7.5424335089
NI      6.1426278868     2.1277706695     7.5427452793
NI      7.3712909710     4.2567578245     7.5437884682
NI      8.5834232254     6.3868187915     7.5310275442
NI      9.8206168375     8.5242975270     7.5329867439
NI     11.0576595288    10.6409174323     7.5430977105
NI      7.3721948015     0.0003536717     7.5424370767
NI      8.6007676682     2.1279296490     7.5431053623
NI      9.8030636101     4.2386594922     7.5267855293
NI     11.0387212782     6.4407680661     7.4367515901
NI     12.2955359255     8.5248697431     7.5344514498
NI     13.5146566401    10.6393631466     7.5425456001
NI      9.8288439519     0.0002947691     7.5427705834
NI     11.0559526066     2.1180434684     7.5385217441
NI     12.3315529766     4.1860705343     7.4593517234
NI     13.5422447982     6.3931735144     7.5266606408
NI     14.7427747416     8.5116133849     7.5438703855
NI     15.9726532763    10.6403480837     7.5425398770
NI     12.2868931935    -0.0001835161     7.5427612279
NI     13.5173391977     2.1238756899     7.5424418780
NI     14.7493016466     4.2562341190     7.5439394708
NI     15.9712184937     6.3838263749     7.5437359045
NI     17.2014181352     8.5124447441     7.5422790573
NI     18.4295409541    10.6403447838     7.5424101858
O      11.1507127050     7.4604753185    11.8443656912
O      11.5958145394     3.8142372148    11.2878154965
O      10.7550059634     3.9855716854    14.0925724725
O      11.7042248993     6.3937074536    15.3269029643
O      13.0639254894     7.5723012780    13.1802235509
O      11.3204903291     5.1580734819     9.0734241769
C      11.0435183266     4.9780522214    11.8920930221
C      11.4450893516     5.0112396876    13.3761029465
C      11.5516601733     6.2560272500    11.1840565769
C      11.1105765036     6.3688965563    14.0076214348
C      11.6461805683     7.5388304590    13.1703016848
C      10.9713889719     6.3594039070     9.8054486675
H       9.9406217198     4.9343786189    11.8266538301
H      12.5269303159     4.8118775755    13.4511114848
H      12.6525093568     6.2140698501    11.0920967222
H      10.0192916098     6.4465370687    14.1167493330
H      11.2760069059     8.4893324862    13.5823378238
H       9.8787609236     6.3620566202     9.7507376023
H      11.3487085486     7.2634364006     9.2426380385
H      11.3243560065     3.8344902123    10.3394666882
H      11.0937705452     4.0403748192    15.0002891761
H      11.3051275729     7.1430534487    15.8078758543
H      13.3499013112     7.0742560377    13.9675542618
H      12.4398249902     5.3683734281     8.7348782100
168
Step 3 | ATOMIC_POSITIONS (angstrom) | Cartesian Angstrom
NI      0.0000000000     0.0000000000     1.5000000000
NI     15.9724448650     2.1280835410     1.5000000000
NI     17.2010944700     4.2561670810     1.5000000000
NI      3.6859488150     6.3842506220     1.5000000000
NI     19.6583936800     8.5123341620     1.5000000000
NI     20.8870432850    10.6404177020     1.5000000000
NI      2.4572992100     0.0000000000     1.5000000000
NI      3.6859488160     2.1280835410     1.5000000000
NI      4.9145984200     4.2561670810     1.5000000000
NI      6.1432480250     6.3842506220     1.5000000000
NI      7.3718976300     8.5123341620     1.5000000000
NI      8.6005472350    10.6404177020     1.5000000000
NI      4.9145984200     0.0000000000     1.5000000000
NI      6.1432480250     2.1280835410     1.5000000000
NI      7.3718976300     4.2561670810     1.5000000000
NI      8.6005472350     6.3842506220     1.5000000000
NI      9.8291968400     8.5123341620     1.5000000000
NI     11.0578464450    10.6404177020     1.5000000000
NI      7.3718976300     0.0000000000     1.5000000000
NI      8.6005472350     2.1280835410     1.5000000000
NI      9.8291968400     4.2561670810     1.5000000000
NI     11.0578464450     6.3842506220     1.5000000000
NI     12.2864960500     8.5123341620     1.5000000000
NI     13.5151456550    10.6404177020     1.5000000000
NI      9.8291968400     0.0000000000     1.5000000000
NI     11.0578464450     2.1280835410     1.5000000000
NI     12.2864960500     4.2561670810     1.5000000000
NI     13.5151456550     6.3842506220     1.5000000000
NI     14.7437952600     8.5123341620     1.5000000000
NI     15.9724448650    10.6404177020     1.5000000000
NI     12.2864960500     0.0000000000     1.5000000000
NI     13.5151456550     2.1280835410     1.5000000000
NI     14.7437952600     4.2561670810     1.5000000000
NI     15.9724448650     6.3842506220     1.5000000000
NI     17.2010944700     8.5123341620     1.5000000000
NI     18.4297440740    10.6404177020     1.5000000000
NI      1.2289260243     0.7098110134     3.5129846658
NI      2.4573012020     2.8365831725     3.5129030165
NI      3.6860780675     4.9654712914     3.5135214579
NI      4.9146053328     7.0936560680     3.5130755802
NI      6.1433570138     9.2216123437     3.5136950911
NI      7.3719822697    11.3499379765     3.5128560403
NI      3.6858190121     0.7096695223     3.5137317841
NI      4.9141635136     2.8366373806     3.5128039768
NI      6.1438456646     4.9651689199     3.5144730330
NI      7.3717153442     7.0937273618     3.5127943114
NI      8.6006662811     9.2216215472     3.5131451372
NI      9.8296713035    11.3495272739     3.5138667798
NI      6.1425829677     0.7095832634     3.5128819135
NI      7.3717811450     2.8376948346     3.5145858636
NI      8.5994205577     4.9647687353     3.5130232085
NI      9.8291818466     7.0951176951     3.5107903911
NI     11.0578238162     9.2233430060     3.5117231967
NI     12.2856794041    11.3497327802     3.5134379003
NI      8.6004425977     0.7096202426     3.5137722581
NI      9.8277101338     2.8366526377     3.5108507501
NI     11.0576020267     4.9651662291     3.5101868761
NI     12.2863332470     7.0958613706     3.5112746316
NI     13.5149374157     9.2221863938     3.5115837054
NI     14.7438132844    11.3499073297     3.5132528943
NI     11.0578736230     0.7094249338     3.5132011792
NI     12.2871841886     2.8366582762     3.5106657375
NI     13.5164792011     4.9643939423     3.5130347276
NI     14.7442928278     7.0938814904     3.5132537937
NI     15.9723183645     9.2217027323     3.5139178373
NI     17.2011492654    11.3497507218     3.5133017404
NI     13.5151472911     0.7095605897     3.5138944643
NI     14.7441506999     2.8372274945     3.5142446237
NI     15.9722544823     4.9649476483     3.5127765675
NI     17.2010958259     7.0936133585     3.5136221681
NI     18.4298368184     9.2217963109     3.5133594163
NI     19.6583389648    11.3497330495     3.5134943196
NI      2.4567868870     1.4186765875     5.5299603227
NI      3.6859040773     3.5471121706     5.5296127964
NI      4.9142371539     5.6750981411     5.5292207939
NI      6.1432939145     7.8031396790     5.5297652442
NI      7.3718155833     9.9309677184     5.5293650780
NI      8.6001044251    12.0593354749     5.5293032731
NI      4.9149895343     1.4187837033     5.5296940206
NI      6.1426745328     3.5467053286     5.5285274722
NI      7.3700803050     5.6737890544     5.5281361273
NI      8.6011490650     7.8027634516     5.5280321918
NI      9.8300261005     9.9328440642     5.5272479478
NI     11.0576854785    12.0592154037     5.5289772097
NI      7.3717921639     1.4181616790     5.5289600880
NI      8.6059193665     3.5497357859     5.5357117324
NI      9.8231613292     5.6728770317     5.5107576568
NI     11.0575040679     7.8038318222     5.5212021223
NI     12.2859313691     9.9322892814     5.5268136957
NI     13.5154260406    12.0593708277     5.5293144532
NI      9.8284568816     1.4182783790     5.5296911439
NI     11.0517161098     3.5429218685     5.5102120290
NI     12.2914239245     5.6769940706     5.5053416763
NI     13.5136117107     7.8042912551     5.5257386032
NI     14.7437059943     9.9308463328     5.5299032951
NI     15.9724549344    12.0589851958     5.5290900427
NI     12.2865878189     1.4187250579     5.5292008141
NI     13.5169075453     3.5457885004     5.5232438614
NI     14.7465972916     5.6728581630     5.5244009757
NI     15.9718507400     7.8028962246     5.5296891831
NI     17.2011527868     9.9310454151     5.5295609019
NI     18.4297634291    12.0590948209     5.5298892003
NI     14.7445854579     1.4177851188     5.5289577884
NI     15.9725310139     3.5469558501     5.5289875268
NI     17.2010684873     5.6749717145     5.5295505823
NI     18.4297440294     7.8030691488     5.5289598707
NI     19.6583799118     9.9310449300     5.5298489836
NI     20.8869832264    12.0590610205     5.5291706139
NI     -0.0005334969     0.0009605771     7.5420792763
NI     15.9735346360     2.1266250695     7.5431190625
NI     17.2006167691     4.2568455103     7.5418936100
NI      3.6857799419     6.3844011652     7.5417870498
NI     19.6583768715     8.5119155928     7.5421334174
NI     20.8871869685    10.6405553408     7.5422043446
NI      2.4568029571    -0.0000182119     7.5420746577
NI      3.6859900897     2.1286786878     7.5420410244
NI      4.9155451397     4.2561279349     7.5421487640
NI      6.1433181697     6.3836340480     7.5440151310
NI      7.3715126358     8.5133210065     7.5443773186
NI      8.6011291443    10.6388492305     7.5424781518
NI      4.9153669608    -0.0000877850     7.5422299528
NI      6.1420471800     2.1274508173     7.5428573290
NI      7.3685389263     4.2571439419     7.5448913516
NI      8.5707136171     6.3887919403     7.5210402237
NI      9.8128642931     8.5362483160     7.5255756482
NI     11.0573746634    10.6422808692     7.5435413395
NI      7.3724337429     0.0007968039     7.5422646441
NI      8.5998478395     2.1256275519     7.5435781898
NI      9.7929428472     4.2323290806     7.5207817908
NI     11.0364382603     6.4546778654     7.3921840980
NI     12.3026924023     8.5349905177     7.5280439786
NI     13.5149845295    10.6395996671     7.5426362098
NI      9.8280004515    -0.0002423333     7.5430538179
NI     11.0541184681     2.1094306639     7.5347119847
NI     12.3526106762     4.1671900526     7.4289706914
NI     13.5533169066     6.3927408950     7.5211074893
NI     14.7427969078     8.5121955679     7.5450697349
NI     15.9728949777    10.6401357139     7.5423932840
NI     12.2875842797    -0.0013056891     7.5429054800
NI     13.5223170011     2.1152567908     7.5426475366
NI     14.7557408785     4.2560161136     7.5455318277
NI     15.9721932642     6.3833049562     7.5447826223
NI     17.2016800283     8.5125173631     7.5418369449
NI     18.4293753972    10.6404834418     7.5422342803
O      11.1563127362     7.4656905293    11.8595345046
O      11.6000651793     3.8064488947    11.2959610538
O      10.7497818120     3.9803004297    14.0859675950
O      11.7079594929     6.3926423772    15.3226124799
O      13.0643018749     7.5664281614    13.1723036946
O      11.3226170865     5.1531285672     9.1156068279
C      11.0450966945     4.9706820214    11.9056498714
C      11.4396190606     5.0063117677    13.3790474472
C      11.5545486995     6.2602549022    11.2047470125
C      11.1145034934     6.3681374352    14.0049054635
C      11.6464454709     7.5423692244    13.1761696997
C      10.9503387603     6.3658072911     9.8312614653
H       9.9368305684     4.9446883666    11.8323692187
H      12.5331449746     4.8225768844    13.4415377718
H      12.6559565551     6.2106044358    11.0971253731
H      10.0162631452     6.4485973469    14.1038847496
H      11.2629446853     8.4978284111    13.5700094356
H       9.8573130160     6.3743184147     9.7751493369
H      11.3525743022     7.2658174008     9.2668905332
H      11.3319486999     3.8274118451    10.3600572163
H      11.0893365868     4.0356197015    15.0044040910
H      11.3101616814     7.1349415259    15.8094782058
H      13.3532479599     7.0754196685    13.9702899922
H      12.4502627306     5.3686888455     8.7447441585
168
Step 4 | ATOMIC_POSITIONS (angstrom) | Cartesian Angstrom
NI      0.0000000000     0.0000000000     1.5000000000
NI     15.9724448650     2.1280835410     1.5000000000
NI     17.2010944700     4.2561670810     1.5000000000
NI      3.6859488150     6.3842506220     1.5000000000
NI     19.6583936800     8.5123341620     1.5000000000
NI     20.8870432850    10.6404177020     1.5000000000
NI      2.4572992100     0.0000000000     1.5000000000
NI      3.6859488160     2.1280835410     1.5000000000
NI      4.9145984200     4.2561670810     1.5000000000
NI      6.1432480250     6.3842506220     1.5000000000
NI      7.3718976300     8.5123341620     1.5000000000
NI      8.6005472350    10.6404177020     1.5000000000
NI      4.9145984200     0.0000000000     1.5000000000
NI      6.1432480250     2.1280835410     1.5000000000
NI      7.3718976300     4.2561670810     1.5000000000
NI      8.6005472350     6.3842506220     1.5000000000
NI      9.8291968400     8.5123341620     1.5000000000
NI     11.0578464450    10.6404177020     1.5000000000
NI      7.3718976300     0.0000000000     1.5000000000
NI      8.6005472350     2.1280835410     1.5000000000
NI      9.8291968400     4.2561670810     1.5000000000
NI     11.0578464450     6.3842506220     1.5000000000
NI     12.2864960500     8.5123341620     1.5000000000
NI     13.5151456550    10.6404177020     1.5000000000
NI      9.8291968400     0.0000000000     1.5000000000
NI     11.0578464450     2.1280835410     1.5000000000
NI     12.2864960500     4.2561670810     1.5000000000
NI     13.5151456550     6.3842506220     1.5000000000
NI     14.7437952600     8.5123341620     1.5000000000
NI     15.9724448650    10.6404177020     1.5000000000
NI     12.2864960500     0.0000000000     1.5000000000
NI     13.5151456550     2.1280835410     1.5000000000
NI     14.7437952600     4.2561670810     1.5000000000
NI     15.9724448650     6.3842506220     1.5000000000
NI     17.2010944700     8.5123341620     1.5000000000
NI     18.4297440740    10.6404177020     1.5000000000