124
Step 1 | ATOMIC_POSITIONS (angstrom) | Cartesian Angstrom
NI      0.0000000000     0.0000000000     1.1900000730
NI      1.2286496050     2.1280835410     1.1900000730
NI      2.4572992100     4.2561670810     1.1900000730
NI      3.6859488150     6.3842506220     1.1900000730
NI      4.9145984200     8.5123341620     1.1900000730
NI      2.4572992100     0.0000000000     1.1900000730
NI      3.6859488150     2.1280835410     1.1900000730
NI      4.9145984200     4.2561670810     1.1900000730
NI      6.1432480250     6.3842506220     1.1900000730
NI      7.3718976300     8.5123341620     1.1900000730
NI      4.9145984200     0.0000000000     1.1900000730
NI      6.1432480250     2.1280835410     1.1900000730
NI      7.3718976300     4.2561670810     1.1900000730
NI      8.6005472350     6.3842506220     1.1900000730
NI      9.8291968400     8.5123341620     1.1900000730
NI      7.3718976300     0.0000000000     1.1900000730
NI      8.6005472350     2.1280835410     1.1900000730
NI      9.8291968400     4.2561670810     1.1900000730
NI     11.0578464450     6.3842506220     1.1900000730
NI     12.2864960500     8.5123341620     1.1900000730
NI      9.8291968400     0.0000000000     1.1900000730
NI     11.0578464450     2.1280835410     1.1900000730
NI     12.2864960500     4.2561670810     1.1900000730
NI     13.5151456550     6.3842506220     1.1900000730
NI     14.7437952600     8.5123341620     1.1900000730
NI      1.2286061181     0.7093413873     3.2004695115
NI      2.4574215793     2.8374643746     3.2006757867
NI      3.6861065269     4.9653900051     3.2004387022
NI      4.9147332381     7.0936248598     3.2004387832
NI      6.1432829118     9.2215788869     3.2006965448
NI      3.6859571954     0.7093666384     3.2005353841
NI      4.9143720414     2.8373142272     3.1996594270
NI      6.1432290123     4.9656505348     3.2003882421
NI      7.3718581362     7.0938586515     3.1997570601
NI      8.6005149929     9.2215689382     3.2005672484
NI      6.1431834933     0.7094797808     3.2005490303
NI      7.3717581820     2.8374120522     3.2006367150
NI      8.6005528801     4.9658123584     3.2002516123
NI      9.8290322823     7.0935767686     3.2006523262
NI     11.0578275431     9.2216608501     3.2005437533
NI      8.6006254595     0.7093412657     3.2004633290
NI      9.8293829639     2.8373742406     3.1999883330
NI     11.0577328850     4.9654646250     3.2003021425
NI     12.2864610953     7.0936114607     3.2006052312
NI     13.5151618598     9.2218163766     3.2006818585
NI     11.0579663181     0.7092107921     3.2002779693
NI     12.2865981894     2.8374187073     3.2005466056
NI     13.5150927076     4.9655233603     3.2005341104
NI     14.7438213184     7.0936165107     3.2005737318
NI     15.9724642195     9.2217242193     3.2004889664
NI      2.4571431630     1.4186318337     5.2133214754
NI      3.6862278141     3.5467160798     5.2136144006
NI      4.9151658783     5.6745882181     5.2136788718
NI      6.1434214871     7.8026802902     5.2136855246
NI      7.3718734437     9.9312099401     5.2132363001
NI      4.9147662056     1.4189635302     5.2135569604
NI      6.1446515411     3.5475995606     5.2135982948
NI      7.3718126550     5.6744551502     5.2124595868
NI      8.6002823641     7.8025356636     5.2137697771
NI      9.8292087784     9.9311006460     5.2133658063
NI      7.3720969875     1.4194967230     5.2134453313
NI      8.6000684353     3.5469520233     5.2122712327
NI      9.8286090096     5.6743805151     5.2136712061
NI     11.0579540879     7.8030410083     5.2132569681
NI     12.2865619953     9.9310436832     5.2132471964
NI      9.8291426582     1.4191266133     5.2131896368
NI     11.0574997106     3.5465195898     5.2133267882
NI     12.2865099269     5.6749736103     5.2130929063
NI     13.5151118314     7.8030409626     5.2133649801
NI     14.7437380357     9.9310596019     5.2131883802
NI     12.2866002037     1.4185749249     5.2133524083
NI     13.5149740618     3.5467746526     5.2136147125
NI     14.7437375609     5.6749333263     5.2132572144
NI     15.9723232080     7.8030727916     5.2133239129
NI     17.2010245009     9.9313028426     5.2135059860
NI     -0.0000654706     0.0000363185     7.2239913733
NI      1.2285746693     2.1281041094     7.2239395754
NI      2.4573574650     4.2561735179     7.2239249159
NI      3.6858798515     6.3842546921     7.2242814203
NI      4.9146854198     8.5123476693     7.2239121642
NI      2.4573560362    -0.0000240949     7.2238830443
NI      3.6862649863     2.1280430964     7.2242304865
NI      4.9104385748     4.2560912368     7.2215791519
NI      6.1410430693     6.3881858559     7.2205545396
NI      7.3718661290     8.5121915633     7.2241605893
NI      4.9148719137     0.0002341511     7.2245792790
NI      6.1411853206     2.1239391114     7.2210070923
NI      7.3700458277     4.2599146529     7.2296146758
NI      8.6027865406     6.3879472395     7.2209317374
NI      9.8292009264     8.5120143862     7.2240538241
NI      7.3718659081     0.0000584030     7.2253910288
NI      8.6008032440     2.1234203670     7.2241201432
NI      9.8364545721     4.2580341178     7.2173740553
NI     11.0577686436     6.3841049029     7.2247455387
NI     12.2864260295     8.5124622369     7.2237803090
NI      9.8290655577    -0.0000163797     7.2241744288
NI     11.0578583365     2.1282883983     7.2240459789
NI     12.2860779424     4.2563009820     7.2242687718
NI     13.5151065709     6.3842033569     7.2238483598
NI     14.7437704033     8.5124227895     7.2237342571
C       8.1180557439     3.4257576274     9.7392885675
C       7.8909760115     2.9086501588    11.1349295309
C       8.0607678128     4.0327529955    12.1871776964
C       8.0484692616     3.4512029797    13.6310339498
C       8.1516717409     4.5994168907    14.6589803028
C       8.0152382058     4.1219468062    16.1148682423
O       7.3654055803     4.2488022924     9.1710843920
O       6.6121763327     2.3268929989    11.2848332472
O       9.3299412254     4.6391950719    11.9832808903
O       6.7995442998     2.8105290131    13.8213300699
O       9.4239465977     5.2151068917    14.5010656847
O       6.6595494012     3.7366797025    16.3630732795
H       9.1242468884     3.1991303737     9.3062314476
H       8.6508039436     2.1582399680    11.2995605628
H       7.2427363425     4.7562977569    12.0257075418
H       8.8950885151     2.7364945993    13.8045579919
H       7.3542816143     5.3398848114    14.5080828749
H       8.7006002087     3.3175510143    16.3724434056
H       8.2788829325     4.9255590035    16.8216676248
H       6.4933599270     1.7436781600    10.5067990119
H       9.2234679327     5.2725288652    11.2518770546
H       6.9479728642     2.0008103564    14.3261018428
H       9.4135792431     5.9996217862    15.0800090627
H       6.6369784950     3.4442229086    17.2898494380
124
Step 2 | ATOMIC_POSITIONS (angstrom) | Cartesian Angstrom
NI      0.0000000000     0.0000000000     1.1900000730
NI      1.2286496050     2.1280835410     1.1900000730
NI      2.4572992100     4.2561670810     1.1900000730
NI      3.6859488150     6.3842506220     1.1900000730
NI      4.9145984200     8.5123341620     1.1900000730
NI      2.4572992100     0.0000000000     1.1900000730
NI      3.6859488150     2.1280835410     1.1900000730
NI      4.9145984200     4.2561670810     1.1900000730
NI      6.1432480250     6.3842506220     1.1900000730
NI      7.3718976300     8.5123341620     1.1900000730
NI      4.9145984200     0.0000000000     1.1900000730
NI      6.1432480250     2.1280835410     1.1900000730
NI      7.3718976300     4.2561670810     1.1900000730
NI      8.6005472350     6.3842506220     1.1900000730
NI      9.8291968400     8.5123341620     1.1900000730
NI      7.3718976300     0.0000000000     1.1900000730
NI      8.6005472350     2.1280835410     1.1900000730
NI      9.8291968400     4.2561670810     1.1900000730
NI     11.0578464450     6.3842506220     1.1900000730
NI     12.2864960500     8.5123341620     1.1900000730
NI      9.8291968400     0.0000000000     1.1900000730
NI     11.0578464450     2.1280835410     1.1900000730
NI     12.2864960500     4.2561670810     1.1900000730
NI     13.5151456550     6.3842506220     1.1900000730
NI     14.7437952600     8.5123341620     1.1900000730
NI      1.2286011001     0.7092978899     3.2005451708
NI      2.4575866144     2.8374911111     3.2011131722
NI      3.6862977483     4.9652307722     3.2004780080
NI      4.9148487668     7.0936687101     3.2005191166
NI      6.1433331578     9.2214137716     3.2012089471
NI      3.6859976849     0.7093124585     3.2007728991
NI      4.9140571177     2.8371034242     3.1985522320
NI      6.1431484793     4.9658190413     3.2002216080
NI      7.3718131347     7.0943013094     3.1987351079
NI      8.6005345400     9.2214149813     3.2008458060
NI      6.1430928763     0.7095942885     3.2007701544
NI      7.3715327959     2.8372905131     3.2008040698
NI      8.6005978398     4.9662390409     3.1998494359
NI      9.8288510975     7.0935739848     3.2010143617
NI     11.0578180973     9.2216290693     3.2007139313
NI      8.6006856997     0.7092790811     3.2005376696
NI      9.8296645748     2.8372666954     3.1992632624
NI     11.0575941563     4.9654200427     3.2001027152
NI     12.2864368494     7.0936712878     3.2008189009
NI     13.5151502349     9.2219560568     3.2010349794
NI     11.0581244681     0.7089671114     3.2001961534
NI     12.2867824262     2.8373919288     3.2007900421
NI     13.5150344319     4.9655639510     3.2006863117
NI     14.7438237922     7.0936509454     3.2007705553
NI     15.9724440650     9.2217403170     3.2006429061
NI      2.4569710829     1.4184802264     5.2133378231
NI      3.6865895549     3.5464823048     5.2138376131
NI      4.9158760761     5.6741443102     5.2139749942
NI      6.1436573851     7.8024559833     5.2139662134
NI      7.3718736298     9.9314269439     5.2131683965
NI      4.9148666382     1.4192543969     5.2136292598
NI      6.1468738931     3.5488206740     5.2143427752
NI      7.3717097964     5.6736954782     5.2113158661
NI      8.5999176911     7.8021076002     5.2141822074
NI      9.8292826691     9.9311681779     5.2134697836
NI      7.3724222220     1.4205386827     5.2135740472
NI      8.5991513758     3.5471806266     5.2112013943
NI      9.8278197592     5.6737942701     5.2137700673
NI     11.0581134381     7.8031510382     5.2131183624
NI     12.2866740735     9.9310796872     5.2131638994
NI      9.8290952547     1.4196783159     5.2128609581
NI     11.0572221514     3.5459355429     5.2128915707
NI     12.2864981157     5.6751315364     5.2127068396
NI     13.5150471704     7.8031665658     5.2133845225
NI     14.7435849530     9.9311159412     5.2130190221
NI     12.2867671881     1.4183373396     5.2134215746
NI     13.5147260876     3.5467369938     5.2140675311
NI     14.7436800911     5.6750288281     5.2131069200
NI     15.9721177893     7.8032095669     5.2132879753
NI     17.2008727239     9.9316527653     5.2138255726
NI     -0.0001511396     0.0001104400     7.2240973025
NI      1.2284879133     2.1281033738     7.2239340303
NI      2.4571960767     4.2561893133     7.2239294460
NI      3.6855783237     6.3843810680     7.2248299937
NI      4.9146412724     8.5126254063     7.2238761938
NI      2.4574738633    -0.0000708905     7.2237657664
NI      3.6865779677     2.1278583085     7.2247490035
NI      4.9042059674     4.2558944282     7.2178129610
NI      6.1376683014     6.3942274125     7.2152014365
NI      7.3718547266     8.5122143486     7.2245444613
NI      4.9151843191     0.0003675949     7.2256456811
NI      6.1381534852     2.1179225772     7.2162379127
NI      7.3678163513     4.2653362328     7.2375407409
NI      8.6061340355     6.3934830845     7.2161029105
NI      9.8293660903     8.5118172866     7.2242043985
NI      7.3717860112    -0.0000126975     7.2277298728
NI      8.6015537778     2.1167491682     7.2233338323
NI      9.8468013051     4.2605356871     7.2071196527
NI     11.0579201738     6.3841930773     7.2260312883
NI     12.2863196563     8.5126857211     7.2234506400
NI      9.8289015876    -0.0001434111     7.2246563570
NI     11.0577806594     2.1284882383     7.2243570584
NI     12.2859038404     4.2565190796     7.2247810207
NI     13.5150376811     6.3841703690     7.2236403605
NI     14.7436929000     8.5125744422     7.2233440812
C       8.1406102612     3.4556460480     9.7653489397
C       7.8766956025     2.8869249578    11.1311505563
C       8.0710208205     4.0187983934    12.1738043334
C       8.0382515165     3.4721664465    13.6381152558
C       8.1622879900     4.6051366571    14.6864452841
C       8.0078201885     4.1191249780    16.1317290960
O       7.3561849251     4.2361006325     9.1833209659
O       6.5884136385     2.3220562788    11.2660881852
O       9.3394596094     4.6441719039    11.9685016142
O       6.7952726224     2.8026616455    13.8171291960
O       9.4396936642     5.2251744795    14.5123835787
O       6.6474498765     3.7304088432    16.3715582816
H       9.1234646126     3.1926278287     9.2959757799
H       8.6732587835     2.1510136225    11.3064899241
H       7.2401566400     4.7501333169    12.0410640752
H       8.8885634498     2.7539522197    13.7903754554
H       7.3442368080     5.3314789147    14.4946321817
H       8.7132128610     3.3023249325    16.3585320569
H       8.2845440515     4.9420596271    16.8079852755
H       6.4855896876     1.7392183400    10.5051440827
H       9.2291403334     5.2780578836    11.2510883097
H       6.9425812241     1.9977259096    14.3320822741
H       9.4191471233     6.0013369343    15.0804837099
H       6.6306615891     3.4439521743    17.2927648682
124
Step 3 | ATOMIC_POSITIONS (angstrom) | Cartesian Angstrom
NI      0.0000000000     0.0000000000     1.1900000730
NI      1.2286496050     2.1280835410     1.1900000730
NI      2.4572992100     4.2561670810     1.1900000730
NI      3.6859488150     6.3842506220     1.1900000730
NI      4.9145984200     8.5123341620     1.1900000730
NI      2.4572992100     0.0000000000     1.1900000730
NI      3.6859488150     2.1280835410     1.1900000730
NI      4.9145984200     4.2561670810     1.1900000730
NI      6.1432480250     6.3842506220     1.1900000730
NI      7.3718976300     8.5123341620     1.1900000730
NI      4.9145984200     0.0000000000     1.1900000730
NI      6.1432480250     2.1280835410     1.1900000730
NI      7.3718976300     4.2561670810     1.1900000730
NI      8.6005472350     6.3842506220     1.1900000730
NI      9.8291968400     8.5123341620     1.1900000730
NI      7.3718976300     0.0000000000     1.1900000730
NI      8.6005472350     2.1280835410     1.1900000730
NI      9.8291968400     4.2561670810     1.1900000730
NI     11.0578464450     6.3842506220     1.1900000730
NI     12.2864960500     8.5123341620     1.1900000730
NI      9.8291968400     0.0000000000     1.1900000730
NI     11.0578464450     2.1280835410     1.1900000730
NI     12.2864960500     4.2561670810     1.1900000730
NI     13.5151456550     6.3842506220     1.1900000730
NI     14.7437952600     8.5123341620     1.1900000730
NI      1.2286126983     0.7092427040     3.2004875960
NI      2.4576679804     2.8375206352     3.2015234082
NI      3.6864613829     4.9651138778     3.2005302084
NI      4.9149470985     7.0937174383     3.2006150410
NI      6.1433791602     9.2212761084     3.2016651840
NI      3.6859985103     0.7092310778     3.2010068779
NI      4.9138639707     2.8370001697     3.1976590312
NI      6.1430488242     4.9659620580     3.1999600766
NI      7.3717624236     7.0947365148     3.1977592708
NI      8.6005443895     9.2212852157     3.2010794814
NI      6.1430432179     0.7097066841     3.2009659878
NI      7.3713273397     2.8371776198     3.2007708962
NI      8.6006320196     4.9666084604     3.1993255840
NI      9.8286770022     7.0935811822     3.2013174025
NI     11.0577561007     9.2216068451     3.2008333367
NI      8.6007455556     0.7092626361     3.2005696083
NI      9.8298983537     2.8371837199     3.1985066287
NI     11.0574767163     4.9653824282     3.1998941253
NI     12.2863901923     7.0937115164     3.2009473946
NI     13.5151349790     9.2220652519     3.2012786887
NI     11.0582770864     0.7087437436     3.2001742422
NI     12.2869847350     2.8373486477     3.2009886506
NI     13.5150017079     4.9655533994     3.2008122970
NI     14.7438615509     7.0936531390     3.2008972047
NI     15.9724893664     9.2217584146     3.2007853570
NI      2.4568184216     1.4183640181     5.2133896154
NI      3.6868050990     3.5461646532     5.2137065134
NI      4.9163343960     5.6737786865     5.2138352371
NI      6.1438645435     7.8025812102     5.2137441899
NI      7.3718548636     9.9315765480     5.2131688528
NI      4.9147232020     1.4194753167     5.2132862142
NI      6.1489164043     3.5499782133     5.2153850948
NI      7.3716688829     5.6729305049     5.2105197756
NI      8.5995701910     7.8020483454     5.2140966296
NI      9.8293493319     9.9311907392     5.2136606227
NI      7.3727490956     1.4212885924     5.2134935793
NI      8.5981063222     3.5474523529     5.2109789023
NI      9.8272438426     5.6735747018     5.2130870240
NI     11.0581694861     7.8031796981     5.2130389849
NI     12.2867954395     9.9312199054     5.2132541850
NI      9.8292085668     1.4200879080     5.2123386977
NI     11.0574017128     3.5451574265     5.2117428336
NI     12.2864030482     5.6752167832     5.2124096522
NI     13.5149854475     7.8032509304     5.2134590306
NI     14.7434523816     9.9312826801     5.2129815714
NI     12.2869220305     1.4181007301     5.2134742117
NI     13.5145096579     3.5466987684     5.2144997417
NI     14.7436863675     5.6750738820     5.2129869931
NI     15.9720150203     7.8033012067     5.2132512494
NI     17.2007241830     9.9319512544     5.2141510195
NI     -0.0001957388     0.0001999018     7.2242136427
NI      1.2284197399     2.1280526004     7.2239355478
NI      2.4566221678     4.2562091582     7.2239800397
NI      3.6850141846     6.3846769527     7.2253921398
NI      4.9143625255     8.5132937940     7.2238777698
NI      2.4575439646    -0.0001350843     7.2236808821
NI      3.6865022891     2.1275325872     7.2253273218
NI      4.8989382167     4.2556968736     7.2142186983
NI      6.1347569793     6.3995326551     7.2101847112
NI      7.3718692561     8.5126090259     7.2249740742
NI      4.9152284751     0.0000899088     7.2267424753
NI      6.1356730190     2.1131939438     7.2114698012
NI      7.3662731976     4.2701334618     7.2454375861
NI      8.6088999094     6.3981141788     7.2114973280
NI      9.8297157866     8.5120806352     7.2243850923
NI      7.3717065753    -0.0004288489     7.2299439192
NI      8.6025219010     2.1114772504     7.2210359808
NI      9.8549380413     4.2624743890     7.1973682534
NI     11.0584719532     6.3847240978     7.2273183405
NI     12.2862321555     8.5128640991     7.2231441825
NI      9.8289247040    -0.0004691207     7.2252439870
NI     11.0576984807     2.1284854969     7.2247498607
NI     12.2865021332     4.2566989552     7.2252996637
NI     13.5149712377     6.3841663729     7.2234398911
NI     14.7435998789     8.5126933675     7.2229664197
C       8.1557634074     3.4729966681     9.7788295518
C       7.8735563537     2.8783748173    11.1392470901
C       8.0708773228     4.0147174451    12.1803494363
C       8.0391852711     3.4785788637    13.6402169757
C       8.1635879461     4.6078394295    14.6919706367
C       8.0032394227     4.1156544127    16.1379098320
O       7.3507543256     4.2239872684     9.1997882117
O       6.5764264110     2.3262495151    11.2539346758
O       9.3429653928     4.6358913554    11.9583490366
O       6.7938915481     2.8009326425    13.8124624998
O       9.4447462224     5.2221113229    14.5231352897
O       6.6466080545     3.7285350285    16.3759154773
H       9.1220082158     3.1908464918     9.2896064081
H       8.6864702404     2.1426783719    11.3113757735
H       7.2426956328     4.7399819192    12.0513882635
H       8.8803479033     2.7734909319    13.7783291268
H       7.3404642330     5.3237473981    14.4878467536
H       8.7198993903     3.2919936487    16.3471669049
H       8.2891279204     4.9563671343    16.8013497728
H       6.4735167125     1.7250163561    10.4918561434
H       9.2340811096     5.2904540136    11.2434376092
H       6.9385033509     1.9968190875    14.3379310601
H       9.4274409323     6.0148713899    15.0880484443
H       6.6214987454     3.4409803426    17.3031702032
124
Step 4 | ATOMIC_POSITIONS (angstrom) | Cartesian Angstrom
NI      0.0000000000     0.0000000000     1.1900000730
NI      1.2286496050     2.1280835410     1.1900000730
NI      2.4572992100     4.2561670810     1.1900000730
NI      3.6859488150     6.3842506220     1.1900000730
NI      4.9145984200     8.5123341620     1.1900000730
NI      2.4572992100     0.0000000000     1.1900000730
NI      3.6859488150     2.1280835410     1.1900000730
NI      4.9145984200     4.2561670810     1.1900000730
NI      6.1432480250     6.3842506220     1.1900000730
NI      7.3718976300     8.5123341620     1.1900000730
NI      4.9145984200     0.0000000000     1.1900000730
NI      6.1432480250     2.1280835410     1.1900000730
NI      7.3718976300     4.2561670810     1.1900000730
NI      8.6005472350     6.3842506220     1.1900000730
NI      9.8291968400     8.5123341620     1.1900000730
NI      7.3718976300     0.0000000000     1.1900000730
NI      8.6005472350     2.1280835410     1.1900000730
NI      9.8291968400     4.2561670810     1.1900000730
NI     11.0578464450     6.3842506220     1.1900000730
NI     12.2864960500     8.5123341620     1.1900000730
NI      9.8291968400     0.0000000000     1.1900000730
NI     11.0578464450     2.1280835410     1.1900000730
NI     12.2864960500     4.2561670810     1.1900000730
NI     13.5151456550     6.3842506220     1.1900000730
NI     14.7437952600     8.5123341620     1.1900000730
NI      1.2286717172     0.7091715584     3.2002789150
NI      2.4576970903     2.8375696863     3.2020361245
NI      3.6866095709     4.9649998609     3.2005715591
NI      4.9150018217     7.0937773075     3.2007227743
NI      6.1434089777     9.2211700506     3.2021932926
NI      3.6859697463     0.7090902967     3.2013006139
NI      4.9137738427     2.8369938714     3.1966985096
NI      6.1428906425     4.9660866112     3.1994863572
NI      7.3716828296     7.0952664036     3.1964768135
NI      8.6005932874     9.2211912472     3.2013272459
NI      6.1430134806     0.7098236915     3.2011845771
NI      7.3710459529     2.8370514991     3.2004929391
NI      8.6006386044     4.9669930706     3.1984585824
NI      9.8285101799     7.0936485011     3.2016016687
NI     11.0576667725     9.2215989740     3.2009534701
NI      8.6008025706     0.7092567263     3.2005167160
NI      9.8300872293     2.8371141004     3.1974406835
NI     11.0573952906     4.9653664793     3.1995348466
NI     12.2863426034     7.0937695464     3.2010263292
NI     13.5150974651     9.2221622818     3.2014951402
NI     11.0584771273     0.7084519935     3.2001795590
NI     12.2873462816     2.8372631496     3.2011370074
NI     13.5150006893     4.9655162376     3.2009525797
NI     14.7439126699     7.0936305043     3.2009857758
NI     15.9725634076     9.2217725853     3.2009616093
NI      2.4566404172     1.4182381709     5.2134722672
NI      3.6869167613     3.5456019828     5.2130408725
NI      4.9165927028     5.6733843388     5.2130106081
NI      6.1441023680     7.8031929803     5.2127676279
NI      7.3718349749     9.9317605494     5.2132172401
NI      4.9142250342     1.4196786711     5.2122689759
NI      6.1513958639     3.5514400824     5.2170697099
NI      7.3716886618     5.6718866638     5.2098599187
NI      8.5991369513     7.8024676448     5.2133138899
NI      9.8294701501     9.9312093879     5.2139828463
NI      7.3731551911     1.4218828114     5.2129583435
NI      8.5965335677     3.5479120954     5.2115347649
NI      9.8268009808     5.6737505954     5.2110733029
NI     11.0581606616     7.8031570046     5.2129588553
NI     12.2869658083     9.9315388920     5.2135497289
NI      9.8295910887     1.4204668647     5.2113172143
NI     11.0582461695     3.5438535219     5.2091989504
NI     12.2861793831     5.6752578906     5.2120882177
NI     13.5149000965     7.8033257245     5.2135318183
NI     14.7432649968     9.9316244818     5.2130581662
NI     12.2871677649     1.4177661337     5.2135094897
NI     13.5142919157     3.5466497115     5.2150105975
NI     14.7437542448     5.6750854933     5.2128063037
NI     15.9719528721     7.8033667939     5.2131525660
NI     17.2005019915     9.9323201549     5.2145743088
NI     -0.0002021540     0.0003954169     7.2244109203
NI      1.2283366127     2.1279041139     7.2239614093
NI      2.4553704952     4.2562270998     7.2240783039
NI      3.6839046040     6.3852854372     7.2261450900
NI      4.9136635792     8.5147084898     7.2239153923
NI      2.4575900779    -0.0001991152     7.2236092131
NI      3.6859503600     2.1268986861     7.2261538158
NI      4.8929681780     4.2554474580     7.2095372018
NI      6.1313645403     6.4057916148     7.2037495840
NI      7.3719408143     8.5136272342     7.2255870382
NI      4.9149802316    -0.0007281059     7.2282901745
NI      6.1330173327     2.1082942568     7.2051476980
NI      7.3645599626     4.2762057156     7.2570936864
NI      8.6120036454     6.4032836653     7.2055012032
NI      9.8304310972     8.5130196710     7.2246636970
NI      7.3715830990    -0.0014004529     7.2329116540
NI      8.6038773855     2.1059726489     7.2165140681
NI      9.8634407178     4.2645484932     7.1847735659
NI     11.0597029939     6.3859515044     7.2290672159
NI     12.2861710559     8.5130726382     7.2227334712
NI      9.8291703976    -0.0011490479     7.2262017511
NI     11.0576441105     2.1282855195     7.2253577831
NI     12.2882012214     4.2568834960     7.2260332192
NI     13.5148819445     6.3842306586     7.2231496989
NI     14.7434149931     8.5128285262     7.2224585042
C       8.1701794685     3.4802057680     9.7987457921
C       7.8816181797     2.8731226387    11.1555948305
C       8.0677062151     4.0105564867    12.1952016663
C       8.0376730612     3.4849315643    13.6410394494
C       8.1589429993     4.6071044228    14.6895767501
C       8.0065758653     4.1134937938    16.1412195037
O       7.3423946948     4.2135147432     9.2201580936
O       6.5671315830     2.3266889660    11.2263135570
O       9.3434809545     4.6276310113    11.9353025104
O       6.7964022220     2.7984006854    13.8085943573
O       9.4459966502     5.2251170608    14.5476025741
O       6.6491094153     3.7247387723    16.3897695496
H       9.1221071331     3.1921162270     9.2828125407
H       8.6929439551     2.1336432986    11.3172025936
H       7.2454989195     4.7272311284    12.0627570782
H       8.8772339191     2.7939523161    13.7651184626
H       7.3383278559     5.3153222220    14.4824000713
H       8.7220863763     3.2850264107    16.3328185488
H       8.2935413052     4.9690231182    16.7935345788
H       6.4571168734     1.7106893258    10.4797517737
H       9.2410306597     5.3002749727    11.2418628043
H       6.9328626215     2.0020267694    14.3434428882
H       9.4404238588     6.0262720484    15.0928173616
H       6.6074733061     3.4382660772    17.3132472748
124
Step 5 | ATOMIC_POSITIONS (angstrom) | Cartesian Angstrom
NI      0.0000000000     0.0000000000     1.1900000730
NI      1.2286496050     2.1280835410     1.1900000730
NI      2.4572992100     4.2561670810     1.1900000730
NI      3.6859488150     6.3842506220     1.1900000730
NI      4.9145984200     8.5123341620     1.1900000730
NI      2.4572992100     0.0000000000     1.1900000730
NI      3.6859488150     2.1280835410     1.1900000730
NI      4.9145984200     4.2561670810     1.1900000730
NI      6.1432480250     6.3842506220     1.1900000730
NI      7.3718976300     8.5123341620     1.1900000730
NI      4.9145984200     0.0000000000     1.1900000730
NI      6.1432480250     2.1280835410     1.1900000730
NI      7.3718976300     4.2561670810     1.1900000730
NI      8.6005472350     6.3842506220     1.1900000730
NI      9.8291968400     8.5123341620     1.1900000730
NI      7.3718976300     0.0000000000     1.1900000730
NI      8.6005472350     2.1280835410     1.1900000730
NI      9.8291968400     4.2561670810     1.1900000730
NI     11.0578464450     6.3842506220     1.1900000730
NI     12.2864960500     8.5123341620     1.1900000730
NI      9.8291968400     0.0000000000     1.1900000730
NI     11.0578464450     2.1280835410     1.1900000730
NI     12.2864960500     4.2561670810     1.1900000730
NI     13.5151456550     6.3842506220     1.1900000730
NI     14.7437952600     8.5123341620     1.1900000730
NI      1.2287710677     0.7091062864     3.2000480273
NI      2.4576315153     2.8375751142     3.2022838687
NI      3.6866017934     4.9649738807     3.2005441100
NI      4.9149634598     7.0938143723     3.2007414385
NI      6.1434123559     9.2212328792     3.2023853521
NI      3.6858970356     0.7089530916     3.2014437200
NI      4.9139462027     2.8371514072     3.1964482651
NI      6.1428274648     4.9660893401     3.1991328808
NI      7.3716340335     7.0954641224     3.1957945056
NI      8.6006608973     9.2212580128     3.2013908400
NI      6.1430166745     0.7098271354     3.2012594062
NI      7.3708862248     2.8370587132     3.2001514618
NI      8.6005476094     4.9670701278     3.1978232103
NI      9.8284825574     7.0938093651     3.2015617976
NI     11.0576106513     9.2216201881     3.2010502156
NI      8.6008169878     0.7092547619     3.2003838077
NI      9.8299830505     2.8371482988     3.1968155012
NI     11.0574505102     4.9654120608     3.1991829905