124
Step 1 | ATOMIC_POSITIONS (angstrom) | Cartesian Angstrom
NI      0.0000000000     0.0000000000     1.1900000730
NI      1.2286496050     2.1280835410     1.1900000730
NI      2.4572992100     4.2561670810     1.1900000730
NI      3.6859488150     6.3842506220     1.1900000730
NI      4.9145984200     8.5123341620     1.1900000730
NI      2.4572992100     0.0000000000     1.1900000730
NI      3.6859488150     2.1280835410     1.1900000730
NI      4.9145984200     4.2561670810     1.1900000730
NI      6.1432480250     6.3842506220     1.1900000730
NI      7.3718976300     8.5123341620     1.1900000730
NI      4.9145984200     0.0000000000     1.1900000730
NI      6.1432480250     2.1280835410     1.1900000730
NI      7.3718976300     4.2561670810     1.1900000730
NI      8.6005472350     6.3842506220     1.1900000730
NI      9.8291968400     8.5123341620     1.1900000730
NI      7.3718976300     0.0000000000     1.1900000730
NI      8.6005472350     2.1280835410     1.1900000730
NI      9.8291968400     4.2561670810     1.1900000730
NI     11.0578464450     6.3842506220     1.1900000730
NI     12.2864960500     8.5123341620     1.1900000730
NI      9.8291968400     0.0000000000     1.1900000730
NI     11.0578464450     2.1280835410     1.1900000730
NI     12.2864960500     4.2561670810     1.1900000730
NI     13.5151456550     6.3842506220     1.1900000730
NI     14.7437952600     8.5123341620     1.1900000730
NI      1.2289825314     0.7078245869     3.1972611471
NI      2.4576476781     2.8358357618     3.2004298598
NI      3.6868732773     4.9636813674     3.1973378806
NI      4.9154395105     7.0927331280     3.1979409699
NI      6.1440020904     9.2197973339     3.2005110405
NI      3.6860265797     0.7078676755     3.2012437707
NI      4.9188934923     2.8382375493     3.2008568058
NI      6.1469489052     4.9634905716     3.2066773863
NI      7.3723737951     7.0879509166     3.2033636981
NI      8.6005274235     9.2198423259     3.2014061212
NI      6.1428441623     0.7090010911     3.1976520401
NI      7.3735616110     2.8395083003     3.2065688104
NI      8.5979234154     4.9630110929     3.2082446265
NI      9.8276979501     7.0924441251     3.1989687280
NI     11.0574255306     9.2207872224     3.2014495831
NI      8.6013271811     0.7086469234     3.1974204297
NI      9.8252392387     2.8389499877     3.2029825809
NI     11.0569293747     4.9633545669     3.1984392434
NI     12.2859695902     7.0926083512     3.2013878606
NI     13.5142291835     9.2204351475     3.2021664906
NI     11.0579580028     0.7082110928     3.1996349602
NI     12.2858497718     2.8361588541     3.2000561781
NI     13.5150298221     4.9643332012     3.2000787900
NI     14.7429759514     7.0924135397     3.2009968215
NI     15.9719686658     9.2203213383     3.2002927603
NI      2.4553351222     1.4155584896     5.2126653598
NI      3.6859982371     3.5424646923     5.2079807398
NI      4.9141479117     5.6737342577     5.2052925088
NI      6.1443723573     7.7996040238     5.2112364867
NI      7.3713789201     9.9293429296     5.2129631976
NI      4.9132429966     1.4179308085     5.2097421314
NI      6.1570898613     3.5521567653     5.2382844194
NI      7.3717466693     5.6548549428     5.2468973553
NI      8.5983652307     7.7981489757     5.2133548981
NI      9.8277609847     9.9289467974     5.2150877268
NI      7.3721698998     1.4150852339     5.2036937906
NI      8.5858280640     3.5539119924     5.2453874592
NI      9.8299993918     5.6732275080     5.2081593565
NI     11.0564878246     7.8009276101     5.2135548304
NI     12.2849155191     9.9297915154     5.2139765586
NI      9.8298565902     1.4176732901     5.2080681021
NI     11.0561212800     3.5432361934     5.2109780109
NI     12.2857964908     5.6715272869     5.2122095521
NI     13.5139748477     7.8006580224     5.2156071781
NI     14.7437153031     9.9292515749     5.2122048320
NI     12.2865507524     1.4160330526     5.2118440973
NI     13.5144661595     3.5436127895     5.2125412825
NI     14.7434126461     5.6713454518     5.2117462389
NI     15.9724114068     7.8007768340     5.2117917827
NI     17.2006699870     9.9287323468     5.2123061322
NI     -0.0013305587    -0.0037134267     7.2230784743
NI      1.2272155059     2.1236879317     7.2230851905
NI      2.4523176927     4.2518294567     7.2272419300
NI      3.6813129079     6.3825521404     7.2253856351
NI      4.9117702315     8.5113147240     7.2260191286
NI      2.4555902644    -0.0031856629     7.2250558261
NI      3.6838443810     2.1238543386     7.2243339521
NI      4.8941210273     4.2556000839     7.1961046902
NI      6.1322215182     6.3928271151     7.2080201751
NI      7.3708342730     8.5099764251     7.2232986580
NI      4.9114561470    -0.0064836422     7.2295126245
NI      6.1371432880     2.1061019380     7.1989805386
NI      7.3721466112     4.2503811638     7.4142336791
NI      8.6093938129     6.3883864659     7.2140228163
NI      9.8293683228     8.5100867460     7.2270148971
NI      7.3714765931    -0.0076713481     7.2276678572
NI      8.6066360959     2.1084480517     7.2015691033
NI      9.8433267332     4.2553262125     7.2098243800
NI     11.0602737642     6.3818108230     7.2275541113
NI     12.2853251955     8.5090646369     7.2241686520
NI      9.8298323134    -0.0059917511     7.2269355671
NI     11.0565427299     2.1240267852     7.2247905722
NI     12.2873588682     4.2515910606     7.2253644650
NI     13.5141915705     6.3800732665     7.2223356551
NI     14.7424570338     8.5084105112     7.2217237610
C       7.9008541308     3.7644192825    10.3127911162
C       7.3095510666     3.4470286718    11.6564545053
C       7.9394381503     4.3480935287    12.7572632192
C       8.0566572652     3.6267378419    14.1158847381
C       8.2575848519     4.6289285831    15.2684071682
C       8.5947031797     3.9555219318    16.6017665317
O       7.1414363340     4.1228127831     9.3993853548
O       5.9052438769     3.5640561162    11.6525011274
O       9.2307985552     4.7546082174    12.3015153400
O       6.8779479703     2.8619180593    14.3357531252
O       9.3642691739     5.4973578425    14.9355526185
O       7.4869096526     3.1298173587    17.0101617430
H       8.9793236231     3.6293019110    10.1383123378
H       7.6026497794     2.3942122933    11.8609061275
H       7.2525851049     5.2098343245    12.8508311417
H       8.9541230377     2.9755105012    14.0498839837
H       7.3217422844     5.2069493710    15.3637935498
H       9.5143760578     3.3605315381    16.4706601267
H       8.7898346764     4.7361052554    17.3583639372
H       5.6451131759     3.8090818595    10.7399553294
H       9.6353657953     5.2501945309    13.0423246949
H       6.8496004275     2.6329248823    15.2874716097
H       9.2718029204     6.3315716076    15.4240464333
H       7.7665542850     2.5681415362    17.7507303515
124
Step 2 | ATOMIC_POSITIONS (angstrom) | Cartesian Angstrom
NI      0.0000000000     0.0000000000     1.1900000730
NI      1.2286496050     2.1280835410     1.1900000730
NI      2.4572992100     4.2561670810     1.1900000730
NI      3.6859488150     6.3842506220     1.1900000730
NI      4.9145984200     8.5123341620     1.1900000730
NI      2.4572992100     0.0000000000     1.1900000730
NI      3.6859488150     2.1280835410     1.1900000730
NI      4.9145984200     4.2561670810     1.1900000730
NI      6.1432480250     6.3842506220     1.1900000730
NI      7.3718976300     8.5123341620     1.1900000730
NI      4.9145984200     0.0000000000     1.1900000730
NI      6.1432480250     2.1280835410     1.1900000730
NI      7.3718976300     4.2561670810     1.1900000730
NI      8.6005472350     6.3842506220     1.1900000730
NI      9.8291968400     8.5123341620     1.1900000730
NI      7.3718976300     0.0000000000     1.1900000730
NI      8.6005472350     2.1280835410     1.1900000730
NI      9.8291968400     4.2561670810     1.1900000730
NI     11.0578464450     6.3842506220     1.1900000730
NI     12.2864960500     8.5123341620     1.1900000730
NI      9.8291968400     0.0000000000     1.1900000730
NI     11.0578464450     2.1280835410     1.1900000730
NI     12.2864960500     4.2561670810     1.1900000730
NI     13.5151456550     6.3842506220     1.1900000730
NI     14.7437952600     8.5123341620     1.1900000730
NI      1.2289125188     0.7078520959     3.1976667535
NI      2.4577668406     2.8358859937     3.2003652471
NI      3.6868020488     4.9635142593     3.1976649641
NI      4.9156379309     7.0926914358     3.1980957172
NI      6.1438311421     9.2195550335     3.2006766759
NI      3.6862042748     0.7082366548     3.2011164853
NI      4.9188111400     2.8382092434     3.2011026528
NI      6.1467973990     4.9634986852     3.2068370546
NI      7.3722025727     7.0875896166     3.2034706352
NI      8.6004679128     9.2195317027     3.2014887509
NI      6.1426530085     0.7089753480     3.1976460517
NI      7.3732002890     2.8393290131     3.2065801480
NI      8.5978889764     4.9632407407     3.2081690486
NI      9.8277467341     7.0923585435     3.1990606692
NI     11.0574052902     9.2207632606     3.2013215629
NI      8.6012456879     0.7085872964     3.1974559831
NI      9.8252698267     2.8389529162     3.2031307559
NI     11.0568662361     4.9634211214     3.1986892190
NI     12.2857929457     7.0924945369     3.2013843279
NI     13.5143742038     9.2206285389     3.2017864685
NI     11.0577953005     0.7082824816     3.1996985326
NI     12.2856953349     2.8362289347     3.2001379667
NI     13.5150332764     4.9640105852     3.2002906920
NI     14.7431860590     7.0923783683     3.2011058062
NI     15.9721771292     9.2204537391     3.2002320366
NI      2.4554667598     1.4156357844     5.2125234431
NI      3.6858204579     3.5424265681     5.2082774289
NI      4.9140196130     5.6736091198     5.2051791943
NI      6.1443614270     7.7998240081     5.2111197175
NI      7.3713306718     9.9293636907     5.2129464212
NI      4.9130829497     1.4178582420     5.2100071249
NI      6.1568761818     3.5519109798     5.2383393369
NI      7.3716353301     5.6548777351     5.2468755622
NI      8.5983766383     7.7983424733     5.2138327931
NI      9.8279245760     9.9288356119     5.2149467267
NI      7.3721382488     1.4153412151     5.2038339882
NI      8.5857374181     3.5535847719     5.2451829400
NI      9.8297245493     5.6730812355     5.2083589376
NI     11.0566055051     7.8008798708     5.2135073158
NI     12.2849824865     9.9299657869     5.2139638031
NI      9.8298762556     1.4176911852     5.2083428066
NI     11.0560251419     3.5430618192     5.2112597519
NI     12.2858609786     5.6715836753     5.2122370421
NI     13.5141823527     7.8005910518     5.2154118468
NI     14.7437280336     9.9295139726     5.2126722110
NI     12.2864437392     1.4160122849     5.2122182346
NI     13.5144198271     3.5437822857     5.2126443260
NI     14.7434957782     5.6712805502     5.2119049657
NI     15.9722966744     7.8007649139     5.2120511489
NI     17.2007675428     9.9288851500     5.2123765676
NI     -0.0011224466    -0.0032577950     7.2236492015
NI      1.2271498300     2.1235413886     7.2232519965
NI      2.4523878206     4.2519238419     7.2273318065
NI      3.6814353377     6.3824853937     7.2255618633
NI      4.9117144676     8.5113812280     7.2259536490
NI      2.4554650909    -0.0029780211     7.2247534238
NI      3.6838931007     2.1239018407     7.2240185724
NI      4.8935822298     4.2557613943     7.1957936557
NI      6.1319886104     6.3928946094     7.2075229588
NI      7.3709383085     8.5099495650     7.2232892045
NI      4.9115598819    -0.0063072279     7.2292390418
NI      6.1369830780     2.1058905824     7.1988839013
NI      7.3720916869     4.2503274828     7.4147249524
NI      8.6093206486     6.3884678759     7.2141886044
NI      9.8293091209     8.5101304353     7.2268120116
NI      7.3716828743    -0.0073218870     7.2275841263
NI      8.6064190692     2.1082409267     7.2009932890
NI      9.8431450639     4.2555409037     7.2097994143
NI     11.0600882556     6.3817694512     7.2277502395
NI     12.2855918987     8.5089293840     7.2240241484
NI      9.8296503189    -0.0057545031     7.2269044074
NI     11.0565634571     2.1240683839     7.2249056963
NI     12.2873176225     4.2516787598     7.2254302647
NI     13.5141448525     6.3803787237     7.2223992789
NI     14.7423956255     8.5085595079     7.2216035378
C       7.9008791046     3.7648224769    10.3126974761
C       7.3094943215     3.4469561804    11.6563358909
C       7.9398079963     4.3478495943    12.7570821605
C       8.0566411281     3.6269186203    14.1158163951
C       8.2578354599     4.6290367949    15.2684596268
C       8.5943687057     3.9556426597    16.6019207797
O       7.1414567982     4.1229436456     9.3990042490
O       5.9053308712     3.5638614330    11.6526483008
O       9.2312450985     4.7544243956    12.3014984501
O       6.8777877559     2.8624817377    14.3352806383
O       9.3645569360     5.4976408323    14.9356650168
O       7.4866534049     3.1297794919    17.0100642023
H       8.9792447640     3.6295043927    10.1383054203
H       7.6022448076     2.3941362330    11.8610518886
H       7.2531046127     5.2093725796    12.8507710397
H       8.9536751205     2.9754545857    14.0502314778
H       7.3220946900     5.2066768434    15.3644119136
H       9.5135013878     3.3603874643    16.4707453771
H       8.7909498101     4.7362492339    17.3582606107
H       5.6457715309     3.8091696496    10.7402264865
H       9.6357217860     5.2507162261    13.0419619368
H       6.8500717772     2.6322540348    15.2865703869
H       9.2719065015     6.3322040614    15.4235438846
H       7.7668325250     2.5681921065    17.7505645397
