168
Step 1 | ATOMIC_POSITIONS (angstrom) | Cartesian Angstrom
NI      0.0000000000     0.0000000000     1.5000000000
NI     15.9724448650     2.1280835410     1.5000000000
NI     17.2010944700     4.2561670810     1.5000000000
NI      3.6859488150     6.3842506220     1.5000000000
NI     19.6583936800     8.5123341620     1.5000000000
NI     20.8870432850    10.6404177020     1.5000000000
NI      2.4572992100     0.0000000000     1.5000000000
NI      3.6859488160     2.1280835410     1.5000000000
NI      4.9145984200     4.2561670810     1.5000000000
NI      6.1432480250     6.3842506220     1.5000000000
NI      7.3718976300     8.5123341620     1.5000000000
NI      8.6005472350    10.6404177020     1.5000000000
NI      4.9145984200     0.0000000000     1.5000000000
NI      6.1432480250     2.1280835410     1.5000000000
NI      7.3718976300     4.2561670810     1.5000000000
NI      8.6005472350     6.3842506220     1.5000000000
NI      9.8291968400     8.5123341620     1.5000000000
NI     11.0578464450    10.6404177020     1.5000000000
NI      7.3718976300     0.0000000000     1.5000000000
NI      8.6005472350     2.1280835410     1.5000000000
NI      9.8291968400     4.2561670810     1.5000000000
NI     11.0578464450     6.3842506220     1.5000000000
NI     12.2864960500     8.5123341620     1.5000000000
NI     13.5151456550    10.6404177020     1.5000000000
NI      9.8291968400     0.0000000000     1.5000000000
NI     11.0578464450     2.1280835410     1.5000000000
NI     12.2864960500     4.2561670810     1.5000000000
NI     13.5151456550     6.3842506220     1.5000000000
NI     14.7437952600     8.5123341620     1.5000000000
NI     15.9724448650    10.6404177020     1.5000000000
NI     12.2864960500     0.0000000000     1.5000000000
NI     13.5151456550     2.1280835410     1.5000000000
NI     14.7437952600     4.2561670810     1.5000000000
NI     15.9724448650     6.3842506220     1.5000000000
NI     17.2010944700     8.5123341620     1.5000000000
NI     18.4297440740    10.6404177020     1.5000000000
NI      1.2286527687     0.7093946935     3.5132325180
NI      2.4573725742     2.8374064134     3.5136216015
NI      3.6860310925     4.9654267458     3.5132383740
NI      4.9145906730     7.0936120702     3.5132806677
NI      6.1433324830     9.2216656309     3.5132963233
NI      7.3719041147    11.3496922163     3.5132430712
NI      3.6859242522     0.7095798748     3.5133662467
NI      4.9143900383     2.8373803887     3.5135451788
NI      6.1435576544     4.9655664970     3.5137837694
NI      7.3719411105     7.0935832053     3.5131970324
NI      8.6005173211     9.2215888213     3.5130853724
NI      9.8292167595    11.3496100304     3.5137094458
NI      6.1431599823     0.7093772990     3.5130811429
NI      7.3720265292     2.8376527260     3.5136489156
NI      8.6000214191     4.9652547405     3.5122584266
NI      9.8292721782     7.0936051116     3.5135641817
NI     11.0578805383     9.2218691077     3.5125837016
NI     12.2864320781    11.3496879470     3.5135766391
NI      8.6004915423     0.7093876047     3.5134149603
NI      9.8292534144     2.8375849043     3.5132913737
NI     11.0577452378     4.9659180530     3.5138298998
NI     12.2862401923     7.0935967211     3.5135076917
NI     13.5150094986     9.2215297676     3.5134800969
NI     14.7437748907    11.3497893163     3.5133852719
NI     11.0578490031     0.7094377283     3.5133042350
NI     12.2865880500     2.8372833662     3.5129294163
NI     13.5155504982     4.9654048300     3.5127933475
NI     14.7438532714     7.0935293092     3.5128796175
NI     15.9723998505     9.2216538517     3.5133164643
NI     17.2011765855    11.3497061215     3.5133174573
NI     13.5152402753     0.7093626709     3.5131929806
NI     14.7438118049     2.8374547598     3.5130352595
NI     15.9723340966     4.9655788288     3.5134400141
NI     17.2011665030     7.0935417060     3.5133969082
NI     18.4297970190     9.2217447940     3.5132523789
NI     19.6583753274    11.3496502502     3.5133278316
NI      2.4572209264     1.4187071020     5.5291810164
NI      3.6859868492     3.5468637020     5.5293064746
NI      4.9143435480     5.6749149294     5.5291988460
NI      6.1433408267     7.8030308340     5.5294899140
NI      7.3718864084     9.9309979260     5.5294162246
NI      8.6004649277    12.0593635710     5.5291556020
NI      4.9146885843     1.4186989749     5.5293958586
NI      6.1433415226     3.5468142744     5.5294958395
NI      7.3721678076     5.6748074809     5.5297080406
NI      8.6009963728     7.8026729309     5.5297133459
NI      9.8293638310     9.9308749344     5.5296768966
NI     11.0577985434    12.0591245670     5.5294510232
NI      7.3719005247     1.4185339541     5.5293136804
NI      8.6006541624     3.5472909443     5.5298757505
NI      9.8305724104     5.6757016120     5.5282393933
NI     11.0576686225     7.8033966012     5.5264376511
NI     12.2861854949     9.9307421083     5.5297305922
NI     13.5152930839    12.0593675367     5.5293657364
NI      9.8293212571     1.4187087996     5.5296176783
NI     11.0579825476     3.5472865017     5.5295396610
NI     12.2861014363     5.6750543683     5.5256418143
NI     13.5146927453     7.8025761751     5.5301680165
NI     14.7438766795     9.9310735955     5.5294859938
NI     15.9724360378    12.0591978904     5.5294097685
NI     12.2863248710     1.4188827968     5.5293892035
NI     13.5153039674     3.5472125800     5.5295742498
NI     14.7434609439     5.6744073398     5.5293196295
NI     15.9723142079     7.8030441984     5.5293990792
NI     17.2010988769     9.9310438544     5.5293238254
NI     18.4297609370    12.0591624972     5.5293334236
NI     14.7437900635     1.4186041251     5.5294653196
NI     15.9724275728     3.5468609613     5.5296734436
NI     17.2012165308     5.6749079817     5.5294084810
NI     18.4297221964     7.8029803045     5.5294276505
NI     19.6584115247     9.9310388471     5.5294546044
NI     20.8870115172    12.0592019898     5.5292781548
NI     -0.0001001206     0.0000555609     7.5425207989
NI     15.9725139591     2.1279884305     7.5425631154
NI     17.2012377646     4.2561598027     7.5426707473
NI      3.6859630123     6.3843362869     7.5425473202
NI     19.6582184445     8.5123742436     7.5425946917
NI     20.8869302285    10.6405173086     7.5425439621
NI      2.4573073700     0.0000928289     7.5425405179
NI      3.6859690543     2.1281322045     7.5426562624
NI      4.9144552821     4.2560841492     7.5426479688
NI      6.1439654416     6.3842295530     7.5425944066
NI      7.3718876642     8.5124227552     7.5425944173
NI      8.6008486488    10.6397856262     7.5426207065
NI      4.9146452292     0.0001698199     7.5425580112
NI      6.1430406726     2.1279631937     7.5425560540
NI      7.3721866643     4.2561059265     7.5429029413
NI      8.5933801409     6.3839136869     7.5391773896
NI      9.8255296359     8.5187863462     7.5379943604
NI     11.0579312316    10.6406778567     7.5427981549
NI      7.3720015931    -0.0000028022     7.5424698705
NI      8.6010841955     2.1289477942     7.5431564973
NI      9.8254746777     4.2495115920     7.5394506211
NI     11.0481398331     6.3888066236     7.4304957630
NI     12.2898959245     8.5186238649     7.5385426630
NI     13.5146851884    10.6394731389     7.5428148453
NI      9.8291276525    -0.0000422156     7.5426482752
NI     11.0575856675     2.1276885848     7.5430459877
NI     12.2852218092     4.2507627967     7.5480722057
NI     13.5271508220     6.3872152538     7.5345495255
NI     14.7439708365     8.5125465651     7.5430142645
NI     15.9724828508    10.6405470280     7.5425564583
NI     12.2865715061    -0.0000964585     7.5426488948
NI     13.5148585567     2.1283429780     7.5424430079
NI     14.7449202004     4.2558921070     7.5419398049
NI     15.9712876917     6.3842426823     7.5428489334
NI     17.2012678334     8.5123309675     7.5426479870
NI     18.4297147231    10.6404096646     7.5425324153
C      11.8055012604     5.5839278677     9.7637933357
C      11.5702327420     5.1024707432    11.1414353964
C      11.7402889811     6.2263544497    12.1944324681
C      11.7276028883     5.6445135389    13.6384234444
C      11.8309920498     6.7927781432    14.6663225048
C      11.6944470031     6.3152741758    16.1222350859
O      11.0348888322     6.4675876495     9.2825912118
O      10.2916595286     4.5217448535    11.2938893155
O      13.0087570566     6.8323574480    11.9910222430
O      10.4790509849     5.0039669785    13.8284992445
O      13.1032923831     7.4084558036    14.5082347543
O      10.3390577957     5.9300536107    16.3702278086
H      12.8131807233     5.3972370841     9.3174807523
H      12.3302612800     4.3520900976    11.3059700321
H      10.9220862134     6.9498819165    12.0332642286
H      12.5744685920     4.9298526819    13.8117879088
H      11.0336419901     7.5332356994    14.5153506816
H      12.3799749097     5.5109224164    16.3797091342
H      11.9582446195     7.1188919405    16.8288977244
H      10.1732487709     3.9360011254    10.5127108032
H      12.9031208022     7.4658266986    11.2587377455
H      10.6272773851     4.1941367444    14.3334361104
H      13.0929589662     8.1929612489    15.0873138803
H      10.3163068794     5.6375772222    17.2971286581
168
Step 2 | ATOMIC_POSITIONS (angstrom) | Cartesian Angstrom
NI      0.0000000000     0.0000000000     1.5000000000
NI     15.9724448650     2.1280835410     1.5000000000
NI     17.2010944700     4.2561670810     1.5000000000
NI      3.6859488150     6.3842506220     1.5000000000
NI     19.6583936800     8.5123341620     1.5000000000
NI     20.8870432850    10.6404177020     1.5000000000
NI      2.4572992100     0.0000000000     1.5000000000
NI      3.6859488160     2.1280835410     1.5000000000
NI      4.9145984200     4.2561670810     1.5000000000
NI      6.1432480250     6.3842506220     1.5000000000
NI      7.3718976300     8.5123341620     1.5000000000
NI      8.6005472350    10.6404177020     1.5000000000
NI      4.9145984200     0.0000000000     1.5000000000
NI      6.1432480250     2.1280835410     1.5000000000
NI      7.3718976300     4.2561670810     1.5000000000
NI      8.6005472350     6.3842506220     1.5000000000
NI      9.8291968400     8.5123341620     1.5000000000
NI     11.0578464450    10.6404177020     1.5000000000
NI      7.3718976300     0.0000000000     1.5000000000
NI      8.6005472350     2.1280835410     1.5000000000
NI      9.8291968400     4.2561670810     1.5000000000
NI     11.0578464450     6.3842506220     1.5000000000
NI     12.2864960500     8.5123341620     1.5000000000
NI     13.5151456550    10.6404177020     1.5000000000
NI      9.8291968400     0.0000000000     1.5000000000
NI     11.0578464450     2.1280835410     1.5000000000
NI     12.2864960500     4.2561670810     1.5000000000
NI     13.5151456550     6.3842506220     1.5000000000
NI     14.7437952600     8.5123341620     1.5000000000
NI     15.9724448650    10.6404177020     1.5000000000
NI     12.2864960500     0.0000000000     1.5000000000
NI     13.5151456550     2.1280835410     1.5000000000
NI     14.7437952600     4.2561670810     1.5000000000
NI     15.9724448650     6.3842506220     1.5000000000
NI     17.2010944700     8.5123341620     1.5000000000
NI     18.4297440740    10.6404177020     1.5000000000
NI      1.2286422852     0.7094034075     3.5131805603
NI      2.4573747741     2.8374096548     3.5139225549
NI      3.6861023844     4.9653286865     3.5131355704
NI      4.9145833824     7.0936440320     3.5132679693
NI      6.1433793811     9.2216491272     3.5133988180
NI      7.3718872914    11.3496358964     3.5132482865
NI      3.6858968590     0.7097358072     3.5134447492
NI      4.9142567009     2.8373357751     3.5137554809
NI      6.1438749514     4.9655671164     3.5143403690
NI      7.3719437500     7.0935860752     3.5131799177
NI      8.6004751948     9.2215262841     3.5129743389
NI      9.8293042567    11.3494192602     3.5142183589
NI      6.1431090586     0.7093894296     3.5128503600
NI      7.3721192832     2.8378538637     3.5140589063
NI      8.5995751078     4.9649745968     3.5114584267
NI      9.8291408402     7.0936334272     3.5132058823
NI     11.0579313919     9.2221390817     3.5119885909
NI     12.2863500440    11.3495675253     3.5139672865
NI      8.6004674294     0.7093421525     3.5135282258
NI      9.8293268451     2.8376490421     3.5133491470
NI     11.0576037312     4.9660471421     3.5137521491
NI     12.2862518682     7.0937083355     3.5130118043
NI     13.5149471294     9.2213877106     3.5137562202
NI     14.7437804138    11.3498052946     3.5134613569
NI     11.0578326046     0.7095018205     3.5134298237
NI     12.2867034471     2.8370902986     3.5126985615
NI     13.5159851445     4.9651841584     3.5123651857
NI     14.7439370579     7.0935221123     3.5125720992
NI     15.9723501330     9.2216349252     3.5134052538
NI     17.2012378895    11.3496569548     3.5134001214
NI     13.5153113121     0.7093346114     3.5131617817
NI     14.7438604401     2.8374649685     3.5127823561
NI     15.9722325485     4.9655994760     3.5136522655
NI     17.2012115825     7.0934969142     3.5134896400
NI     18.4298171851     9.2218043122     3.5132681191
NI     19.6583396966    11.3495667277     3.5134444644
NI      2.4571513093     1.4186980453     5.5290805329
NI      3.6860435239     3.5469121118     5.5292998633
NI      4.9141432840     5.6749399844     5.5291030898
NI      6.1433342655     7.8031360926     5.5295799794
NI      7.3717895059     9.9310326045     5.5294745953
NI      8.6003686444    12.0595467831     5.5290279166
NI      4.9147851394     1.4186583145     5.5294171416
NI      6.1433214012     3.5467465750     5.5295755875
NI      7.3722729367     5.6746203808     5.5295633081
NI      8.6011719545     7.8024868133     5.5298945466
NI      9.8294840494     9.9309748786     5.5296177012
NI     11.0577882359    12.0592503581     5.5294282054
NI      7.3719836629     1.4184124972     5.5293030364
NI      8.6005899416     3.5475816144     5.5297857602
NI      9.8281920210     5.6740841975     5.5219185543
NI     11.0577191428     7.8076923144     5.5190258910
NI     12.2859565571     9.9307141714     5.5296385207
NI     13.5154446614    12.0595128286     5.5293615120
NI      9.8294494710     1.4186475671     5.5297976220
NI     11.0582974755     3.5475635162     5.5299360183
NI     12.2888998895     5.6731119805     5.5184602522
NI     13.5144654720     7.8024479818     5.5305296891
NI     14.7440048544     9.9311740641     5.5295656166
NI     15.9724854981    12.0592546371     5.5295032184
NI     12.2861664778     1.4189688329     5.5293539458
NI     13.5154080942     3.5475983781     5.5295571424
NI     14.7434458799     5.6737384896     5.5284176845
NI     15.9722372147     7.8031581342     5.5293575651
NI     17.2011160820     9.9310857804     5.5292835166
NI     18.4297538489    12.0591886010     5.5292850937
NI     14.7437029329     1.4185669656     5.5295389788
NI     15.9725416822     3.5468237380     5.5297599819
NI     17.2012800981     5.6749382102     5.5294259526
NI     18.4296823013     7.8030340490     5.5295276122
NI     19.6583771164     9.9310702832     5.5295334698
NI     20.8869081209    12.0592817416     5.5292675638
NI     -0.0001833508     0.0001095804     7.5424079628
NI     15.9724953034     2.1278555879     7.5425196847
NI     17.2014107468     4.2562143168     7.5427375352
NI      3.6859269282     6.3843785554     7.5423895430
NI     19.6580671185     8.5123973548     7.5425614906
NI     20.8868811818    10.6406114639     7.5424604950
NI      2.4572974910     0.0000955838     7.5424542409
NI      3.6859841968     2.1281492827     7.5426469682
NI      4.9143528265     4.2560996988     7.5426581189
NI      6.1441522058     6.3842301793     7.5426166501
NI      7.3715913002     8.5126375324     7.5425999895
NI      8.6008455199    10.6396568715     7.5427038162
NI      4.9147637827     0.0002619040     7.5424859752
NI      6.1429889500     2.1278041541     7.5424454978
NI      7.3722876370     4.2558950706     7.5432931291
NI      8.5868428866     6.3832767339     7.5363144276
NI      9.8222498594     8.5251940730     7.5335265106
NI     11.0579864942    10.6411268212     7.5431666511
NI      7.3720538001    -0.0000154332     7.5422066720
NI      8.6013705796     2.1292743213     7.5438511303
NI      9.8220158495     4.2434908399     7.5365410419
NI     11.0425736006     6.3937800561     7.4203709802
NI     12.2926725525     8.5239104932     7.5348238634
NI     13.5145655398    10.6390173326     7.5431132157
NI      9.8290729182    -0.0000555901     7.5426360776
NI     11.0573235333     2.1271896520     7.5437620573
NI     12.2838680324     4.2465020466     7.5534055067
NI     13.5378969406     6.3897780422     7.5263809058
NI     14.7443892455     8.5130796396     7.5435279148
NI     15.9724832579    10.6407006734     7.5424287194
NI     12.2865927125    -0.0001644188     7.5426366796
NI     13.5146147652     2.1283986181     7.5424008441
NI     14.7458631610     4.2555277468     7.5413213053
NI     15.9709169034     6.3843048733     7.5431254988
NI     17.2014215167     8.5123287678     7.5426593700
NI     18.4296358502    10.6404335253     7.5423962885
C      11.8082090706     5.6008210833     9.7794377443
C      11.5643904066     5.0811443415    11.1518673748
C      11.7498931766     6.2153407811    12.1900471859
C      11.7212172281     5.6582386983    13.6408564176
C      11.8404262619     6.7912673159    14.6829099184
C      11.6848477245     6.3172295988    16.1281558635
O      11.0322543473     6.4701877802     9.3102449598
O      10.2747357908     4.5142588103    11.2759029371
O      13.0132123666     6.8373592346    11.9785440124
O      10.4765780630     4.9986637174    13.8260872881
O      13.1120774196     7.4178016760    14.5188732038
O      10.3340068324     5.9254965530    16.3785806999
H      12.8208502445     5.3959749316     9.3134090618
H      12.3477698793     4.3417623575    11.3151081338
H      10.9196080693     6.9463470089    12.0421446501
H      12.5694379121     4.9425822152    13.8023140069
H      11.0256846521     7.5295420810    14.5069616006
H      12.3902347942     5.4979823111    16.3714099577
H      11.9622996980     7.1304612122    16.8214973673
H      10.1680386784     3.9354433358    10.5155097005
H      12.9078527031     7.4680360588    11.2597270545
H      10.6234455913     4.1925540524    14.3374063173
H      13.0976991838     8.1925690227    15.0861481753
H      10.3110479221     5.6376269329    17.2978541871
