124
Step 1 | ATOMIC_POSITIONS (angstrom) | Cartesian Angstrom
NI      0.0000000000     0.0000000000     1.1900000730
NI      1.2286496050     2.1280835410     1.1900000730
NI      2.4572992100     4.2561670810     1.1900000730
NI      3.6859488150     6.3842506220     1.1900000730
NI      4.9145984200     8.5123341620     1.1900000730
NI      2.4572992100     0.0000000000     1.1900000730
NI      3.6859488150     2.1280835410     1.1900000730
NI      4.9145984200     4.2561670810     1.1900000730
NI      6.1432480250     6.3842506220     1.1900000730
NI      7.3718976300     8.5123341620     1.1900000730
NI      4.9145984200     0.0000000000     1.1900000730
NI      6.1432480250     2.1280835410     1.1900000730
NI      7.3718976300     4.2561670810     1.1900000730
NI      8.6005472350     6.3842506220     1.1900000730
NI      9.8291968400     8.5123341620     1.1900000730
NI      7.3718976300     0.0000000000     1.1900000730
NI      8.6005472350     2.1280835410     1.1900000730
NI      9.8291968400     4.2561670810     1.1900000730
NI     11.0578464450     6.3842506220     1.1900000730
NI     12.2864960500     8.5123341620     1.1900000730
NI      9.8291968400     0.0000000000     1.1900000730
NI     11.0578464450     2.1280835410     1.1900000730
NI     12.2864960500     4.2561670810     1.1900000730
NI     13.5151456550     6.3842506220     1.1900000730
NI     14.7437952600     8.5123341620     1.1900000730
NI      1.2286255571     0.7093384946     3.1961559716
NI      2.4573877519     2.8374620714     3.1963287695
NI      3.6860434020     4.9654147060     3.1960703772
NI      4.9146955118     7.0936478443     3.1960890953
NI      6.1432984966     9.2215953056     3.1963738337
NI      3.6859172842     0.7093436911     3.1961895769
NI      4.9143251737     2.8373038335     3.1952928396
NI      6.1432110961     4.9656713098     3.1960028523
NI      7.3718722453     7.0938942422     3.1954120849
NI      8.6005211100     9.2215934314     3.1962357239
NI      6.1431583840     0.7094401250     3.1961817840
NI      7.3717758755     2.8374116373     3.1962549583
NI      8.6005969440     4.9658302150     3.1958760967
NI      9.8290651949     7.0935930752     3.1962884918
NI     11.0578115930     9.2216383224     3.1961775450
NI      8.6006376281     0.7093143926     3.1961178300
NI      9.8294234094     2.8373900128     3.1956361839
NI     11.0577749567     4.9654848377     3.1959447553
NI     12.2864793226     7.0935962990     3.1962278306
NI     13.5151581764     9.2217589285     3.1963133737
NI     11.0579991067     0.7092075181     3.1959636456
NI     12.2866239719     2.8374331363     3.1962136911
NI     13.5150888728     4.9655423847     3.1961721383
NI     14.7437955451     7.0936030900     3.1962041886
NI     15.9724637854     9.2216910932     3.1961501233
NI      2.4571254912     1.4186187931     5.2030078584
NI      3.6861626553     3.5467161657     5.2032804681
NI      4.9151064034     5.6746176860     5.2033361685
NI      6.1434106631     7.8027233441     5.2033659354
NI      7.3718924476     9.9312313145     5.2029368953
NI      4.9147067598     1.4189247583     5.2032199880
NI      6.1446240140     3.5475894421     5.2032848673
NI      7.3718309728     5.6744703834     5.2021665357
NI      8.6003092671     7.8025843851     5.2034366114
NI      9.8291842446     9.9311028390     5.2030372827
NI      7.3720903675     1.4194634427     5.2031205460
NI      8.6000878449     3.5469683034     5.2019965343
NI      9.8286626905     5.6744156904     5.2033141852
NI     11.0579654753     7.8030347514     5.2029022922
NI     12.2865414062     9.9310081179     5.2029053643
NI      9.8291868131     1.4191050934     5.2028629431
NI     11.0575540330     3.5465417165     5.2029944282
NI     12.2865337839     5.6749742762     5.2027420197
NI     13.5151122814     7.8030063271     5.2030103086
NI     14.7437442641     9.9310181684     5.2028574263
NI     12.2866359712     1.4185751810     5.2030462001
NI     13.5149789341     3.5467827076     5.2032805830
NI     14.7437063874     5.6749405327     5.2029085862
NI     15.9723015542     7.8030612147     5.2029886305
NI     17.2010471279     9.9312939011     5.2031965901
NI     -0.0000337887     0.0000368340     7.2097535732
NI      1.2285869697     2.1280971605     7.2096943960
NI      2.4573252832     4.2561746752     7.2096804936
NI      3.6858436676     6.3842650470     7.2100318625
NI      4.9146812907     8.5123594287     7.2096787399
NI      2.4573465499    -0.0000202887     7.2096371525
NI      3.6862162719     2.1280245358     7.2099915855
NI      4.9104661296     4.2560929141     7.2074131853
NI      6.1410543475     6.3881582657     7.2063849910
NI      7.3718768613     8.5122338702     7.2099084142
NI      4.9148241342     0.0002087640     7.2103296215
NI      6.1412123490     2.1239923207     7.2068593571
NI      7.3702415330     4.2597632026     7.2169615146
NI      8.6027818861     6.3879107960     7.2067465760
NI      9.8292013379     8.5120476762     7.2097996881
NI      7.3718637899     0.0000444198     7.2111488249
NI      8.6008758759     2.1234405081     7.2097377134
NI      9.8363472907     4.2579818390     7.2032425145
NI     11.0577944277     6.3841083189     7.2104670007
NI     12.2864250249     8.5124371796     7.2095350698
NI      9.8290912410    -0.0000323415     7.2099559495
NI     11.0578729735     2.1282983908     7.2098325646
NI     12.2861127005     4.2563022367     7.2100096088
NI     13.5151103910     6.3841996180     7.2095856080
NI     14.7437675494     8.5123893440     7.2094903307
C       8.1176438117     3.4272171841     9.7387051707
C       7.8909727576     2.9085773781    11.1350261953
C       8.0607635923     4.0327423212    12.1871863588
C       8.0484686601     3.4511954823    13.6310445136
C       8.1516715761     4.5994180981    14.6589875635
C       8.0152378787     4.1219448205    16.1148826545
O       7.3659208265     4.2478910430     9.1698618824
O       6.6121702286     2.3268329769    11.2847845164
O       9.3299752261     4.6392027586    11.9832781142
O       6.7995270796     2.8105161101    13.8213424642
O       9.4239610128     5.2151157910    14.5010744600
O       6.6595469271     3.7366762322    16.3630886095
H       9.1239674653     3.1989482579     9.3061158543
H       8.6508003901     2.1582167530    11.2996121885
H       7.2427384135     4.7562875845    12.0257063881
H       8.8950852689     2.7364955998    13.8045701613
H       7.3542843619     5.3398813437    14.5080941058
H       8.7005974825     3.3175564271    16.3724516346
H       8.2788825113     4.9255539661    16.8216724971
H       6.4933333403     1.7437141766    10.5068685640
H       9.2234574650     5.2725353697    11.2519006678
H       6.9479716657     2.0008136127    14.3261120508
H       9.4135805270     5.9996242190    15.0800206587
H       6.6369783386     3.4442198795    17.2898702090
