124
Step 1 | ATOMIC_POSITIONS (angstrom) | Cartesian Angstrom
NI      0.0000000000     0.0000000000     1.1900000730
NI      1.2286496050     2.1280835410     1.1900000730
NI      2.4572992100     4.2561670810     1.1900000730
NI      3.6859488150     6.3842506220     1.1900000730
NI      4.9145984200     8.5123341620     1.1900000730
NI      2.4572992100     0.0000000000     1.1900000730
NI      3.6859488150     2.1280835410     1.1900000730
NI      4.9145984200     4.2561670810     1.1900000730
NI      6.1432480250     6.3842506220     1.1900000730
NI      7.3718976300     8.5123341620     1.1900000730
NI      4.9145984200     0.0000000000     1.1900000730
NI      6.1432480250     2.1280835410     1.1900000730
NI      7.3718976300     4.2561670810     1.1900000730
NI      8.6005472350     6.3842506220     1.1900000730
NI      9.8291968400     8.5123341620     1.1900000730
NI      7.3718976300     0.0000000000     1.1900000730
NI      8.6005472350     2.1280835410     1.1900000730
NI      9.8291968400     4.2561670810     1.1900000730
NI     11.0578464450     6.3842506220     1.1900000730
NI     12.2864960500     8.5123341620     1.1900000730
NI      9.8291968400     0.0000000000     1.1900000730
NI     11.0578464450     2.1280835410     1.1900000730
NI     12.2864960500     4.2561670810     1.1900000730
NI     13.5151456550     6.3842506220     1.1900000730
NI     14.7437952600     8.5123341620     1.1900000730
NI      1.2309956487     0.7091621699     3.1992006381
NI      2.4596650495     2.8377114102     3.2008719451
NI      3.6885218088     4.9658584410     3.1979816958
NI      4.9168816037     7.0951355464     3.1988296426
NI      6.1466151833     9.2212959736     3.2006983094
NI      3.6866314362     0.7091497080     3.2005361823
NI      4.9184229876     2.8394292792     3.1996223897
NI      6.1482453875     4.9670289212     3.2046538842
NI      7.3741643511     7.0912995476     3.2027262073
NI      8.6019350148     9.2215113089     3.2015346936
NI      6.1440534106     0.7086747479     3.1957782836
NI      7.3742388904     2.8404369707     3.2002063585
NI      8.5999085383     4.9675119920     3.2017503457
NI      9.8306069034     7.0957896366     3.1984754161
NI     11.0585883167     9.2233344209     3.2015341978
NI      8.6037753808     0.7080949786     3.1949100216
NI      9.8308585390     2.8395081610     3.1983340306
NI     11.0600987161     4.9666802232     3.1972228938
NI     12.2891314379     7.0954289329     3.2012021196
NI     13.5168607470     9.2220570400     3.2031114030
NI     11.0622866140     0.7080902702     3.1986420371
NI     12.2900606332     2.8375573841     3.2003642373
NI     13.5176794538     4.9656598360     3.2008769243
NI     14.7451668085     7.0948973449     3.2021794490
NI     15.9752817605     9.2223659652     3.2018538481
NI      2.4595813698     1.4188381488     5.2131114205
NI      3.6908411627     3.5460939058     5.2102038893
NI      4.9186365369     5.6762517561     5.2061432033
NI      6.1483104126     7.8013987162     5.2114357802
NI      7.3752730443     9.9311661157     5.2153112576
NI      4.9156696462     1.4193026154     5.2060958728
NI      6.1599734663     3.5543194834     5.2297309628
NI      7.3763112055     5.6570205765     5.2441462933
NI      8.6022545245     7.8005010992     5.2134621386
NI      9.8311056698     9.9323018783     5.2154584682
NI      7.3749763501     1.4180371548     5.1953750933
NI      8.5944630894     3.5538598098     5.2242952830
NI      9.8324944238     5.6781632335     5.2030043697
NI     11.0609684788     7.8046719875     5.2121283543
NI     12.2887655073     9.9334028446     5.2148535660
NI      9.8366677260     1.4185036446     5.1997388994
NI     11.0622758446     3.5456237623     5.2061436167
NI     12.2905078714     5.6753357275     5.2114737936
NI     13.5184701489     7.8045608552     5.2169026723
NI     14.7481745078     9.9330832125     5.2145688959
NI     12.2917534647     1.4181274585     5.2127425496
NI     13.5190818708     3.5462047551     5.2139034814
NI     14.7477194496     5.6746879082     5.2126098008
NI     15.9767565983     7.8040563473     5.2136161939
NI     17.2063860678     9.9319923756     5.2145140020
NI      0.0051451000     0.0015774077     7.2278415018
NI      1.2327046343     2.1268159871     7.2241441051
NI      2.4565218999     4.2555348804     7.2271327724
NI      3.6864457993     6.3873828669     7.2258392532
NI      4.9181087879     8.5162989182     7.2253872613
NI      2.4612912540     0.0008140659     7.2267944441
NI      3.6896443656     2.1265050018     7.2243008116
NI      4.8993588741     4.2601255717     7.1997824375
NI      6.1384847040     6.3954333883     7.2104773722
NI      7.3764810413     8.5129895805     7.2230194679
NI      4.9172794376    -0.0035663290     7.2345479297
NI      6.1376820865     2.1049852770     7.1883902070
NI      7.3794432216     4.2541311037     7.3690094384
NI      8.6146257827     6.3929574704     7.2160128565
NI      9.8357133122     8.5153806637     7.2242824769
NI      7.3764415641    -0.0042517087     7.2318377687
NI      8.6156351939     2.1024218858     7.1786118450
NI      9.8560106392     4.2633552565     7.1871259388
NI     11.0667569852     6.3877473222     7.2249192603
NI     12.2909994449     8.5137830008     7.2242833401
NI      9.8370395608    -0.0034238299     7.2297293357
NI     11.0623013810     2.1283937799     7.2222841641
NI     12.2951482927     4.2557738133     7.2247561650
NI     13.5195576106     6.3850440887     7.2242153869
NI     14.7481774662     8.5134252291     7.2233204074
C       8.1253114679     3.3183342315     9.9878193479
C       7.7422992678     2.6839146390    11.3073467867
C       7.9570204131     3.8126324149    12.3467232404
C       8.1371309652     3.3435754971    13.8012118038
C       8.1046986899     4.5492347682    14.7599240709
C       8.0970793872     4.1410661112    16.2333225717
O       7.2699958404     3.9078313205     9.3084989839
O       6.3970098867     2.2489709423    11.3318130137
O       9.1316182462     4.4984906439    11.8971111852
O       7.1611605726     2.3678841607    14.1419500846
O       9.2787967329     5.3463925113    14.4848915188
O       6.7584676201     3.7065245704    16.5468581428
H       9.1730068599     3.2432014547     9.6402701120
H       8.4547388357     1.8583667624    11.5021273495
H       7.0562666972     4.4551912571    12.2768189298
H       9.1455838443     2.8915529322    13.8798499240
H       7.1891561956     5.1350108170    14.5611843449
H       8.8333257826     3.3388766871    16.4044778041
H       8.3783943214     5.0115824549    16.8516423978
H       6.2056226915     1.7904865479    10.4913313582
H       9.4379947271     5.0616970644    12.6383427289
H       6.6492343380     2.6840971129    14.9123924178
H       9.1304773734     6.2513704533    14.8079202008
H       6.7771587519     3.2014245716    17.3758471554
124
Step 2 | ATOMIC_POSITIONS (angstrom) | Cartesian Angstrom
NI      0.0000000000     0.0000000000     1.1900000730
NI      1.2286496050     2.1280835410     1.1900000730
NI      2.4572992100     4.2561670810     1.1900000730
NI      3.6859488150     6.3842506220     1.1900000730
NI      4.9145984200     8.5123341620     1.1900000730
NI      2.4572992100     0.0000000000     1.1900000730
NI      3.6859488150     2.1280835410     1.1900000730
NI      4.9145984200     4.2561670810     1.1900000730
NI      6.1432480250     6.3842506220     1.1900000730
NI      7.3718976300     8.5123341620     1.1900000730
NI      4.9145984200     0.0000000000     1.1900000730
NI      6.1432480250     2.1280835410     1.1900000730
NI      7.3718976300     4.2561670810     1.1900000730
NI      8.6005472350     6.3842506220     1.1900000730
NI      9.8291968400     8.5123341620     1.1900000730
NI      7.3718976300     0.0000000000     1.1900000730
NI      8.6005472350     2.1280835410     1.1900000730
NI      9.8291968400     4.2561670810     1.1900000730
NI     11.0578464450     6.3842506220     1.1900000730
NI     12.2864960500     8.5123341620     1.1900000730
NI      9.8291968400     0.0000000000     1.1900000730
NI     11.0578464450     2.1280835410     1.1900000730
NI     12.2864960500     4.2561670810     1.1900000730
NI     13.5151456550     6.3842506220     1.1900000730
NI     14.7437952600     8.5123341620     1.1900000730
NI      1.2310769747     0.7091373317     3.1992163862
NI      2.4597423450     2.8378036181     3.2010048195
NI      3.6885657995     4.9657777597     3.1980839119
NI      4.9170018817     7.0950325116     3.1989251602
NI      6.1465552869     9.2211477612     3.2008651025
NI      3.6867368077     0.7092207047     3.2006116220
NI      4.9186508770     2.8395987884     3.1995213247
NI      6.1482157106     4.9669590233     3.2047368635
NI      7.3741399723     7.0909843753     3.2027443965
NI      8.6019652428     9.2213673698     3.2016206381
NI      6.1439629530     0.7088269005     3.1957719866
NI      7.3741666679     2.8403966082     3.2004029998
NI      8.5999507754     4.9674991113     3.2019279978
NI      9.8304822821     7.0957361287     3.1984845594
NI     11.0587789437     9.2231967796     3.2015594529
NI      8.6037938565     0.7082125582     3.1949210402
NI      9.8306106919     2.8396889808     3.1981097035
NI     11.0600590200     4.9665299191     3.1971788983
NI     12.2890321952     7.0952496031     3.2012696386
NI     13.5168983176     9.2221260049     3.2030648601
NI     11.0622288515     0.7082046340     3.1986074892
NI     12.2899433936     2.8375933727     3.2003132336
NI     13.5176286048     4.9657383126     3.2008930643
NI     14.7452987164     7.0947498769     3.2021710722
NI     15.9751605749     9.2223112007     3.2018540233
NI      2.4594500558     1.4187769950     5.2130532937
NI      3.6906822472     3.5459857993     5.2102045944
NI      4.9185395228     5.6761710567     5.2062699251
NI      6.1483041984     7.8014949296     5.2114360898
NI      7.3752767781     9.9313550098     5.2152717232
NI      4.9155168530     1.4192833718     5.2061411321
NI      6.1598329183     3.5541870590     5.2297709517
NI      7.3763116478     5.6570007953     5.2441263086
NI      8.6022526539     7.8006691819     5.2134891807
NI      9.8312702992     9.9322136347     5.2154688179
NI      7.3750015690     1.4178330262     5.1955019166
NI      8.5945091222     3.5537324348     5.2242157709
NI      9.8326382192     5.6781404075     5.2029712372
NI     11.0610472589     7.8046546265     5.2121944188
NI     12.2888119073     9.9334190832     5.2149089304
NI      9.8368299813     1.4185297719     5.1997760523
NI     11.0624317845     3.5454203208     5.2060257711
NI     12.2904157684     5.6752404325     5.2115482150
NI     13.5184847773     7.8044675351     5.2166320129
NI     14.7481068911     9.9331895711     5.2146019635
NI     12.2917991609     1.4180934253     5.2126744838
NI     13.5190401571     3.5463215884     5.2138339006
NI     14.7476489143     5.6746601547     5.2126224843
NI     15.9765942931     7.8040837966     5.2135910143
NI     17.2062252532     9.9319727359     5.2145029787
NI      0.0050625422     0.0015610461     7.2277638154
NI      1.2326669280     2.1268392112     7.2240077953
NI      2.4567665005     4.2556342734     7.2270099996
NI      3.6864729505     6.3872574084     7.2257904486
NI      4.9181765451     8.5159741315     7.2252430026
NI      2.4612789015     0.0008282092     7.2266675141
NI      3.6895055199     2.1264236611     7.2242686756
NI      4.8994499314     4.2600119510     7.1998754356
NI      6.1385151476     6.3953971435     7.2105488357
NI      7.3764625073     8.5131045837     7.2230481356
NI      4.9173177956    -0.0033779156     7.2344709448
NI      6.1377625876     2.1052265581     7.1884015583
NI      7.3791451633     4.2542960889     7.3692360063
NI      8.6145510211     6.3928704993     7.2160269438
NI      9.8355095139     8.5150870892     7.2242457031
NI      7.3764319368    -0.0040203301     7.2319003443
NI      8.6155052873     2.1027101725     7.1785731361
NI      9.8558242076     4.2632831988     7.1870820309
NI     11.0665771980     6.3875781309     7.2249832115
NI     12.2910601233     8.5137188709     7.2241716838
NI      9.8368846138    -0.0032858956     7.2297591490
NI     11.0622851869     2.1284190041     7.2223166399
NI     12.2948690890     4.2558067710     7.2247100267
NI     13.5195679805     6.3850320405     7.2241155690
NI     14.7480838497     8.5133552140     7.2231919511
C       8.1255603040     3.3186243233     9.9879050702
C       7.7426453772     2.6843361283    11.3071597410
C       7.9575130966     3.8123773166    12.3469906637
C       8.1372615592     3.3432928674    13.8014129770
C       8.1045940045     4.5495271913    14.7596582839
C       8.0971335128     4.1409642481    16.2332359155
O       7.2696741036     3.9075227365     9.3084575860
O       6.3973278894     2.2497955864    11.3316886440
O       9.1316472991     4.4987797750    11.8975107096
O       7.1613329022     2.3679741274    14.1422255065
O       9.2792047253     5.3463751426    14.4849814214
O       6.7583373060     3.7069354048    16.5475828442
H       9.1730086845     3.2433027063     9.6400754570
H       8.4542886124     1.8585862571    11.5028591246
H       7.0570264453     4.4545912094    12.2766033002
H       9.1457195257     2.8907164257    13.8790774083
H       7.1881134491     5.1350722968    14.5614194684
H       8.8333892238     3.3385932320    16.4047625467
H       8.3781036601     5.0114621826    16.8516334715
H       6.2048702007     1.7910264257    10.4915903591
H       9.4382329215     5.0622919028    12.6384377800
H       6.6495566140     2.6838055946    14.9132409939
H       9.1301223210     6.2510807439    14.8083782660
H       6.7770575064     3.2013482837    17.3763371800
124
Step 3 | ATOMIC_POSITIONS (angstrom) | Cartesian Angstrom
NI      0.0000000000     0.0000000000     1.1900000730
NI      1.2286496050     2.1280835410     1.1900000730
NI      2.4572992100     4.2561670810     1.1900000730
NI      3.6859488150     6.3842506220     1.1900000730
NI      4.9145984200     8.5123341620     1.1900000730
NI      2.4572992100     0.0000000000     1.1900000730
NI      3.6859488150     2.1280835410     1.1900000730
NI      4.9145984200     4.2561670810     1.1900000730
NI      6.1432480250     6.3842506220     1.1900000730
NI      7.3718976300     8.5123341620     1.1900000730
NI      4.9145984200     0.0000000000     1.1900000730
NI      6.1432480250     2.1280835410     1.1900000730
NI      7.3718976300     4.2561670810     1.1900000730
NI      8.6005472350     6.3842506220     1.1900000730
NI      9.8291968400     8.5123341620     1.1900000730
NI      7.3718976300     0.0000000000     1.1900000730
NI      8.6005472350     2.1280835410     1.1900000730
NI      9.8291968400     4.2561670810     1.1900000730
NI     11.0578464450     6.3842506220     1.1900000730
NI     12.2864960500     8.5123341620     1.1900000730
NI      9.8291968400     0.0000000000     1.1900000730
NI     11.0578464450     2.1280835410     1.1900000730
NI     12.2864960500     4.2561670810     1.1900000730
NI     13.5151456550     6.3842506220     1.1900000730
NI     14.7437952600     8.5123341620     1.1900000730
NI      1.2312218135     0.7089995429     3.1992144257
NI      2.4598637063     2.8378812433     3.2011911356
NI      3.6886503106     4.9656921769     3.1982335817
NI      4.9172177255     7.0949292707     3.1990766177
NI      6.1465038190     9.2209073466     3.2011203100
NI      3.6868655704     0.7092353902     3.2007190643
NI      4.9189629097     2.8398231980     3.1993625132
NI      6.1481734210     4.9669190670     3.2048677378
NI      7.3741050497     7.0905893019     3.2027636993
NI      8.6019992693     9.2211426443     3.2017386245
NI      6.1437903082     0.7089902132     3.1957652262
NI      7.3740436230     2.8403192571     3.2007140409
NI      8.5999931517     4.9675529527     3.2021843053
NI      9.8302583484     7.0957330525     3.1984748368
NI     11.0590263097     9.2229806683     3.2015802507
NI      8.6038295074     0.7083349914     3.1949386103
NI      9.8302285529     2.8399321383     3.1977410340
NI     11.0599818648     4.9663541448     3.1970735112
NI     12.2888538724     7.0950255352     3.2013395342
NI     13.5169457788     9.2222192924     3.2029738052
NI     11.0621819030     0.7082839468     3.1985463071
NI     12.2898014607     2.8375847654     3.2002005538
NI     13.5175636973     4.9658841602     3.2008850585
NI     14.7455281301     7.0945656625     3.2021234011
NI     15.9750151582     9.2222071737     3.2018466761
NI      2.4592529411     1.4186002649     5.2129625717
NI      3.6904543902     3.5457855733     5.2102382613
NI      4.9184093965     5.6761065297     5.2065056147
NI      6.1483229531     7.8016754230     5.2114450209
NI      7.3752872903     9.9315937926     5.2151980841
NI      4.9152493883     1.4192150650     5.2062264991
NI      6.1596024943     3.5539949674     5.2298722109
NI      7.3762900851     5.6570318202     5.2441298422
NI      8.6021977546     7.8009765459     5.2135095078
NI      9.8314875876     9.9320549337     5.2154646662
NI      7.3750147129     1.4174771193     5.1957212943
NI      8.5945473877     3.5535499335     5.2241161706
NI      9.8328167376     5.6781696088     5.2029168623
NI     11.0611260170     7.8046737778     5.2122735926
NI     12.2888574694     9.9334293138     5.2149805385
NI      9.8370933189     1.4185180450     5.1998412883
NI     11.0626534532     3.5450753307     5.2058413803
NI     12.2902631396     5.6751344247     5.2116590743
NI     13.5185130631     7.8043648832     5.2161621833
NI     14.7480218865     9.9333204556     5.2146523662
NI     12.2918967190     1.4179458143     5.2125635692
NI     13.5189946245     3.5464568680     5.2137418024
NI     14.7475728073     5.6746551914     5.2126407326
NI     15.9763911510     7.8041480629     5.2135434613
NI     17.2060103336     9.9318965902     5.2144885641
NI      0.0049356388     0.0014739069     7.2276123274
NI      1.2326229767     2.1268279285     7.2237912411
NI      2.4571711783     4.2557692769     7.2268354175
NI      3.6865593832     6.3870851419     7.2257206334
NI      4.9183060340     8.5154681980     7.2249801032
NI      2.4612424274     0.0008093254     7.2264337726
NI      3.6892669310     2.1262589836     7.2242276359
NI      4.8995805037     4.2598309466     7.2000474715
NI      6.1385631835     6.3953957331     7.2106530418
NI      7.3764055401     8.5133215905     7.2230537891
NI      4.9173332060    -0.0030934174     7.2343326969
NI      6.1378430430     2.1056034402     7.1884412738
NI      7.3786386253     4.2545879313     7.3696358889
NI      8.6143580699     6.3927801477     7.2160346032
NI      9.8351399253     8.5146772354     7.2241614058
NI      7.3764050301    -0.0036615224     7.2320150623
NI      8.6152898827     2.1031669608     7.1785338135
NI      9.8554683718     4.2631599122     7.1870217647
NI     11.0662635691     6.3873542753     7.2250969650
NI     12.2911308392     8.5136551885     7.2239666538
NI      9.8366661859    -0.0031133160     7.2298028846
NI     11.0622712382     2.1283936157     7.2223914365
NI     12.2944559737     4.2558290521     7.2246646973
NI     13.5196066066     6.3850235625     7.2239588882
NI     14.7479782663     8.5132647903     7.2229635305
C       8.1258113964     3.3191370247     9.9878447105
C       7.7431191348     2.6848669244    11.3070455748
C       7.9583069828     3.8120405776    12.3473249647
C       8.1376202877     3.3430068051    13.8016056798
C       8.1043515450     4.5496743254    14.7594213440
C       8.0971532889     4.1408026640    16.2332871913
O       7.2693393812     3.9069389225     9.3085356504
O       6.3976342393     2.2512374019    11.3316273220
O       9.1319313710     4.4992410816    11.8981036054
O       7.1613906753     2.3679819214    14.1428508140
O       9.2794692274     5.3463588293    14.4852410259
O       6.7581601469     3.7075441874    16.5487168562
H       9.1730972152     3.2435509080     9.6397233680
H       8.4537074867     1.8588326384    11.5039933446
H       7.0580061882     4.4537820393    12.2763312125
H       9.1458687312     2.8894194329    13.8779575212
H       7.1868691594     5.1349721210    14.5618071719
H       8.8333523259     3.3382609501    16.4051631053
H       8.3777241443     5.0112879180    16.8516239546
H       6.2037104697     1.7920309678    10.4920447340
H       9.4385828533     5.0632979256    12.6386728275
H       6.6502199134     2.6833093216    14.9146333503
H       9.1296338586     6.2506948799    14.8091809085
H       6.7769483636     3.2012873502    17.3771289427
124
Step 4 | ATOMIC_POSITIONS (angstrom) | Cartesian Angstrom
NI      0.0000000000     0.0000000000     1.1900000730
NI      1.2286496050     2.1280835410     1.1900000730
NI      2.4572992100     4.2561670810     1.1900000730
NI      3.6859488150     6.3842506220     1.1900000730
NI      4.9145984200     8.5123341620     1.1900000730
NI      2.4572992100     0.0000000000     1.1900000730
NI      3.6859488150     2.1280835410     1.1900000730
NI      4.9145984200     4.2561670810     1.1900000730
NI      6.1432480250     6.3842506220     1.1900000730
NI      7.3718976300     8.5123341620     1.1900000730
NI      4.9145984200     0.0000000000     1.1900000730
NI      6.1432480250     2.1280835410     1.1900000730
NI      7.3718976300     4.2561670810     1.1900000730
NI      8.6005472350     6.3842506220     1.1900000730
NI      9.8291968400     8.5123341620     1.1900000730
NI      7.3718976300     0.0000000000     1.1900000730
NI      8.6005472350     2.1280835410     1.1900000730
NI      9.8291968400     4.2561670810     1.1900000730
NI     11.0578464450     6.3842506220     1.1900000730
NI     12.2864960500     8.5123341620     1.1900000730
NI      9.8291968400     0.0000000000     1.1900000730
NI     11.0578464450     2.1280835410     1.1900000730
NI     12.2864960500     4.2561670810     1.1900000730
NI     13.5151456550     6.3842506220     1.1900000730
NI     14.7437952600     8.5123341620     1.1900000730
NI      1.2314169822     0.7087992078     3.1991523402
NI      2.4600199900     2.8379656083     3.2014190283
NI      3.6887691762     4.9655661075     3.1984441593
NI      4.9175036196     7.0947709475     3.1992966308
NI      6.1464351076     9.2205952580     3.2014495314
NI      3.6870373520     0.7092306776     3.2008473536
NI      4.9193491699     2.8401129065     3.1991526636
NI      6.1481195477     4.9668490858     3.2050738773
NI      7.3740517708     7.0900602150     3.2027972680
NI      8.6020518259     9.2208525411     3.2018766968
NI      6.1435602194     0.7091979331     3.1957724748
NI      7.3738649441     2.8402054279     3.2011633463
NI      8.6000181098     4.9676103522     3.2025450051
NI      9.8299593517     7.0957244599     3.1984726492
NI     11.0593681553     9.2226893649     3.2016011287
NI      8.6038712747     0.7085056018     3.1949754262
NI      9.8296977014     2.8402286301     3.1972438447
NI     11.0598700653     4.9661121317     3.1969320202
NI     12.2886124255     7.0947097635     3.2014170137
NI     13.5170116140     9.2223443961     3.2028287065
NI     11.0621260050     0.7083635683     3.1984500352
NI     12.2896448995     2.8375361997     3.2000163453
NI     13.5174818716     4.9660675899     3.2008648814
NI     14.7458445267     7.0943063574     3.2020126669
NI     15.9748191445     9.2220681346     3.2018233820
NI      2.4589924182     1.4183563324     5.2128019739
NI      3.6901610393     3.5454894715     5.2102819730
NI      4.9182350311     5.6760128569     5.2068580305
NI      6.1483578101     7.8018876971     5.2114678470
NI      7.3752899788     9.9318938877     5.2150718941
NI      4.9148918139     1.4191398999     5.2063313653
NI      6.1592998195     3.5537383429     5.2300164664
NI      7.3762532915     5.6570318458     5.2441782535
NI      8.6020972025     7.8013530717     5.2135364454
NI      9.8318010875     9.9318236838     5.2154446831
NI      7.3750126222     1.4170004941     5.1960280985
NI      8.5945623048     3.5533158884     5.2239814553
NI      9.8330390165     5.6781965181     5.2028665992
NI     11.0612296437     7.8046701692     5.2124011969
NI     12.2889323464     9.9334331905     5.2150731546
NI      9.8374333828     1.4185223658     5.1999160833
NI     11.0629062239     3.5445896794     5.2055726966
NI     12.2900334475     5.6749824926     5.2118257080
NI     13.5185360690     7.8042242765     5.2154598251
NI     14.7478950473     9.9334884126     5.2147222512
NI     12.2920193948     1.4177344692     5.2123717038
NI     13.5189164396     3.5466346984     5.2136101841
NI     14.7474604194     5.6746477375     5.2126406898
NI     15.9761139999     7.8042145645     5.2134536721
NI     17.2056878702     9.9317882520     5.2144614857
NI      0.0047077748     0.0013393495     7.2273883718
NI      1.2325354687     2.1268431882     7.2234674465
NI      2.4576685885     4.2559410436     7.2265861122
NI      3.6866670847     6.3868511522     7.2256394791
NI      4.9184308495     8.5147969739     7.2245958221
NI      2.4611969088     0.0007576451     7.2260987396
NI      3.6889239669     2.1260324043     7.2241845914
NI      4.8997324783     4.2595617085     7.2003162693
NI      6.1386363322     6.3953992510     7.2108132202
NI      7.3763045766     8.5136193147     7.2230708332
NI      4.9173501248    -0.0027409040     7.2341432049
NI      6.1379096266     2.1061217739     7.1885162774
NI      7.3779027219     4.2550270197     7.3701990322
NI      8.6140471475     6.3926393470     7.2160317371
NI      9.8346571918     8.5141316929     7.2240555119
NI      7.3763474184    -0.0031734689     7.2322205487
NI      8.6149930652     2.1038264207     7.1784669659
NI      9.8549206091     4.2629798364     7.1868958108
NI     11.0658185048     6.3870507003     7.2252837828
NI     12.2911996405     8.5135728372     7.2236500556
NI      9.8363452003    -0.0028937424     7.2298765978
NI     11.0622317124     2.1283522319     7.2225086881
NI     12.2938982891     4.2558488619     7.2246024877
NI     13.5196244534     6.3849964023     7.2237167985
NI     14.7478231493     8.5131570025     7.2226134869
C       8.1265101542     3.3195268739     9.9880267893
C       7.7437680217     2.6855477907    11.3069605569
C       7.9593985846     3.8118098690    12.3476889116
C       8.1380793689     3.3424765231    13.8018570753
C       8.1040348547     4.5495603957    14.7593668452
C       8.0970259212     4.1405531813    16.2334834371
O       7.2686216781     3.9062935267     9.3084302119
O       6.3977883408     2.2535328001    11.3316551189
O       9.1326746051     4.4999441772    11.8989951452
O       7.1614584293     2.3679974792    14.1438392989
O       9.2793828896     5.3463188379    14.4857482225
O       6.7579104304     3.7083814232    16.5503783113
H       9.1733006583     3.2440679505     9.6391172665
H       8.4530094997     1.8590315725    11.5055807589
H       7.0592486141     4.4527480151    12.2760171476
H       9.1460291526     2.8875483084    13.8764547922
H       7.1854938727     5.1345343878    14.5623603164
H       8.8331583656     3.3378564847    16.4057070928
H       8.3773057420     5.0111135549    16.8516249428
H       6.2020507836     1.7937919263    10.4928367770
H       9.4390104918     5.0648118700    12.6390477211
H       6.6514213444     2.6825575595    14.9167893341
H       9.1289668330     6.2502325763    14.8104951123
H       6.7768573176     3.2012703284    17.3783385077
124
Step 5 | ATOMIC_POSITIONS (angstrom) | Cartesian Angstrom
NI      0.0000000000     0.0000000000     1.1900000730
NI      1.2286496050     2.1280835410     1.1900000730
NI      2.4572992100     4.2561670810     1.1900000730
NI      3.6859488150     6.3842506220     1.1900000730
NI      4.9145984200     8.5123341620     1.1900000730
NI      2.4572992100     0.0000000000     1.1900000730
NI      3.6859488150     2.1280835410     1.1900000730
NI      4.9145984200     4.2561670810     1.1900000730
NI      6.1432480250     6.3842506220     1.1900000730
NI      7.3718976300     8.5123341620     1.1900000730
NI      4.9145984200     0.0000000000     1.1900000730
NI      6.1432480250     2.1280835410     1.1900000730
NI      7.3718976300     4.2561670810     1.1900000730
NI      8.6005472350     6.3842506220     1.1900000730
NI      9.8291968400     8.5123341620     1.1900000730
NI      7.3718976300     0.0000000000     1.1900000730
NI      8.6005472350     2.1280835410     1.1900000730
NI      9.8291968400     4.2561670810     1.1900000730
NI     11.0578464450     6.3842506220     1.1900000730
NI     12.2864960500     8.5123341620     1.1900000730
NI      9.8291968400     0.0000000000     1.1900000730
NI     11.0578464450     2.1280835410     1.1900000730
NI     12.2864960500     4.2561670810     1.1900000730
NI     13.5151456550     6.3842506220     1.1900000730
NI     14.7437952600     8.5123341620     1.1900000730
NI      1.2316892358     0.7084998821     3.1989353060
NI      2.4602220348     2.8380586525     3.2016852514
NI      3.6889453702     4.9653537594     3.1987536850
NI      4.9179060134     7.0944969645     3.1996273568
NI      6.1463383354     9.2201679826     3.2018706619
NI      3.6872769116     0.7091897560     3.2009834002
NI      4.9198269358     2.8405061725     3.1988572440
NI      6.1480477003     4.9667152525     3.2054225946
NI      7.3739657184     7.0893062339     3.2028551913
NI      8.6021376689     9.2204537283     3.2020220349
NI      6.1432406192     0.7094778593     3.1958075807
NI      7.3735811812     2.8400361503     3.2018516418
NI      8.5999948340     4.9676635428     3.2030890560
NI      9.8295447259     7.0956849085     3.1984977221
NI     11.0598673166     9.2222624865     3.2016159619
NI      8.6039178903     0.7087627259     3.1950503967
NI      9.8289281226     2.8406004400     3.1965463339
NI     11.0596986458     4.9657528798     3.1967462807