124
Step 1 | ATOMIC_POSITIONS (angstrom) | Cartesian Angstrom
NI      0.0000000000     0.0000000000     1.1900000730
NI      1.2286496050     2.1280835410     1.1900000730
NI      2.4572992100     4.2561670810     1.1900000730
NI      3.6859488150     6.3842506220     1.1900000730
NI      4.9145984200     8.5123341620     1.1900000730
NI      2.4572992100     0.0000000000     1.1900000730
NI      3.6859488150     2.1280835410     1.1900000730
NI      4.9145984200     4.2561670810     1.1900000730
NI      6.1432480250     6.3842506220     1.1900000730
NI      7.3718976300     8.5123341620     1.1900000730
NI      4.9145984200     0.0000000000     1.1900000730
NI      6.1432480250     2.1280835410     1.1900000730
NI      7.3718976300     4.2561670810     1.1900000730
NI      8.6005472350     6.3842506220     1.1900000730
NI      9.8291968400     8.5123341620     1.1900000730
NI      7.3718976300     0.0000000000     1.1900000730
NI      8.6005472350     2.1280835410     1.1900000730
NI      9.8291968400     4.2561670810     1.1900000730
NI     11.0578464450     6.3842506220     1.1900000730
NI     12.2864960500     8.5123341620     1.1900000730
NI      9.8291968400     0.0000000000     1.1900000730
NI     11.0578464450     2.1280835410     1.1900000730
NI     12.2864960500     4.2561670810     1.1900000730
NI     13.5151456550     6.3842506220     1.1900000730
NI     14.7437952600     8.5123341620     1.1900000730
NI      1.2286061181     0.7093413873     3.2004695115
NI      2.4574215793     2.8374643746     3.2006757867
NI      3.6861065269     4.9653900051     3.2004387022
NI      4.9147332381     7.0936248598     3.2004387832
NI      6.1432829118     9.2215788869     3.2006965448
NI      3.6859571954     0.7093666384     3.2005353841
NI      4.9143720414     2.8373142272     3.1996594270
NI      6.1432290123     4.9656505348     3.2003882421
NI      7.3718581362     7.0938586515     3.1997570601
NI      8.6005149929     9.2215689382     3.2005672484
NI      6.1431834933     0.7094797808     3.2005490303
NI      7.3717581820     2.8374120522     3.2006367150
NI      8.6005528801     4.9658123584     3.2002516123
NI      9.8290322823     7.0935767686     3.2006523262
NI     11.0578275431     9.2216608501     3.2005437533
NI      8.6006254595     0.7093412657     3.2004633290
NI      9.8293829639     2.8373742406     3.1999883330
NI     11.0577328850     4.9654646250     3.2003021425
NI     12.2864610953     7.0936114607     3.2006052312
NI     13.5151618598     9.2218163766     3.2006818585
NI     11.0579663181     0.7092107921     3.2002779693
NI     12.2865981894     2.8374187073     3.2005466056
NI     13.5150927076     4.9655233603     3.2005341104
NI     14.7438213184     7.0936165107     3.2005737318
NI     15.9724642195     9.2217242193     3.2004889664
NI      2.4571431630     1.4186318337     5.2133214754
NI      3.6862278141     3.5467160798     5.2136144006
NI      4.9151658783     5.6745882181     5.2136788718
NI      6.1434214871     7.8026802902     5.2136855246
NI      7.3718734437     9.9312099401     5.2132363001
NI      4.9147662056     1.4189635302     5.2135569604
NI      6.1446515411     3.5475995606     5.2135982948
NI      7.3718126550     5.6744551502     5.2124595868
NI      8.6002823641     7.8025356636     5.2137697771
NI      9.8292087784     9.9311006460     5.2133658063
NI      7.3720969875     1.4194967230     5.2134453313
NI      8.6000684353     3.5469520233     5.2122712327
NI      9.8286090096     5.6743805151     5.2136712061
NI     11.0579540879     7.8030410083     5.2132569681
NI     12.2865619953     9.9310436832     5.2132471964
NI      9.8291426582     1.4191266133     5.2131896368
NI     11.0574997106     3.5465195898     5.2133267882
NI     12.2865099269     5.6749736103     5.2130929063
NI     13.5151118314     7.8030409626     5.2133649801
NI     14.7437380357     9.9310596019     5.2131883802
NI     12.2866002037     1.4185749249     5.2133524083
NI     13.5149740618     3.5467746526     5.2136147125
NI     14.7437375609     5.6749333263     5.2132572144
NI     15.9723232080     7.8030727916     5.2133239129
NI     17.2010245009     9.9313028426     5.2135059860
NI     -0.0000654706     0.0000363185     7.2239913733
NI      1.2285746693     2.1281041094     7.2239395754
NI      2.4573574650     4.2561735179     7.2239249159
NI      3.6858798515     6.3842546921     7.2242814203
NI      4.9146854198     8.5123476693     7.2239121642
NI      2.4573560362    -0.0000240949     7.2238830443
NI      3.6862649863     2.1280430964     7.2242304865
NI      4.9104385748     4.2560912368     7.2215791519
NI      6.1410430693     6.3881858559     7.2205545396
NI      7.3718661290     8.5121915633     7.2241605893
NI      4.9148719137     0.0002341511     7.2245792790
NI      6.1411853206     2.1239391114     7.2210070923
NI      7.3700458277     4.2599146529     7.2296146758
NI      8.6027865406     6.3879472395     7.2209317374
NI      9.8292009264     8.5120143862     7.2240538241
NI      7.3718659081     0.0000584030     7.2253910288
NI      8.6008032440     2.1234203670     7.2241201432
NI      9.8364545721     4.2580341178     7.2173740553
NI     11.0577686436     6.3841049029     7.2247455387
NI     12.2864260295     8.5124622369     7.2237803090
NI      9.8290655577    -0.0000163797     7.2241744288
NI     11.0578583365     2.1282883983     7.2240459789
NI     12.2860779424     4.2563009820     7.2242687718
NI     13.5151065709     6.3842033569     7.2238483598
NI     14.7437704033     8.5124227895     7.2237342571
C       8.1180557439     3.4257576274     9.7392885675
C       7.8909760115     2.9086501588    11.1349295309
C       8.0607678128     4.0327529955    12.1871776964
C       8.0484692616     3.4512029797    13.6310339498
C       8.1516717409     4.5994168907    14.6589803028
C       8.0152382058     4.1219468062    16.1148682423
O       7.3654055803     4.2488022924     9.1710843920
O       6.6121763327     2.3268929989    11.2848332472
O       9.3299412254     4.6391950719    11.9832808903
O       6.7995442998     2.8105290131    13.8213300699
O       9.4239465977     5.2151068917    14.5010656847
O       6.6595494012     3.7366797025    16.3630732795
H       9.1242468884     3.1991303737     9.3062314476
H       8.6508039436     2.1582399680    11.2995605628
H       7.2427363425     4.7562977569    12.0257075418
H       8.8950885151     2.7364945993    13.8045579919
H       7.3542816143     5.3398848114    14.5080828749
H       8.7006002087     3.3175510143    16.3724434056
H       8.2788829325     4.9255590035    16.8216676248
H       6.4933599270     1.7436781600    10.5067990119
H       9.2234679327     5.2725288652    11.2518770546
H       6.9479728642     2.0008103564    14.3261018428
H       9.4135792431     5.9996217862    15.0800090627
H       6.6369784950     3.4442229086    17.2898494380
124
Step 2 | ATOMIC_POSITIONS (angstrom) | Cartesian Angstrom
NI      0.0000000000     0.0000000000     1.1900000730
NI      1.2286496050     2.1280835410     1.1900000730
NI      2.4572992100     4.2561670810     1.1900000730
NI      3.6859488150     6.3842506220     1.1900000730
NI      4.9145984200     8.5123341620     1.1900000730
NI      2.4572992100     0.0000000000     1.1900000730
NI      3.6859488150     2.1280835410     1.1900000730
NI      4.9145984200     4.2561670810     1.1900000730
NI      6.1432480250     6.3842506220     1.1900000730
NI      7.3718976300     8.5123341620     1.1900000730
NI      4.9145984200     0.0000000000     1.1900000730
NI      6.1432480250     2.1280835410     1.1900000730
NI      7.3718976300     4.2561670810     1.1900000730
NI      8.6005472350     6.3842506220     1.1900000730
NI      9.8291968400     8.5123341620     1.1900000730
NI      7.3718976300     0.0000000000     1.1900000730
NI      8.6005472350     2.1280835410     1.1900000730
NI      9.8291968400     4.2561670810     1.1900000730
NI     11.0578464450     6.3842506220     1.1900000730
NI     12.2864960500     8.5123341620     1.1900000730
NI      9.8291968400     0.0000000000     1.1900000730
NI     11.0578464450     2.1280835410     1.1900000730
NI     12.2864960500     4.2561670810     1.1900000730
NI     13.5151456550     6.3842506220     1.1900000730
NI     14.7437952600     8.5123341620     1.1900000730
NI      1.2286011001     0.7092978900     3.2005451709
NI      2.4575866144     2.8374911111     3.2011131722
NI      3.6862977483     4.9652307722     3.2004780080
NI      4.9148487668     7.0936687101     3.2005191167
NI      6.1433331578     9.2214137715     3.2012089471
NI      3.6859976849     0.7093124585     3.2007728992
NI      4.9140571177     2.8371034242     3.1985522321
NI      6.1431484793     4.9658190414     3.2002216080
NI      7.3718131347     7.0943013094     3.1987351079
NI      8.6005345400     9.2214149813     3.2008458060
NI      6.1430928763     0.7095942885     3.2007701544
NI      7.3715327959     2.8372905132     3.2008040698
NI      8.6005978398     4.9662390410     3.1998494360
NI      9.8288510975     7.0935739848     3.2010143618
NI     11.0578180972     9.2216290692     3.2007139313
NI      8.6006856997     0.7092790811     3.2005376696
NI      9.8296645748     2.8372666954     3.1992632625
NI     11.0575941563     4.9654200427     3.2001027152
NI     12.2864368494     7.0936712878     3.2008189009
NI     13.5151502349     9.2219560568     3.2010349794
NI     11.0581244681     0.7089671114     3.2001961534
NI     12.2867824262     2.8373919288     3.2007900421
NI     13.5150344319     4.9655639510     3.2006863118
NI     14.7438237922     7.0936509454     3.2007705553
NI     15.9724440650     9.2217403170     3.2006429062
NI      2.4569710829     1.4184802264     5.2133378231
NI      3.6865895548     3.5464823048     5.2138376131
NI      4.9158760761     5.6741443102     5.2139749942
NI      6.1436573851     7.8024559833     5.2139662134
NI      7.3718736298     9.9314269439     5.2131683965
NI      4.9148666382     1.4192543969     5.2136292598
NI      6.1468738930     3.5488206740     5.2143427752
NI      7.3717097964     5.6736954782     5.2113158661
NI      8.5999176911     7.8021076002     5.2141822074
NI      9.8292826691     9.9311681778     5.2134697836
NI      7.3724222220     1.4205386827     5.2135740473
NI      8.5991513758     3.5471806266     5.2112013943
NI      9.8278197592     5.6737942701     5.2137700673
NI     11.0581134381     7.8031510381     5.2131183624
NI     12.2866740735     9.9310796872     5.2131638994
NI      9.8290952547     1.4196783159     5.2128609582
NI     11.0572221515     3.5459355429     5.2128915707
NI     12.2864981158     5.6751315364     5.2127068396
NI     13.5150471704     7.8031665658     5.2133845225
NI     14.7435849530     9.9311159412     5.2130190221
NI     12.2867671881     1.4183373396     5.2134215746
NI     13.5147260877     3.5467369938     5.2140675311
NI     14.7436800911     5.6750288281     5.2131069200
NI     15.9721177893     7.8032095668     5.2132879753
NI     17.2008727239     9.9316527653     5.2138255726
NI     -0.0001511396     0.0001104400     7.2240973025
NI      1.2284879133     2.1281033738     7.2239340303
NI      2.4571960767     4.2561893133     7.2239294460
NI      3.6855783237     6.3843810679     7.2248299937
NI      4.9146412724     8.5126254063     7.2238761938
NI      2.4574738633    -0.0000708905     7.2237657664
NI      3.6865779677     2.1278583085     7.2247490035
NI      4.9042059674     4.2558944282     7.2178129610
NI      6.1376683014     6.3942274125     7.2152014365
NI      7.3718547266     8.5122143486     7.2245444613
NI      4.9151843191     0.0003675949     7.2256456811
NI      6.1381534852     2.1179225772     7.2162379127
NI      7.3678163513     4.2653362328     7.2375407409
NI      8.6061340355     6.3934830845     7.2161029105
NI      9.8293660902     8.5118172865     7.2242043985
NI      7.3717860112    -0.0000126975     7.2277298728
NI      8.6015537778     2.1167491682     7.2233338323
NI      9.8468013051     4.2605356871     7.2071196527
NI     11.0579201738     6.3841930773     7.2260312882
NI     12.2863196563     8.5126857211     7.2234506399
NI      9.8289015876    -0.0001434111     7.2246563570
NI     11.0577806594     2.1284882383     7.2243570584
NI     12.2859038404     4.2565190796     7.2247810207
NI     13.5150376811     6.3841703689     7.2236403605
NI     14.7436929000     8.5125744422     7.2233440812
C       8.1406102612     3.4556460480     9.7653489397
C       7.8766956025     2.8869249578    11.1311505562
C       8.0710208205     4.0187983934    12.1738043334
C       8.0382515165     3.4721664465    13.6381152557
C       8.1622879900     4.6051366571    14.6864452841
C       8.0078201885     4.1191249780    16.1317290960
O       7.3561849251     4.2361006325     9.1833209659
O       6.5884136385     2.3220562788    11.2660881852
O       9.3394596094     4.6441719039    11.9685016142
O       6.7952726224     2.8026616455    13.8171291960
O       9.4396936642     5.2251744795    14.5123835787
O       6.6474498765     3.7304088432    16.3715582815
H       9.1234646126     3.1926278287     9.2959757799
H       8.6732587835     2.1510136225    11.3064899241
H       7.2401566400     4.7501333169    12.0410640752
H       8.8885634498     2.7539522197    13.7903754554
H       7.3442368080     5.3314789146    14.4946321816
H       8.7132128610     3.3023249325    16.3585320569
H       8.2845440515     4.9420596271    16.8079852755
H       6.4855896876     1.7392183400    10.5051440827
H       9.2291403334     5.2780578836    11.2510883096
H       6.9425812241     1.9977259096    14.3320822741
H       9.4191471233     6.0013369343    15.0804837099
H       6.6306615891     3.4439521743    17.2927648682
124
Step 3 | ATOMIC_POSITIONS (angstrom) | Cartesian Angstrom
NI      0.0000000000     0.0000000000     1.1900000730
NI      1.2286496050     2.1280835410     1.1900000730
NI      2.4572992100     4.2561670810     1.1900000730
NI      3.6859488150     6.3842506220     1.1900000730
NI      4.9145984200     8.5123341620     1.1900000730
NI      2.4572992100     0.0000000000     1.1900000730
NI      3.6859488150     2.1280835410     1.1900000730
NI      4.9145984200     4.2561670810     1.1900000730
NI      6.1432480250     6.3842506220     1.1900000730
NI      7.3718976300     8.5123341620     1.1900000730
NI      4.9145984200     0.0000000000     1.1900000730
NI      6.1432480250     2.1280835410     1.1900000730
NI      7.3718976300     4.2561670810     1.1900000730
NI      8.6005472350     6.3842506220     1.1900000730
NI      9.8291968400     8.5123341620     1.1900000730
NI      7.3718976300     0.0000000000     1.1900000730
NI      8.6005472350     2.1280835410     1.1900000730
NI      9.8291968400     4.2561670810     1.1900000730
NI     11.0578464450     6.3842506220     1.1900000730
NI     12.2864960500     8.5123341620     1.1900000730
NI      9.8291968400     0.0000000000     1.1900000730
NI     11.0578464450     2.1280835410     1.1900000730
NI     12.2864960500     4.2561670810     1.1900000730
NI     13.5151456550     6.3842506220     1.1900000730
NI     14.7437952600     8.5123341620     1.1900000730
NI      1.2286262312     0.7092516337     3.2005024647
NI      2.4576766841     2.8375355744     3.2015314938
NI      3.6864484161     4.9651156178     3.2005259608
NI      4.9149259710     7.0937066906     3.2006102849
NI      6.1433747374     9.2212699987     3.2016722193
NI      3.6860128278     0.7092347765     3.2010168862
NI      4.9138571516     2.8369994276     3.1976491315
NI      6.1430333931     4.9659551789     3.1999380578
NI      7.3717626676     7.0947326019     3.1977482668
NI      8.6005625782     9.2212866433     3.2010890438
NI      6.1430387853     0.7096969171     3.2009611350
NI      7.3713132593     2.8371705801     3.2007472979
NI      8.6006331477     4.9666099999     3.1993010497
NI      9.8286976763     7.0935865463     3.2013125731
NI     11.0577723695     9.2216048220     3.2008419306
NI      8.6007267489     0.7092502771     3.2005610478
NI      9.8298957229     2.8371877743     3.1984901450
NI     11.0574942562     4.9653979366     3.1998854360
NI     12.2864021522     7.0937158082     3.2009534878
NI     13.5151255177     9.2220540485     3.2012842888
NI     11.0582711523     0.7087427244     3.2001779605
NI     12.2869981152     2.8373665896     3.2009926154
NI     13.5150097799     4.9655679796     3.2008179897
NI     14.7438481444     7.0936472635     3.2009033869
NI     15.9724672361     9.2217438288     3.2007903360
NI      2.4568249687     1.4183675810     5.2133938869
NI      3.6867847572     3.5461631857     5.2136926564
NI      4.9163045080     5.6737791452     5.2138152689
NI      6.1438531266     7.8025916987     5.2137346894
NI      7.3718671610     9.9315877862     5.2131752066
NI      4.9147093478     1.4194607109     5.2132743176
NI      6.1488963203     3.5499679242     5.2153649216
NI      7.3716634932     5.6729352787     5.2105029425
NI      8.5995877061     7.8020691053     5.2140877322
NI      9.8293621969     9.9311951265     5.2136618165
NI      7.3727327938     1.4212653216     5.2134758369
NI      8.5981042012     3.5474488472     5.2109637939
NI      9.8272680405     5.6735920041     5.2130691541
NI     11.0581929200     7.8031926639     5.2130314442
NI     12.2867903713     9.9312022973     5.2132462107
NI      9.8292111033     1.4200730980     5.2123292176
NI     11.0574289728     3.5451649168     5.2117303657
NI     12.2864278705     5.6752331290     5.2123990998
NI     13.5149807751     7.8032465111     5.2134522812
NI     14.7434359644     9.9312580963     5.2129732604
NI     12.2869415925     1.4181032959     5.2134782559
NI     13.5145239029     3.5467099497     5.2144960011
NI     14.7436710047     5.6750791549     5.2129757941
NI     15.9719885709     7.8032964808     5.2132428415
NI     17.2007190323     9.9319441613     5.2141514368
NI     -0.0001849585     0.0002036243     7.2242177017
NI      1.2284318952     2.1280529792     7.2239325956
NI      2.4566098400     4.2562114545     7.2239715704
NI      3.6849877559     6.3846813426     7.2253882927
NI      4.9143486954     8.5132995367     7.2238802901
NI      2.4575497647    -0.0001284005     7.2236761342
NI      3.6864852741     2.1275241890     7.2253230853
NI      4.8989212466     4.2556929438     7.2142247945
NI      6.1347450922     6.3995377821     7.2101923184
NI      7.3718746942     8.5126296454     7.2249799575
NI      4.9152211098     0.0000761040     7.2267353649
NI      6.1356637291     2.1131846271     7.2114790310
NI      7.3662660595     4.2701284649     7.2454537925
NI      8.6089084793     6.3981262730     7.2115066184
NI      9.8297325488     8.5120991164     7.2243809877
NI      7.3716977541    -0.0004522696     7.2299458960
NI      8.6025181859     2.1114694349     7.2210542554
NI      9.8549450759     4.2624740349     7.1973808161
NI     11.0584982732     6.3847427637     7.2273174573
NI     12.2862373485     8.5128606773     7.2231305852
NI      9.8289227681    -0.0004843658     7.2252511204
NI     11.0577153665     2.1284798521     7.2247627707
NI     12.2865277233     4.2567060056     7.2252991018
NI     13.5149733263     6.3841742412     7.2234261839
NI     14.7435845944     8.5126834398     7.2229576382
C       8.1557674924     3.4730078774     9.7788441987
C       7.8735539515     2.8783683661    11.1392475829
C       8.0708805900     4.0147133969    12.1803507317
C       8.0391863084     3.4785846955    13.6402230500
C       8.1635914735     4.6078397588    14.6919840261
C       8.0032388814     4.1156563726    16.1379162291
O       7.3507567410     4.2239809449     9.1998019642
O       6.5764298232     2.3262513634    11.2539283451
O       9.3429663867     4.6358889623    11.9583485622
O       6.7938954578     2.8009269067    13.8124677524
O       9.4447495422     5.2221108655    14.5231443911
O       6.6466136801     3.7285342628    16.3759269155
H       9.1220089109     3.1908457278     9.2896084680
H       8.6864762981     2.1426754186    11.3113816165
H       7.2426941581     4.7399806191    12.0513975827
H       8.8803463458     2.7734959007    13.7783299772
H       7.3404604101     5.3237454300    14.4878476412
H       8.7199039392     3.2919888155    16.3471679260
H       8.2891287042     4.9563709423    16.8013493997
H       6.4735145493     1.7250135748    10.4918575655
H       9.2340823359     5.2904557515    11.2434415167
H       6.9385022507     1.9968158165    14.3379390189
H       9.4274423244     6.0148726416    15.0880537370
H       6.6214973238     3.4409785192    17.3031816056
124
Step 4 | ATOMIC_POSITIONS (angstrom) | Cartesian Angstrom
NI      0.0000000000     0.0000000000     1.1900000730
NI      1.2286496050     2.1280835410     1.1900000730
NI      2.4572992100     4.2561670810     1.1900000730
NI      3.6859488150     6.3842506220     1.1900000730
NI      4.9145984200     8.5123341620     1.1900000730
NI      2.4572992100     0.0000000000     1.1900000730
NI      3.6859488150     2.1280835410     1.1900000730
NI      4.9145984200     4.2561670810     1.1900000730
NI      6.1432480250     6.3842506220     1.1900000730
NI      7.3718976300     8.5123341620     1.1900000730
NI      4.9145984200     0.0000000000     1.1900000730
NI      6.1432480250     2.1280835410     1.1900000730
NI      7.3718976300     4.2561670810     1.1900000730
NI      8.6005472350     6.3842506220     1.1900000730
NI      9.8291968400     8.5123341620     1.1900000730
NI      7.3718976300     0.0000000000     1.1900000730
NI      8.6005472350     2.1280835410     1.1900000730
NI      9.8291968400     4.2561670810     1.1900000730
NI     11.0578464450     6.3842506220     1.1900000730
NI     12.2864960500     8.5123341620     1.1900000730
NI      9.8291968400     0.0000000000     1.1900000730
NI     11.0578464450     2.1280835410     1.1900000730
NI     12.2864960500     4.2561670810     1.1900000730
NI     13.5151456550     6.3842506220     1.1900000730
NI     14.7437952600     8.5123341620     1.1900000730
NI      1.2286929338     0.7091982807     3.2003308258
NI      2.4577108699     2.8376024596     3.2020792829
NI      3.6865787716     4.9649968214     3.2005931193
NI      4.9149585679     7.0937571137     3.2007431204
NI      6.1433982891     9.2211636012     3.2022348692
NI      3.6859992219     0.7091058653     3.2013450978
NI      4.9137555546     2.8369894522     3.1967044585
NI      6.1428595687     4.9660691979     3.1994882881
NI      7.3716827324     7.0952616355     3.1964847453
NI      8.6006265440     9.2211966891     3.2013709798
NI      6.1430096916     0.7098086773     3.2012050200
NI      7.3710212754     2.8370303581     3.2004957582
NI      8.6006432423     4.9669918736     3.1984566832
NI      9.8285530135     7.0936558046     3.2016251884
NI     11.0577030151     9.2215985217     3.2009963443
NI      8.6007681557     0.7092360429     3.2005335554
NI      9.8300899251     2.8371149267     3.1974441468
NI     11.0574364239     4.9653880302     3.1995495382
NI     12.2863683758     7.0937723217     3.2010665091
NI     13.5150818969     9.2221479074     3.2015332513
NI     11.0584631512     0.7084576529     3.2002166024
NI     12.2873713650     2.8372997086     3.2011759927
NI     13.5150141928     4.9655377448     3.2009928388
NI     14.7438850262     7.0936157693     3.2010245179
NI     15.9725180254     9.2217526515     3.2009998548
NI      2.4566497251     1.4182568077     5.2134959063
NI      3.6868864940     3.5456081311     5.2130492287
NI      4.9165517524     5.6733688780     5.2130175670
NI      6.1440796689     7.8031958318     5.2127890723
NI      7.3718536604     9.9317879647     5.2132475121
NI      4.9142158767     1.4196664200     5.2122753544
NI      6.1513732182     3.5514256190     5.2170716231
NI      7.3716778391     5.6718766522     5.2098789711
NI      8.5991692499     7.8024873063     5.2133353422
NI      9.8294985367     9.9312203521     5.2140009069
NI      7.3731294826     1.4218658139     5.2129596588
NI      8.5965276928     3.5479070968     5.2115412410
NI      9.8268314926     5.6737573491     5.2110935680
NI     11.0582108242     7.8031796684     5.2129655081
NI     12.2869615788     9.9315077079     5.2135493500
NI      9.8295834205     1.4204550397     5.2113270103
NI     11.0582806017     3.5438718416     5.2092160428
NI     12.2862318842     5.6752801680     5.2120875994
NI     13.5148916291     7.8033153357     5.2135426043
NI     14.7432356919     9.9315832149     5.2130567419
NI     12.2871993891     1.4177818249     5.2135327595
NI     13.5143164179     3.5466742649     5.2150213653
NI     14.7437205329     5.6750873493     5.2128081738
NI     15.9718990043     7.8033586638     5.2131603184
NI     17.2004861068     9.9323149372     5.2145933903
NI     -0.0001840877     0.0004041406     7.2243925412
NI      1.2283583845     2.1279141154     7.2239244638
NI      2.4553567788     4.2562382480     7.2240339559
NI      3.6838678752     6.3852809124     7.2261172508
NI      4.9136450820     8.5147014076     7.2238984407
NI      2.4575970889    -0.0001867004     7.2235780541
NI      3.6859328854     2.1269031948     7.2261195342
NI      4.8929248283     4.2554464181     7.2095051398
NI      6.1313391174     6.4058091766     7.2037122608
NI      7.3719496712     8.5136381733     7.2255791560
NI      4.9149777522    -0.0007428052     7.2282559929
NI      6.1329937355     2.1082656614     7.2051130651
NI      7.3645217648     4.2762270337     7.2570741003
NI      8.6120238542     6.4033147731     7.2054560692
NI      9.8304562946     8.5130343951     7.2246361294
NI      7.3715696326    -0.0014207327     7.2328910972
NI      8.6038741971     2.1059198487     7.2164652336
NI      9.8634960793     4.2645706788     7.1847015573
NI     11.0597364591     6.3859712780     7.2290412859
NI     12.2861820465     8.5130578259     7.2226783250
NI      9.8291588341    -0.0011646580     7.2261858234
NI     11.0576645853     2.1282907686     7.2253403618
NI     12.2882346806     4.2569002994     7.2260000794
NI     13.5148884411     6.3842398972     7.2230959646
NI     14.7433856004     8.5128038477     7.2224117694
C       8.1702185755     3.4802334076     9.7987757307
C       7.8816145250     2.8730984621    11.1555884958
C       8.0677075258     4.0105413864    12.1951860349
C       8.0376710631     3.4849466964    13.6410325337
C       8.1589466338     4.6071137091    14.6895858426
C       8.0065756154     4.1134882808    16.1412228607
O       7.3423788893     4.2134837432     9.2201818667
O       6.5670937495     2.3267064199    11.2262434824
O       9.3435197386     4.6276080763    11.9352417928
O       6.7963862154     2.7983716312    13.8085665627
O       9.4460259627     5.2251118099    14.5476340674
O       6.6491128550     3.7247354571    16.3897717568
H       9.1221041325     3.1921143728     9.2827846635
H       8.6929610288     2.1336338234    11.3171943660
H       7.2455019315     4.7272125706    12.0627643006
H       8.8772304561     2.7939833367    13.7650803553
H       7.3383208169     5.3153051991    14.4823705600
H       8.7220948731     3.2850144050    16.3327767276
H       8.2935479634     4.9690453362    16.7934963902
H       6.4570940488     1.7106705249    10.4797156479
H       9.2410439598     5.3002883668    11.2418430559
H       6.9328529386     2.0020236304    14.3434396042
H       9.4404420952     6.0262847711    15.0928080215
H       6.6074581591     3.4382620186    17.3132511652
124
Step 5 | ATOMIC_POSITIONS (angstrom) | Cartesian Angstrom
NI      0.0000000000     0.0000000000     1.1900000730
NI      1.2286496050     2.1280835410     1.1900000730
NI      2.4572992100     4.2561670810     1.1900000730
NI      3.6859488150     6.3842506220     1.1900000730
NI      4.9145984200     8.5123341620     1.1900000730
NI      2.4572992100     0.0000000000     1.1900000730
NI      3.6859488150     2.1280835410     1.1900000730
NI      4.9145984200     4.2561670810     1.1900000730
NI      6.1432480250     6.3842506220     1.1900000730
NI      7.3718976300     8.5123341620     1.1900000730
NI      4.9145984200     0.0000000000     1.1900000730
NI      6.1432480250     2.1280835410     1.1900000730
NI      7.3718976300     4.2561670810     1.1900000730
NI      8.6005472350     6.3842506220     1.1900000730
NI      9.8291968400     8.5123341620     1.1900000730
NI      7.3718976300     0.0000000000     1.1900000730
NI      8.6005472350     2.1280835410     1.1900000730
NI      9.8291968400     4.2561670810     1.1900000730
NI     11.0578464450     6.3842506220     1.1900000730
NI     12.2864960500     8.5123341620     1.1900000730
NI      9.8291968400     0.0000000000     1.1900000730
NI     11.0578464450     2.1280835410     1.1900000730
NI     12.2864960500     4.2561670810     1.1900000730
NI     13.5151456550     6.3842506220     1.1900000730
NI     14.7437952600     8.5123341620     1.1900000730
NI      1.2287949206     0.7091549499     3.2000926817
NI      2.4576431975     2.8376145247     3.2023195262
NI      3.6865455538     4.9649628070     3.2005631473
NI      4.9148892649     7.0937956870     3.2007598739
NI      6.1433879534     9.2212456709     3.2024209935
NI      3.6859303233     0.7089846055     3.2014807360
NI      4.9139075079     2.8371366729     3.1964578596
NI      6.1427702177     4.9660571836     3.1991469084
NI      7.3716248997     7.0954681525     3.1958097545
NI      8.6007022067     9.2212892304     3.2014271508
NI      6.1430123398     0.7098036086     3.2012766227
NI      7.3708529297     2.8370117356     3.2001667900
NI      8.6005594644     4.9670548962     3.1978363287
NI      9.8285523992     7.0938258767     3.2015843431
NI     11.0576672999     9.2216330696     3.2010810187
NI      8.6007775780     0.7092187581     3.2004016074
NI      9.8300000293     2.8371295904     3.1968289187
NI     11.0575243972     4.9654270375     3.1991999719