124
Step 1 | ATOMIC_POSITIONS (angstrom) | Cartesian Angstrom
NI      0.0000000000     0.0000000000     1.1900000730
NI      1.2286496050     2.1280835410     1.1900000730
NI      2.4572992100     4.2561670810     1.1900000730
NI      3.6859488150     6.3842506220     1.1900000730
NI      4.9145984200     8.5123341620     1.1900000730
NI      2.4572992100     0.0000000000     1.1900000730
NI      3.6859488150     2.1280835410     1.1900000730
NI      4.9145984200     4.2561670810     1.1900000730
NI      6.1432480250     6.3842506220     1.1900000730
NI      7.3718976300     8.5123341620     1.1900000730
NI      4.9145984200     0.0000000000     1.1900000730
NI      6.1432480250     2.1280835410     1.1900000730
NI      7.3718976300     4.2561670810     1.1900000730
NI      8.6005472350     6.3842506220     1.1900000730
NI      9.8291968400     8.5123341620     1.1900000730
NI      7.3718976300     0.0000000000     1.1900000730
NI      8.6005472350     2.1280835410     1.1900000730
NI      9.8291968400     4.2561670810     1.1900000730
NI     11.0578464450     6.3842506220     1.1900000730
NI     12.2864960500     8.5123341620     1.1900000730
NI      9.8291968400     0.0000000000     1.1900000730
NI     11.0578464450     2.1280835410     1.1900000730
NI     12.2864960500     4.2561670810     1.1900000730
NI     13.5151456550     6.3842506220     1.1900000730
NI     14.7437952600     8.5123341620     1.1900000730
NI      1.2286061181     0.7093413873     3.2004695115
NI      2.4574215793     2.8374643746     3.2006757867
NI      3.6861065269     4.9653900051     3.2004387022
NI      4.9147332381     7.0936248598     3.2004387832
NI      6.1432829118     9.2215788869     3.2006965448
NI      3.6859571954     0.7093666384     3.2005353841
NI      4.9143720414     2.8373142272     3.1996594270
NI      6.1432290123     4.9656505348     3.2003882421
NI      7.3718581362     7.0938586515     3.1997570601
NI      8.6005149929     9.2215689382     3.2005672484
NI      6.1431834933     0.7094797808     3.2005490303
NI      7.3717581820     2.8374120522     3.2006367150
NI      8.6005528801     4.9658123584     3.2002516123
NI      9.8290322823     7.0935767686     3.2006523262
NI     11.0578275431     9.2216608501     3.2005437533
NI      8.6006254595     0.7093412657     3.2004633290
NI      9.8293829639     2.8373742406     3.1999883330
NI     11.0577328850     4.9654646250     3.2003021425
NI     12.2864610953     7.0936114607     3.2006052312
NI     13.5151618598     9.2218163766     3.2006818585
NI     11.0579663181     0.7092107921     3.2002779693
NI     12.2865981894     2.8374187073     3.2005466056
NI     13.5150927076     4.9655233603     3.2005341104
NI     14.7438213184     7.0936165107     3.2005737318
NI     15.9724642195     9.2217242193     3.2004889664
NI      2.4571431630     1.4186318337     5.2133214754
NI      3.6862278141     3.5467160798     5.2136144006
NI      4.9151658783     5.6745882181     5.2136788718
NI      6.1434214871     7.8026802902     5.2136855246
NI      7.3718734437     9.9312099401     5.2132363001
NI      4.9147662056     1.4189635302     5.2135569604
NI      6.1446515411     3.5475995606     5.2135982948
NI      7.3718126550     5.6744551502     5.2124595868
NI      8.6002823641     7.8025356636     5.2137697771
NI      9.8292087784     9.9311006460     5.2133658063
NI      7.3720969875     1.4194967230     5.2134453313
NI      8.6000684353     3.5469520233     5.2122712327
NI      9.8286090096     5.6743805151     5.2136712061
NI     11.0579540879     7.8030410083     5.2132569681
NI     12.2865619953     9.9310436832     5.2132471964
NI      9.8291426582     1.4191266133     5.2131896368
NI     11.0574997106     3.5465195898     5.2133267882
NI     12.2865099269     5.6749736103     5.2130929063
NI     13.5151118314     7.8030409626     5.2133649801
NI     14.7437380357     9.9310596019     5.2131883802
NI     12.2866002037     1.4185749249     5.2133524083
NI     13.5149740618     3.5467746526     5.2136147125
NI     14.7437375609     5.6749333263     5.2132572144
NI     15.9723232080     7.8030727916     5.2133239129
NI     17.2010245009     9.9313028426     5.2135059860
NI     -0.0000654706     0.0000363185     7.2239913733
NI      1.2285746693     2.1281041094     7.2239395754
NI      2.4573574650     4.2561735179     7.2239249159
NI      3.6858798515     6.3842546921     7.2242814203
NI      4.9146854198     8.5123476693     7.2239121642
NI      2.4573560362    -0.0000240949     7.2238830443
NI      3.6862649863     2.1280430964     7.2242304865
NI      4.9104385748     4.2560912368     7.2215791519
NI      6.1410430693     6.3881858559     7.2205545396
NI      7.3718661290     8.5121915633     7.2241605893
NI      4.9148719137     0.0002341511     7.2245792790
NI      6.1411853206     2.1239391114     7.2210070923
NI      7.3700458277     4.2599146529     7.2296146758
NI      8.6027865406     6.3879472395     7.2209317374
NI      9.8292009264     8.5120143862     7.2240538241
NI      7.3718659081     0.0000584030     7.2253910288
NI      8.6008032440     2.1234203670     7.2241201432
NI      9.8364545721     4.2580341178     7.2173740553
NI     11.0577686436     6.3841049029     7.2247455387
NI     12.2864260295     8.5124622369     7.2237803090
NI      9.8290655577    -0.0000163797     7.2241744288
NI     11.0578583365     2.1282883983     7.2240459789
NI     12.2860779424     4.2563009820     7.2242687718
NI     13.5151065709     6.3842033569     7.2238483598
NI     14.7437704033     8.5124227895     7.2237342571
C       8.1180557439     3.4257576274     9.7392885675
C       7.8909760115     2.9086501588    11.1349295309
C       8.0607678128     4.0327529955    12.1871776964
C       8.0484692616     3.4512029797    13.6310339498
C       8.1516717409     4.5994168907    14.6589803028
C       8.0152382058     4.1219468062    16.1148682423
O       7.3654055803     4.2488022924     9.1710843920
O       6.6121763327     2.3268929989    11.2848332472
O       9.3299412254     4.6391950719    11.9832808903
O       6.7995442998     2.8105290131    13.8213300699
O       9.4239465977     5.2151068917    14.5010656847
O       6.6595494012     3.7366797025    16.3630732795
H       9.1242468884     3.1991303737     9.3062314476
H       8.6508039436     2.1582399680    11.2995605628
H       7.2427363425     4.7562977569    12.0257075418
H       8.8950885151     2.7364945993    13.8045579919
H       7.3542816143     5.3398848114    14.5080828749
H       8.7006002087     3.3175510143    16.3724434056
H       8.2788829325     4.9255590035    16.8216676248
H       6.4933599270     1.7436781600    10.5067990119
H       9.2234679327     5.2725288652    11.2518770546
H       6.9479728642     2.0008103564    14.3261018428
H       9.4135792431     5.9996217862    15.0800090627
H       6.6369784950     3.4442229086    17.2898494380
