124
Step 1 | ATOMIC_POSITIONS (angstrom) | Cartesian Angstrom
NI      0.0000000000     0.0000000000     1.1900000730
NI      1.2286496050     2.1280835410     1.1900000730
NI      2.4572992100     4.2561670810     1.1900000730
NI      3.6859488150     6.3842506220     1.1900000730
NI      4.9145984200     8.5123341620     1.1900000730
NI      2.4572992100     0.0000000000     1.1900000730
NI      3.6859488150     2.1280835410     1.1900000730
NI      4.9145984200     4.2561670810     1.1900000730
NI      6.1432480250     6.3842506220     1.1900000730
NI      7.3718976300     8.5123341620     1.1900000730
NI      4.9145984200     0.0000000000     1.1900000730
NI      6.1432480250     2.1280835410     1.1900000730
NI      7.3718976300     4.2561670810     1.1900000730
NI      8.6005472350     6.3842506220     1.1900000730
NI      9.8291968400     8.5123341620     1.1900000730
NI      7.3718976300     0.0000000000     1.1900000730
NI      8.6005472350     2.1280835410     1.1900000730
NI      9.8291968400     4.2561670810     1.1900000730
NI     11.0578464450     6.3842506220     1.1900000730
NI     12.2864960500     8.5123341620     1.1900000730
NI      9.8291968400     0.0000000000     1.1900000730
NI     11.0578464450     2.1280835410     1.1900000730
NI     12.2864960500     4.2561670810     1.1900000730
NI     13.5151456550     6.3842506220     1.1900000730
NI     14.7437952600     8.5123341620     1.1900000730
NI      1.2289825314     0.7078245869     3.1972611471
NI      2.4576476781     2.8358357618     3.2004298598
NI      3.6868732773     4.9636813674     3.1973378806
NI      4.9154395105     7.0927331280     3.1979409699
NI      6.1440020904     9.2197973339     3.2005110405
NI      3.6860265797     0.7078676755     3.2012437707
NI      4.9188934923     2.8382375493     3.2008568058
NI      6.1469489052     4.9634905716     3.2066773863
NI      7.3723737951     7.0879509166     3.2033636981
NI      8.6005274235     9.2198423259     3.2014061212
NI      6.1428441623     0.7090010911     3.1976520401
NI      7.3735616110     2.8395083003     3.2065688104
NI      8.5979234154     4.9630110929     3.2082446265
NI      9.8276979501     7.0924441251     3.1989687280
NI     11.0574255306     9.2207872224     3.2014495831
NI      8.6013271811     0.7086469234     3.1974204297
NI      9.8252392387     2.8389499877     3.2029825809
NI     11.0569293747     4.9633545669     3.1984392434
NI     12.2859695902     7.0926083512     3.2013878606
NI     13.5142291835     9.2204351475     3.2021664906
NI     11.0579580028     0.7082110928     3.1996349602
NI     12.2858497718     2.8361588541     3.2000561781
NI     13.5150298221     4.9643332012     3.2000787900
NI     14.7429759514     7.0924135397     3.2009968215
NI     15.9719686658     9.2203213383     3.2002927603
NI      2.4553351222     1.4155584896     5.2126653598
NI      3.6859982371     3.5424646923     5.2079807398
NI      4.9141479117     5.6737342577     5.2052925088
NI      6.1443723573     7.7996040238     5.2112364867
NI      7.3713789201     9.9293429296     5.2129631976
NI      4.9132429966     1.4179308085     5.2097421314
NI      6.1570898613     3.5521567653     5.2382844194
NI      7.3717466693     5.6548549428     5.2468973553
NI      8.5983652307     7.7981489757     5.2133548981
NI      9.8277609847     9.9289467974     5.2150877268
NI      7.3721698998     1.4150852339     5.2036937906
NI      8.5858280640     3.5539119924     5.2453874592
NI      9.8299993918     5.6732275080     5.2081593565
NI     11.0564878246     7.8009276101     5.2135548304
NI     12.2849155191     9.9297915154     5.2139765586
NI      9.8298565902     1.4176732901     5.2080681021
NI     11.0561212800     3.5432361934     5.2109780109
NI     12.2857964908     5.6715272869     5.2122095521
NI     13.5139748477     7.8006580224     5.2156071781
NI     14.7437153031     9.9292515749     5.2122048320
NI     12.2865507524     1.4160330526     5.2118440973
NI     13.5144661595     3.5436127895     5.2125412825
NI     14.7434126461     5.6713454518     5.2117462389
NI     15.9724114068     7.8007768340     5.2117917827
NI     17.2006699870     9.9287323468     5.2123061322
NI     -0.0013305587    -0.0037134267     7.2230784743
NI      1.2272155059     2.1236879317     7.2230851905
NI      2.4523176927     4.2518294567     7.2272419300
NI      3.6813129079     6.3825521404     7.2253856351
NI      4.9117702315     8.5113147240     7.2260191286
NI      2.4555902644    -0.0031856629     7.2250558261
NI      3.6838443810     2.1238543386     7.2243339521
NI      4.8941210273     4.2556000839     7.1961046902
NI      6.1322215182     6.3928271151     7.2080201751
NI      7.3708342730     8.5099764251     7.2232986580
NI      4.9114561470    -0.0064836422     7.2295126245
NI      6.1371432880     2.1061019380     7.1989805386
NI      7.3721466112     4.2503811638     7.4142336791
NI      8.6093938129     6.3883864659     7.2140228163
NI      9.8293683228     8.5100867460     7.2270148971
NI      7.3714765931    -0.0076713481     7.2276678572
NI      8.6066360959     2.1084480517     7.2015691033
NI      9.8433267332     4.2553262125     7.2098243800
NI     11.0602737642     6.3818108230     7.2275541113
NI     12.2853251955     8.5090646369     7.2241686520
NI      9.8298323134    -0.0059917511     7.2269355671
NI     11.0565427299     2.1240267852     7.2247905722
NI     12.2873588682     4.2515910606     7.2253644650
NI     13.5141915705     6.3800732665     7.2223356551
NI     14.7424570338     8.5084105112     7.2217237610
C       7.9008541308     3.7644192825    10.3127911162
C       7.3095510666     3.4470286718    11.6564545053
C       7.9394381503     4.3480935287    12.7572632192
C       8.0566572652     3.6267378419    14.1158847381
C       8.2575848519     4.6289285831    15.2684071682
C       8.5947031797     3.9555219318    16.6017665317
O       7.1414363340     4.1228127831     9.3993853548
O       5.9052438769     3.5640561162    11.6525011274
O       9.2307985552     4.7546082174    12.3015153400
O       6.8779479703     2.8619180593    14.3357531252
O       9.3642691739     5.4973578425    14.9355526185
O       7.4869096526     3.1298173587    17.0101617430
H       8.9793236231     3.6293019110    10.1383123378
H       7.6026497794     2.3942122933    11.8609061275
H       7.2525851049     5.2098343245    12.8508311417
H       8.9541230377     2.9755105012    14.0498839837
H       7.3217422844     5.2069493710    15.3637935498
H       9.5143760578     3.3605315381    16.4706601267
H       8.7898346764     4.7361052554    17.3583639372
H       5.6451131759     3.8090818595    10.7399553294
H       9.6353657953     5.2501945309    13.0423246949
H       6.8496004275     2.6329248823    15.2874716097
H       9.2718029204     6.3315716076    15.4240464333
H       7.7665542850     2.5681415362    17.7507303515
124
Step 2 | ATOMIC_POSITIONS (angstrom) | Cartesian Angstrom
NI      0.0000000000     0.0000000000     1.1900000730
NI      1.2286496050     2.1280835410     1.1900000730
NI      2.4572992100     4.2561670810     1.1900000730
NI      3.6859488150     6.3842506220     1.1900000730
NI      4.9145984200     8.5123341620     1.1900000730
NI      2.4572992100     0.0000000000     1.1900000730
NI      3.6859488150     2.1280835410     1.1900000730
NI      4.9145984200     4.2561670810     1.1900000730
NI      6.1432480250     6.3842506220     1.1900000730
NI      7.3718976300     8.5123341620     1.1900000730
NI      4.9145984200     0.0000000000     1.1900000730
NI      6.1432480250     2.1280835410     1.1900000730
NI      7.3718976300     4.2561670810     1.1900000730
NI      8.6005472350     6.3842506220     1.1900000730
NI      9.8291968400     8.5123341620     1.1900000730
NI      7.3718976300     0.0000000000     1.1900000730
NI      8.6005472350     2.1280835410     1.1900000730
NI      9.8291968400     4.2561670810     1.1900000730
NI     11.0578464450     6.3842506220     1.1900000730
NI     12.2864960500     8.5123341620     1.1900000730
NI      9.8291968400     0.0000000000     1.1900000730
NI     11.0578464450     2.1280835410     1.1900000730
NI     12.2864960500     4.2561670810     1.1900000730
NI     13.5151456550     6.3842506220     1.1900000730
NI     14.7437952600     8.5123341620     1.1900000730
NI      1.2289125188     0.7078520959     3.1976667535
NI      2.4577668406     2.8358859937     3.2003652471
NI      3.6868020488     4.9635142593     3.1976649641
NI      4.9156379309     7.0926914358     3.1980957172
NI      6.1438311421     9.2195550335     3.2006766759
NI      3.6862042748     0.7082366548     3.2011164853
NI      4.9188111400     2.8382092434     3.2011026528
NI      6.1467973990     4.9634986852     3.2068370546
NI      7.3722025727     7.0875896166     3.2034706352
NI      8.6004679128     9.2195317027     3.2014887509
NI      6.1426530085     0.7089753480     3.1976460517
NI      7.3732002890     2.8393290131     3.2065801480
NI      8.5978889764     4.9632407407     3.2081690486
NI      9.8277467341     7.0923585435     3.1990606692
NI     11.0574052902     9.2207632606     3.2013215629
NI      8.6012456879     0.7085872964     3.1974559831
NI      9.8252698267     2.8389529162     3.2031307559
NI     11.0568662361     4.9634211214     3.1986892190
NI     12.2857929457     7.0924945369     3.2013843279
NI     13.5143742038     9.2206285389     3.2017864685
NI     11.0577953005     0.7082824816     3.1996985326
NI     12.2856953349     2.8362289347     3.2001379667
NI     13.5150332764     4.9640105852     3.2002906920
NI     14.7431860590     7.0923783683     3.2011058062
NI     15.9721771292     9.2204537391     3.2002320366
NI      2.4554667598     1.4156357844     5.2125234431
NI      3.6858204579     3.5424265681     5.2082774289
NI      4.9140196130     5.6736091198     5.2051791943
NI      6.1443614270     7.7998240081     5.2111197175
NI      7.3713306718     9.9293636907     5.2129464212
NI      4.9130829497     1.4178582420     5.2100071249
NI      6.1568761818     3.5519109798     5.2383393369
NI      7.3716353301     5.6548777351     5.2468755622
NI      8.5983766383     7.7983424733     5.2138327931
NI      9.8279245760     9.9288356119     5.2149467267
NI      7.3721382488     1.4153412151     5.2038339882
NI      8.5857374181     3.5535847719     5.2451829400
NI      9.8297245493     5.6730812355     5.2083589376
NI     11.0566055051     7.8008798708     5.2135073158
NI     12.2849824865     9.9299657869     5.2139638031
NI      9.8298762556     1.4176911852     5.2083428066
NI     11.0560251419     3.5430618192     5.2112597519
NI     12.2858609786     5.6715836753     5.2122370421
NI     13.5141823527     7.8005910518     5.2154118468
NI     14.7437280336     9.9295139726     5.2126722110
NI     12.2864437392     1.4160122849     5.2122182346
NI     13.5144198271     3.5437822857     5.2126443260
NI     14.7434957782     5.6712805502     5.2119049657
NI     15.9722966744     7.8007649139     5.2120511489
NI     17.2007675428     9.9288851500     5.2123765676
NI     -0.0011224466    -0.0032577950     7.2236492015
NI      1.2271498300     2.1235413886     7.2232519965
NI      2.4523878206     4.2519238419     7.2273318065
NI      3.6814353377     6.3824853937     7.2255618633
NI      4.9117144676     8.5113812280     7.2259536490
NI      2.4554650909    -0.0029780211     7.2247534238
NI      3.6838931007     2.1239018407     7.2240185724
NI      4.8935822298     4.2557613943     7.1957936557
NI      6.1319886104     6.3928946094     7.2075229588
NI      7.3709383085     8.5099495650     7.2232892045
NI      4.9115598819    -0.0063072279     7.2292390418
NI      6.1369830780     2.1058905824     7.1988839013
NI      7.3720916869     4.2503274828     7.4147249524
NI      8.6093206486     6.3884678759     7.2141886044
NI      9.8293091209     8.5101304353     7.2268120116
NI      7.3716828743    -0.0073218870     7.2275841263
NI      8.6064190692     2.1082409267     7.2009932890
NI      9.8431450639     4.2555409037     7.2097994143
NI     11.0600882556     6.3817694512     7.2277502395
NI     12.2855918987     8.5089293840     7.2240241484
NI      9.8296503189    -0.0057545031     7.2269044074
NI     11.0565634571     2.1240683839     7.2249056963
NI     12.2873176225     4.2516787598     7.2254302647
NI     13.5141448525     6.3803787237     7.2223992789
NI     14.7423956255     8.5085595079     7.2216035378
C       7.9008791046     3.7648224769    10.3126974761
C       7.3094943215     3.4469561804    11.6563358909
C       7.9398079963     4.3478495943    12.7570821605
C       8.0566411281     3.6269186203    14.1158163951
C       8.2578354599     4.6290367949    15.2684596268
C       8.5943687057     3.9556426597    16.6019207797
O       7.1414567982     4.1229436456     9.3990042490
O       5.9053308712     3.5638614330    11.6526483008
O       9.2312450985     4.7544243956    12.3014984501
O       6.8777877559     2.8624817377    14.3352806383
O       9.3645569360     5.4976408323    14.9356650168
O       7.4866534049     3.1297794919    17.0100642023
H       8.9792447640     3.6295043927    10.1383054203
H       7.6022448076     2.3941362330    11.8610518886
H       7.2531046127     5.2093725796    12.8507710397
H       8.9536751205     2.9754545857    14.0502314778
H       7.3220946900     5.2066768434    15.3644119136
H       9.5135013878     3.3603874643    16.4707453771
H       8.7909498101     4.7362492339    17.3582606107
H       5.6457715309     3.8091696496    10.7402264865
H       9.6357217860     5.2507162261    13.0419619368
H       6.8500717772     2.6322540348    15.2865703869
H       9.2719065015     6.3322040614    15.4235438846
H       7.7668325250     2.5681921065    17.7505645397
124
Step 3 | ATOMIC_POSITIONS (angstrom) | Cartesian Angstrom
NI      0.0000000000     0.0000000000     1.1900000730
NI      1.2286496050     2.1280835410     1.1900000730
NI      2.4572992100     4.2561670810     1.1900000730
NI      3.6859488150     6.3842506220     1.1900000730
NI      4.9145984200     8.5123341620     1.1900000730
NI      2.4572992100     0.0000000000     1.1900000730
NI      3.6859488150     2.1280835410     1.1900000730
NI      4.9145984200     4.2561670810     1.1900000730
NI      6.1432480250     6.3842506220     1.1900000730
NI      7.3718976300     8.5123341620     1.1900000730
NI      4.9145984200     0.0000000000     1.1900000730
NI      6.1432480250     2.1280835410     1.1900000730
NI      7.3718976300     4.2561670810     1.1900000730
NI      8.6005472350     6.3842506220     1.1900000730
NI      9.8291968400     8.5123341620     1.1900000730
NI      7.3718976300     0.0000000000     1.1900000730
NI      8.6005472350     2.1280835410     1.1900000730
NI      9.8291968400     4.2561670810     1.1900000730
NI     11.0578464450     6.3842506220     1.1900000730
NI     12.2864960500     8.5123341620     1.1900000730
NI      9.8291968400     0.0000000000     1.1900000730
NI     11.0578464450     2.1280835410     1.1900000730
NI     12.2864960500     4.2561670810     1.1900000730
NI     13.5151456550     6.3842506220     1.1900000730
NI     14.7437952600     8.5123341620     1.1900000730
NI      1.2288094024     0.7078118771     3.1980661778
NI      2.4578223229     2.8359191690     3.2002690844
NI      3.6867433541     4.9633932159     3.1979471882
NI      4.9158081987     7.0926411521     3.1982405920
NI      6.1437240816     9.2193272769     3.2008001755
NI      3.6863062077     0.7084898240     3.2009571333
NI      4.9187455049     2.8382312068     3.2013387589
NI      6.1466728680     4.9634732807     3.2069818994
NI      7.3720994563     7.0872540636     3.2035941184
NI      8.6003647299     9.2191851541     3.2015563027
NI      6.1424828419     0.7089324884     3.1976569244
NI      7.3728849154     2.8392211189     3.2065400189
NI      8.5978269710     4.9634235672     3.2080864772
NI      9.8277119002     7.0922681874     3.1992058230
NI     11.0573591703     9.2207019893     3.2011850070
NI      8.6011650594     0.7085614254     3.1975320376
NI      9.8252321273     2.8389943104     3.2032611906
NI     11.0567441529     4.9634787307     3.1989763525
NI     12.2856660518     7.0923770633     3.2013735647
NI     13.5145537102     9.2207717381     3.2014610627
NI     11.0576615294     0.7083597613     3.1997641143
NI     12.2855093328     2.8362622565     3.2002366587
NI     13.5150157759     4.9637537937     3.2004814743
NI     14.7434069992     7.0923480716     3.2012038599
NI     15.9723731171     9.2205499689     3.2002350620
NI      2.4555268712     1.4156812150     5.2123371664
NI      3.6856014848     3.5423927046     5.2085598008
NI      4.9139401199     5.6735432301     5.2050427405
NI      6.1443533530     7.8000483831     5.2110158198
NI      7.3712635449     9.9293658478     5.2129334198
NI      4.9129280814     1.4177404593     5.2102360728
NI      6.1567197745     3.5517634637     5.2384435131
NI      7.3715427716     5.6548435054     5.2468804047
NI      8.5983722031     7.7984688726     5.2142924037
NI      9.8280738314     9.9286777337     5.2147341413
NI      7.3720655379     1.4155761999     5.2038530128
NI      8.5855882957     3.5533901353     5.2449096363
NI      9.8293970095     5.6729469827     5.2085728641
NI     11.0567351785     7.8008003368     5.2134630174
NI     12.2850983261     9.9300598383     5.2138947416
NI      9.8299324993     1.4176990656     5.2085560171
NI     11.0559002183     3.5429506598     5.2115918889
NI     12.2858602748     5.6716655357     5.2123194530
NI     13.5143769363     7.8005778050     5.2151148290
NI     14.7437543995     9.9297235281     5.2130695928
NI     12.2863503596     1.4159871381     5.2126091171
NI     13.5143094459     3.5439166956     5.2128106869
NI     14.7435484769     5.6712707723     5.2121017577
NI     15.9722288322     7.8008033543     5.2123149941
NI     17.2008842921     9.9290227116     5.2125153163
NI     -0.0009485409    -0.0028714560     7.2243070541
NI      1.2271001934     2.1234697571     7.2234705707
NI      2.4523476128     4.2520457469     7.2275238185
NI      3.6815484928     6.3824953835     7.2258023315
NI      4.9116960011     8.5115325899     7.2258888569
NI      2.4553674193    -0.0027970412     7.2244302173
NI      3.6839045597     2.1239423324     7.2237899904
NI      4.8931157680     4.2559575917     7.1955371976
NI      6.1317686873     6.3929698754     7.2069749908
NI      7.3709808069     8.5099422444     7.2233003118
NI      4.9116637990    -0.0062283521     7.2290263625
NI      6.1368080392     2.1057615128     7.1989039289
NI      7.3719794445     4.2502952216     7.4152406590
NI      8.6091706955     6.3885384037     7.2143770393
NI      9.8293075233     8.5102142561     7.2266161750
NI      7.3718399048    -0.0070044762     7.2275966314
NI      8.6061891837     2.1081589177     7.2005067378
NI      9.8428831314     4.2557573057     7.2097873514
NI     11.0598704275     6.3817507098     7.2279377652
NI     12.2858326852     8.5088341231     7.2238576673
NI      9.8295647803    -0.0055386019     7.2269602923
NI     11.0565287011     2.1241816901     7.2251348777
NI     12.2872613101     4.2518109213     7.2255235080
NI     13.5140863007     6.3807004400     7.2224789113
NI     14.7423637195     8.5087335876     7.2215203223
C       7.9006953551     3.7651163172    10.3124791620
C       7.3097198653     3.4468848918    11.6562473780
C       7.9403801836     4.3476045023    12.7569515137
C       8.0567010475     3.6271980129    14.1157347041
C       8.2581529588     4.6292146053    15.2685482531
C       8.5941513944     3.9558283200    16.6019790507
O       7.1415728658     4.1230809717     9.3988718361
O       5.9054903014     3.5636299973    11.6530482264
O       9.2318213026     4.7542001812    12.3014521204
O       6.8774796853     2.8631843282    14.3345394929
O       9.3648441243     5.4979236749    14.9358340322
O       7.4863747680     3.1298889300    17.0100576150
H       8.9792325098     3.6298101000    10.1382775245
H       7.6018367738     2.3940131122    11.8611383974
H       7.2536182288     5.2090388071    12.8506627641
H       8.9533262378     2.9752452582    14.0506364355
H       7.3223415367     5.2065511420    15.3650871809
H       9.5127018441     3.3600098988    16.4708049458
H       8.7921134182     4.7363437851    17.3581376430
H       5.6463340352     3.8093978748    10.7402083270
H       9.6360685368     5.2512835247    13.0414556158
H       6.8505967596     2.6313248533    15.2856719685
H       9.2719860493     6.3329469213    15.4228978327
H       7.7671114701     2.5682461084    17.7503293423
124
Step 4 | ATOMIC_POSITIONS (angstrom) | Cartesian Angstrom
NI      0.0000000000     0.0000000000     1.1900000730
NI      1.2286496050     2.1280835410     1.1900000730
NI      2.4572992100     4.2561670810     1.1900000730
NI      3.6859488150     6.3842506220     1.1900000730
NI      4.9145984200     8.5123341620     1.1900000730
NI      2.4572992100     0.0000000000     1.1900000730
NI      3.6859488150     2.1280835410     1.1900000730
NI      4.9145984200     4.2561670810     1.1900000730
NI      6.1432480250     6.3842506220     1.1900000730
NI      7.3718976300     8.5123341620     1.1900000730
NI      4.9145984200     0.0000000000     1.1900000730
NI      6.1432480250     2.1280835410     1.1900000730
NI      7.3718976300     4.2561670810     1.1900000730
NI      8.6005472350     6.3842506220     1.1900000730
NI      9.8291968400     8.5123341620     1.1900000730
NI      7.3718976300     0.0000000000     1.1900000730
NI      8.6005472350     2.1280835410     1.1900000730
NI      9.8291968400     4.2561670810     1.1900000730
NI     11.0578464450     6.3842506220     1.1900000730
NI     12.2864960500     8.5123341620     1.1900000730
NI      9.8291968400     0.0000000000     1.1900000730
NI     11.0578464450     2.1280835410     1.1900000730
NI     12.2864960500     4.2561670810     1.1900000730
NI     13.5151456550     6.3842506220     1.1900000730
NI     14.7437952600     8.5123341620     1.1900000730
NI      1.2286882571     0.7077332942     3.1983917818
NI      2.4577944177     2.8359377420     3.2001882160
NI      3.6866837871     4.9633196235     3.1981520210
NI      4.9158989963     7.0925832528     3.1983551117
NI      6.1436783704     9.2191695503     3.2008597671
NI      3.6863170109     0.7085972641     3.2008061091
NI      4.9186734384     2.8382787650     3.2015582744
NI      6.1465705172     4.9634020207     3.2070915219
NI      7.3720660403     7.0869992246     3.2037274495
NI      8.6002434589     9.2188850358     3.2016123951
NI      6.1423462814     0.7088883122     3.1976864708
NI      7.3726436669     2.8391847341     3.2064558424
NI      8.5977415266     4.9635071859     3.2080042486
NI      9.8276175301     7.0921879104     3.1993868486
NI     11.0573183521     9.2206184132     3.2010599583
NI      8.6010963641     0.7085757426     3.1976480303
NI      9.8251363416     2.8390533989     3.2033636860
NI     11.0566059642     4.9635044151     3.1992646357
NI     12.2856312472     7.0922724128     3.2013443861
NI     13.5147354796     9.2208436542     3.2012381777
NI     11.0575770052     0.7084298795     3.1998378158
NI     12.2853346816     2.8362580224     3.2003673365
NI     13.5149869126     4.9636022104     3.2006385889
NI     14.7436031735     7.0923040220     3.2012727843
NI     15.9725217371     9.2206007406     3.2003179230
NI      2.4555111291     1.4157115499     5.2121411248
NI      3.6853538421     3.5423573575     5.2087653538
NI      4.9138745003     5.6735423274     5.2048973282
NI      6.1443378770     7.8002312628     5.2109298366
NI      7.3711956123     9.9293741367     5.2129558206
NI      4.9127926679     1.4176142884     5.2103779034
NI      6.1565915880     3.5517073007     5.2385849597
NI      7.3714643701     5.6547601939     5.2469047773
NI      8.5983509853     7.7985096259     5.2146620950
NI      9.8281825823     9.9285355891     5.2144700955
NI      7.3719438228     1.4157328257     5.2037559602
NI      8.5854045887     3.5533294144     5.2446105031
NI      9.8290887474     5.6728534169     5.2087707856
NI     11.0568606956     7.8007027468     5.2134230205
NI     12.2852521090     9.9300766151     5.2137691362
NI      9.8300005661     1.4176988464     5.2086813997
NI     11.0557742025     3.5429089373     5.2119245843
NI     12.2858046429     5.6717486299     5.2124480847
NI     13.5145370969     7.8006179602     5.2147644167
NI     14.7437938475     9.9298779581     5.2133343945
NI     12.2862892494     1.4159849927     5.2129838905
NI     13.5141692306     3.5439804843     5.2130053385
NI     14.7435627669     5.6712991636     5.2123168353
NI     15.9722248432     7.8008774723     5.2125378852
NI     17.2009929137     9.9291522523     5.2127006416
NI     -0.0008337255    -0.0025944870     7.2249751007
NI      1.2270805631     2.1235004515     7.2236916777
NI      2.4522007154     4.2521826146     7.2277749764
NI      3.6816047153     6.3825866274     7.2260669271
NI      4.9117120500     8.5117500125     7.2258349408
NI      2.4553216450    -0.0026598159     7.2240818545
NI      3.6838561323     2.1239783282     7.2236357642
NI      4.8927690500     4.2561502811     7.1953434007
NI      6.1315761254     6.3930498549     7.2064369816
NI      7.3709531914     8.5099860541     7.2233356911
NI      4.9117448110    -0.0062471612     7.2288527565
NI      6.1366325359     2.1057320031     7.1989915091
NI      7.3718046650     4.2502985946     7.4156409707
NI      8.6089680577     6.3886030431     7.2145918722
NI      9.8293627826     8.5103266838     7.2264429074
NI      7.3719208617    -0.0067601806     7.2276620703
NI      8.6059832446     2.1082070079     7.2001108777
NI      9.8425816199     4.2559287627     7.2097886814
NI     11.0596601293     6.3817681103     7.2281017256
NI     12.2860200946     8.5088005075     7.2236606002
NI      9.8295856379    -0.0053506323     7.2270773178
NI     11.0564466604     2.1243483396     7.2254366437
NI     12.2871934261     4.2519727788     7.2256293866
NI     13.5140346963     6.3809895844     7.2225477967
NI     14.7423600203     8.5089075006     7.2214698275
C       7.9010203816     3.7650461062    10.3126627114
C       7.3100220021     3.4468004617    11.6562636326
C       7.9410045274     4.3475314344    12.7568386365
C       8.0568679598     3.6274132922    14.1157004392
C       8.2583421324     4.6294835898    15.2686513788
C       8.5941507132     3.9559130236    16.6019947469
O       7.1413069785     4.1234044313     9.3985669881
O       5.9056924336     3.5635229247    11.6532471454
O       9.2324974783     4.7539272839    12.3013226611
O       6.8770985736     2.8639621352    14.3339004349
O       9.3651364046     5.4982728146    14.9360789424
O       7.4861119209     3.1303184810    17.0100359976
H       8.9791436425     3.6302173327    10.1382429699
H       7.6015320148     2.3938340795    11.8611418010
H       7.2541550050     5.2088189325    12.8504979436
H       8.9530852604     2.9749258454    14.0510826628
H       7.3225115792     5.2065902734    15.3657302290
H       9.5120742100     3.3594235208    16.4708227717
H       8.7931806841     4.7363695339    17.3580193226
H       5.6468191663     3.8096610854    10.7402934636
H       9.6364078591     5.2518738669    13.0408969309
H       6.8511120928     2.6302538491    15.2846208229
H       9.2720218819     6.3336531371    15.4221173188
H       7.7673976070     2.5682252979    17.7501437354
