124
Step 1 | ATOMIC_POSITIONS (angstrom) | Cartesian Angstrom
NI      0.0000000000     0.0000000000     1.1900000730
NI      1.2286496050     2.1280835410     1.1900000730
NI      2.4572992100     4.2561670810     1.1900000730
NI      3.6859488150     6.3842506220     1.1900000730
NI      4.9145984200     8.5123341620     1.1900000730
NI      2.4572992100     0.0000000000     1.1900000730
NI      3.6859488150     2.1280835410     1.1900000730
NI      4.9145984200     4.2561670810     1.1900000730
NI      6.1432480250     6.3842506220     1.1900000730
NI      7.3718976300     8.5123341620     1.1900000730
NI      4.9145984200     0.0000000000     1.1900000730
NI      6.1432480250     2.1280835410     1.1900000730
NI      7.3718976300     4.2561670810     1.1900000730
NI      8.6005472350     6.3842506220     1.1900000730
NI      9.8291968400     8.5123341620     1.1900000730
NI      7.3718976300     0.0000000000     1.1900000730
NI      8.6005472350     2.1280835410     1.1900000730
NI      9.8291968400     4.2561670810     1.1900000730
NI     11.0578464450     6.3842506220     1.1900000730
NI     12.2864960500     8.5123341620     1.1900000730
NI      9.8291968400     0.0000000000     1.1900000730
NI     11.0578464450     2.1280835410     1.1900000730
NI     12.2864960500     4.2561670810     1.1900000730
NI     13.5151456550     6.3842506220     1.1900000730
NI     14.7437952600     8.5123341620     1.1900000730
NI      1.2286255571     0.7093384946     3.1961559716
NI      2.4573877519     2.8374620714     3.1963287695
NI      3.6860434020     4.9654147060     3.1960703772
NI      4.9146955118     7.0936478443     3.1960890953
NI      6.1432984966     9.2215953056     3.1963738337
NI      3.6859172842     0.7093436911     3.1961895769
NI      4.9143251737     2.8373038335     3.1952928396
NI      6.1432110961     4.9656713098     3.1960028523
NI      7.3718722453     7.0938942422     3.1954120849
NI      8.6005211100     9.2215934314     3.1962357239
NI      6.1431583840     0.7094401250     3.1961817840
NI      7.3717758755     2.8374116373     3.1962549583
NI      8.6005969440     4.9658302150     3.1958760967
NI      9.8290651949     7.0935930752     3.1962884918
NI     11.0578115930     9.2216383224     3.1961775450
NI      8.6006376281     0.7093143926     3.1961178300
NI      9.8294234094     2.8373900128     3.1956361839
NI     11.0577749567     4.9654848377     3.1959447553
NI     12.2864793226     7.0935962990     3.1962278306
NI     13.5151581764     9.2217589285     3.1963133737
NI     11.0579991067     0.7092075181     3.1959636456
NI     12.2866239719     2.8374331363     3.1962136911
NI     13.5150888728     4.9655423847     3.1961721383
NI     14.7437955451     7.0936030900     3.1962041886
NI     15.9724637854     9.2216910932     3.1961501233
NI      2.4571254912     1.4186187931     5.2030078584
NI      3.6861626553     3.5467161657     5.2032804681
NI      4.9151064034     5.6746176860     5.2033361685
NI      6.1434106631     7.8027233441     5.2033659354
NI      7.3718924476     9.9312313145     5.2029368953
NI      4.9147067598     1.4189247583     5.2032199880
NI      6.1446240140     3.5475894421     5.2032848673
NI      7.3718309728     5.6744703834     5.2021665357
NI      8.6003092671     7.8025843851     5.2034366114
NI      9.8291842446     9.9311028390     5.2030372827
NI      7.3720903675     1.4194634427     5.2031205460
NI      8.6000878449     3.5469683034     5.2019965343
NI      9.8286626905     5.6744156904     5.2033141852
NI     11.0579654753     7.8030347514     5.2029022922
NI     12.2865414062     9.9310081179     5.2029053643
NI      9.8291868131     1.4191050934     5.2028629431
NI     11.0575540330     3.5465417165     5.2029944282
NI     12.2865337839     5.6749742762     5.2027420197
NI     13.5151122814     7.8030063271     5.2030103086
NI     14.7437442641     9.9310181684     5.2028574263
NI     12.2866359712     1.4185751810     5.2030462001
NI     13.5149789341     3.5467827076     5.2032805830
NI     14.7437063874     5.6749405327     5.2029085862
NI     15.9723015542     7.8030612147     5.2029886305
NI     17.2010471279     9.9312939011     5.2031965901
NI     -0.0000337887     0.0000368340     7.2097535732
NI      1.2285869697     2.1280971605     7.2096943960
NI      2.4573252832     4.2561746752     7.2096804936
NI      3.6858436676     6.3842650470     7.2100318625
NI      4.9146812907     8.5123594287     7.2096787399
NI      2.4573465499    -0.0000202887     7.2096371525
NI      3.6862162719     2.1280245358     7.2099915855
NI      4.9104661296     4.2560929141     7.2074131853
NI      6.1410543475     6.3881582657     7.2063849910
NI      7.3718768613     8.5122338702     7.2099084142
NI      4.9148241342     0.0002087640     7.2103296215
NI      6.1412123490     2.1239923207     7.2068593571
NI      7.3702415330     4.2597632026     7.2169615146
NI      8.6027818861     6.3879107960     7.2067465760
NI      9.8292013379     8.5120476762     7.2097996881
NI      7.3718637899     0.0000444198     7.2111488249
NI      8.6008758759     2.1234405081     7.2097377134
NI      9.8363472907     4.2579818390     7.2032425145
NI     11.0577944277     6.3841083189     7.2104670007
NI     12.2864250249     8.5124371796     7.2095350698
NI      9.8290912410    -0.0000323415     7.2099559495
NI     11.0578729735     2.1282983908     7.2098325646
NI     12.2861127005     4.2563022367     7.2100096088
NI     13.5151103910     6.3841996180     7.2095856080
NI     14.7437675494     8.5123893440     7.2094903307
C       8.1176438117     3.4272171841     9.7387051707
C       7.8909727576     2.9085773781    11.1350261953
C       8.0607635923     4.0327423212    12.1871863588
C       8.0484686601     3.4511954823    13.6310445136
C       8.1516715761     4.5994180981    14.6589875635
C       8.0152378787     4.1219448205    16.1148826545
O       7.3659208265     4.2478910430     9.1698618824
O       6.6121702286     2.3268329769    11.2847845164
O       9.3299752261     4.6392027586    11.9832781142
O       6.7995270796     2.8105161101    13.8213424642
O       9.4239610128     5.2151157910    14.5010744600
O       6.6595469271     3.7366762322    16.3630886095
H       9.1239674653     3.1989482579     9.3061158543
H       8.6508003901     2.1582167530    11.2996121885
H       7.2427384135     4.7562875845    12.0257063881
H       8.8950852689     2.7364955998    13.8045701613
H       7.3542843619     5.3398813437    14.5080941058
H       8.7005974825     3.3175564271    16.3724516346
H       8.2788825113     4.9255539661    16.8216724971
H       6.4933333403     1.7437141766    10.5068685640
H       9.2234574650     5.2725353697    11.2519006678
H       6.9479716657     2.0008136127    14.3261120508
H       9.4135805270     5.9996242190    15.0800206587
H       6.6369783386     3.4442198795    17.2898702090
124
Step 2 | ATOMIC_POSITIONS (angstrom) | Cartesian Angstrom
NI      0.0000000000     0.0000000000     1.1900000730
NI      1.2286496050     2.1280835410     1.1900000730
NI      2.4572992100     4.2561670810     1.1900000730
NI      3.6859488150     6.3842506220     1.1900000730
NI      4.9145984200     8.5123341620     1.1900000730
NI      2.4572992100     0.0000000000     1.1900000730
NI      3.6859488150     2.1280835410     1.1900000730
NI      4.9145984200     4.2561670810     1.1900000730
NI      6.1432480250     6.3842506220     1.1900000730
NI      7.3718976300     8.5123341620     1.1900000730
NI      4.9145984200     0.0000000000     1.1900000730
NI      6.1432480250     2.1280835410     1.1900000730
NI      7.3718976300     4.2561670810     1.1900000730
NI      8.6005472350     6.3842506220     1.1900000730
NI      9.8291968400     8.5123341620     1.1900000730
NI      7.3718976300     0.0000000000     1.1900000730
NI      8.6005472350     2.1280835410     1.1900000730
NI      9.8291968400     4.2561670810     1.1900000730
NI     11.0578464450     6.3842506220     1.1900000730
NI     12.2864960500     8.5123341620     1.1900000730
NI      9.8291968400     0.0000000000     1.1900000730
NI     11.0578464450     2.1280835410     1.1900000730
NI     12.2864960500     4.2561670810     1.1900000730
NI     13.5151456550     6.3842506220     1.1900000730
NI     14.7437952600     8.5123341620     1.1900000730
NI      1.2286018600     0.7092956796     3.1958197933
NI      2.4574900437     2.8375073585     3.1963615148
NI      3.6861900498     4.9652630115     3.1957255380
NI      4.9148333240     7.0937002086     3.1957808289
NI      6.1433769470     9.2214366748     3.1964688505
NI      3.6858712950     0.7092921027     3.1960164936
NI      4.9139542508     2.8371423773     3.1938182119
NI      6.1431096881     4.9658897604     3.1954478659
NI      7.3718145290     7.0943679596     3.1940157834
NI      8.6004845043     9.2214366504     3.1961031483
NI      6.1430424798     0.7095542886     3.1960097477
NI      7.3715659092     2.8373383753     3.1960264356
NI      8.6006561889     4.9662932464     3.1950922147
NI      9.8288626693     7.0935869012     3.1962538155
NI     11.0577458256     9.2215660421     3.1959411594
NI      8.6007526144     0.7092508704     3.1958002331
NI      9.8297698625     2.8373020704     3.1945197284
NI     11.0576824356     4.9654353578     3.1953678710
NI     12.2864560039     7.0935927286     3.1960457594
NI     13.5151599948     9.2218396405     3.1962632105
NI     11.0582299285     0.7089612451     3.1954875930
NI     12.2868494212     2.8374106263     3.1960549644
NI     13.5150367019     4.9655480843     3.1959353568
NI     14.7438113311     7.0935775363     3.1960048207
NI     15.9725153213     9.2216782260     3.1959015335
NI      2.4568913694     1.4184877887     5.2034581380
NI      3.6864375241     3.5465176899     5.2039293629
NI      4.9157735199     5.6742097814     5.2040528086
NI      6.1436506558     7.8025348525     5.2040613469
NI      7.3718711740     9.9314447388     5.2032980772
NI      4.9147256506     1.4192157745     5.2037224484
NI      6.1468368943     3.5488738659     5.2045909389
NI      7.3717281999     5.6737023933     5.2016078107
NI      8.5999253817     7.8021869467     5.2042588927
NI      9.8291902950     9.9311482355     5.2035707034
NI      7.3724223369     1.4204843163     5.2037066000
NI      8.5991495957     3.5472746463     5.2015358177
NI      9.8279177005     5.6738754524     5.2038224257
NI     11.0581024335     7.8030945180     5.2032046854
NI     12.2866341166     9.9310057398     5.2032785908
NI      9.8292356466     1.4196293179     5.2029604742
NI     11.0573713432     3.5459778075     5.2029780315
NI     12.2865413929     5.6750838822     5.2028040493
NI     13.5150569392     7.8030581351     5.2034757955
NI     14.7436429254     9.9310424712     5.2031437404
NI     12.2868355255     1.4183481939     5.2035386819
NI     13.5147308697     3.5467546248     5.2041497646
NI     14.7436333220     5.6749989923     5.2031935002
NI     15.9721332333     7.8031643065     5.2033888025
NI     17.2009559707     9.9316246096     5.2039356184
NI     -0.0000933736     0.0001044624     7.2107701656
NI      1.2284946296     2.1281117253     7.2106026763
NI      2.4571206206     4.2561952914     7.2105984391
NI      3.6855279608     6.3843814159     7.2114828220
NI      4.9146606547     8.5126371207     7.2105708125
NI      2.4574169523    -0.0000686539     7.2104555137
NI      3.6864580402     2.1278617768     7.2114291688
NI      4.9043335076     4.2559298838     7.2046502162
NI      6.1377318307     6.3941026090     7.2020485690
NI      7.3718563144     8.5122728953     7.2111855173
NI      4.9150746516     0.0003073521     7.2123191998
NI      6.1382233370     2.1181279236     7.2031086430
NI      7.3682418989     4.2650464003     7.2277209840
NI      8.6060757551     6.3933574381     7.2029163931
NI      9.8293379003     8.5118573250     7.2108832186
NI      7.3717973697    -0.0000463110     7.2143821933
NI      8.6017515901     2.1168251424     7.2095554528
NI      9.8465055843     4.2604195443     7.1940755384
NI     11.0579611053     6.3841716293     7.2126375900
NI     12.2863144623     8.5126048573     7.2101675936
NI      9.8289954774    -0.0001850870     7.2113771949
NI     11.0578374335     2.1285131800     7.2110798710
NI     12.2859886896     4.2565087010     7.2114273226
NI     13.5150474297     6.3841267553     7.2103067295
NI     14.7437140372     8.5124907065     7.2100532592
C       8.1411771790     3.4569845054     9.7651588628
C       7.8765270537     2.8873378761    11.1311304064
C       8.0709653680     4.0186855165    12.1739358841
C       8.0382819241     3.4721436287    13.6381496704
C       8.1622867576     4.6050809517    14.6864190284
C       8.0078174395     4.1191683509    16.1317070043
O       7.3559961888     4.2354726272     9.1795260899
O       6.5885608022     2.3220567601    11.2661000913
O       9.3395182095     4.6441620262    11.9685070180
O       6.7952556928     2.8026678924    13.8171683445
O       9.4396737124     5.2251768522    14.5124043824
O       6.6474667344     3.7303994812    16.3716378738
H       9.1227055367     3.1923343400     9.2957712864
H       8.6732357331     2.1509757974    11.3064697742
H       7.2401610422     4.7501345680    12.0410481655
H       8.8885718210     2.7539170106    13.7904561381
H       7.3442575005     5.3315050622    14.4947111790
H       8.7131907959     3.3023528051    16.3586118958
H       8.2845323228     4.9420096994    16.8080646356
H       6.4855188436     1.7392147304    10.5052285308
H       9.2291245553     5.2780925351    11.2511613941
H       6.9425907592     1.9977253313    14.3321257985
H       9.4191519241     6.0013438373    15.0805284459
H       6.6306633447     3.4439458069    17.2928213720
