124
Step 1 | ATOMIC_POSITIONS (angstrom) | Cartesian Angstrom
NI      0.0000000000     0.0000000000     1.1900000730
NI      1.2286496050     2.1280835410     1.1900000730
NI      2.4572992100     4.2561670810     1.1900000730
NI      3.6859488150     6.3842506220     1.1900000730
NI      4.9145984200     8.5123341620     1.1900000730
NI      2.4572992100     0.0000000000     1.1900000730
NI      3.6859488150     2.1280835410     1.1900000730
NI      4.9145984200     4.2561670810     1.1900000730
NI      6.1432480250     6.3842506220     1.1900000730
NI      7.3718976300     8.5123341620     1.1900000730
NI      4.9145984200     0.0000000000     1.1900000730
NI      6.1432480250     2.1280835410     1.1900000730
NI      7.3718976300     4.2561670810     1.1900000730
NI      8.6005472350     6.3842506220     1.1900000730
NI      9.8291968400     8.5123341620     1.1900000730
NI      7.3718976300     0.0000000000     1.1900000730
NI      8.6005472350     2.1280835410     1.1900000730
NI      9.8291968400     4.2561670810     1.1900000730
NI     11.0578464450     6.3842506220     1.1900000730
NI     12.2864960500     8.5123341620     1.1900000730
NI      9.8291968400     0.0000000000     1.1900000730
NI     11.0578464450     2.1280835410     1.1900000730
NI     12.2864960500     4.2561670810     1.1900000730
NI     13.5151456550     6.3842506220     1.1900000730
NI     14.7437952600     8.5123341620     1.1900000730
NI      1.2289825314     0.7078245869     3.1972611471
NI      2.4576476781     2.8358357618     3.2004298598
NI      3.6868732773     4.9636813674     3.1973378806
NI      4.9154395105     7.0927331280     3.1979409699
NI      6.1440020904     9.2197973339     3.2005110405
NI      3.6860265797     0.7078676755     3.2012437707
NI      4.9188934923     2.8382375493     3.2008568058
NI      6.1469489052     4.9634905716     3.2066773863
NI      7.3723737951     7.0879509166     3.2033636981
NI      8.6005274235     9.2198423259     3.2014061212
NI      6.1428441623     0.7090010911     3.1976520401
NI      7.3735616110     2.8395083003     3.2065688104
NI      8.5979234154     4.9630110929     3.2082446265
NI      9.8276979501     7.0924441251     3.1989687280
NI     11.0574255306     9.2207872224     3.2014495831
NI      8.6013271811     0.7086469234     3.1974204297
NI      9.8252392387     2.8389499877     3.2029825809
NI     11.0569293747     4.9633545669     3.1984392434
NI     12.2859695902     7.0926083512     3.2013878606
NI     13.5142291835     9.2204351475     3.2021664906
NI     11.0579580028     0.7082110928     3.1996349602
NI     12.2858497718     2.8361588541     3.2000561781
NI     13.5150298221     4.9643332012     3.2000787900
NI     14.7429759514     7.0924135397     3.2009968215
NI     15.9719686658     9.2203213383     3.2002927603
NI      2.4553351222     1.4155584896     5.2126653598
NI      3.6859982371     3.5424646923     5.2079807398
NI      4.9141479117     5.6737342577     5.2052925088
NI      6.1443723573     7.7996040238     5.2112364867
NI      7.3713789201     9.9293429296     5.2129631976
NI      4.9132429966     1.4179308085     5.2097421314
NI      6.1570898613     3.5521567653     5.2382844194
NI      7.3717466693     5.6548549428     5.2468973553
NI      8.5983652307     7.7981489757     5.2133548981
NI      9.8277609847     9.9289467974     5.2150877268
NI      7.3721698998     1.4150852339     5.2036937906
NI      8.5858280640     3.5539119924     5.2453874592
NI      9.8299993918     5.6732275080     5.2081593565
NI     11.0564878246     7.8009276101     5.2135548304
NI     12.2849155191     9.9297915154     5.2139765586
NI      9.8298565902     1.4176732901     5.2080681021
NI     11.0561212800     3.5432361934     5.2109780109
NI     12.2857964908     5.6715272869     5.2122095521
NI     13.5139748477     7.8006580224     5.2156071781
NI     14.7437153031     9.9292515749     5.2122048320
NI     12.2865507524     1.4160330526     5.2118440973
NI     13.5144661595     3.5436127895     5.2125412825
NI     14.7434126461     5.6713454518     5.2117462389
NI     15.9724114068     7.8007768340     5.2117917827
NI     17.2006699870     9.9287323468     5.2123061322
NI     -0.0013305587    -0.0037134267     7.2230784743
NI      1.2272155059     2.1236879317     7.2230851905
NI      2.4523176927     4.2518294567     7.2272419300
NI      3.6813129079     6.3825521404     7.2253856351
NI      4.9117702315     8.5113147240     7.2260191286
NI      2.4555902644    -0.0031856629     7.2250558261
NI      3.6838443810     2.1238543386     7.2243339521
NI      4.8941210273     4.2556000839     7.1961046902
NI      6.1322215182     6.3928271151     7.2080201751
NI      7.3708342730     8.5099764251     7.2232986580
NI      4.9114561470    -0.0064836422     7.2295126245
NI      6.1371432880     2.1061019380     7.1989805386
NI      7.3721466112     4.2503811638     7.4142336791
NI      8.6093938129     6.3883864659     7.2140228163
NI      9.8293683228     8.5100867460     7.2270148971
NI      7.3714765931    -0.0076713481     7.2276678572
NI      8.6066360959     2.1084480517     7.2015691033
NI      9.8433267332     4.2553262125     7.2098243800
NI     11.0602737642     6.3818108230     7.2275541113
NI     12.2853251955     8.5090646369     7.2241686520
NI      9.8298323134    -0.0059917511     7.2269355671
NI     11.0565427299     2.1240267852     7.2247905722
NI     12.2873588682     4.2515910606     7.2253644650
NI     13.5141915705     6.3800732665     7.2223356551
NI     14.7424570338     8.5084105112     7.2217237610
C       7.9008541308     3.7644192825    10.3127911162
C       7.3095510666     3.4470286718    11.6564545053
C       7.9394381503     4.3480935287    12.7572632192
C       8.0566572652     3.6267378419    14.1158847381
C       8.2575848519     4.6289285831    15.2684071682
C       8.5947031797     3.9555219318    16.6017665317
O       7.1414363340     4.1228127831     9.3993853548
O       5.9052438769     3.5640561162    11.6525011274
O       9.2307985552     4.7546082174    12.3015153400
O       6.8779479703     2.8619180593    14.3357531252
O       9.3642691739     5.4973578425    14.9355526185
O       7.4869096526     3.1298173587    17.0101617430
H       8.9793236231     3.6293019110    10.1383123378
H       7.6026497794     2.3942122933    11.8609061275
H       7.2525851049     5.2098343245    12.8508311417
H       8.9541230377     2.9755105012    14.0498839837
H       7.3217422844     5.2069493710    15.3637935498
H       9.5143760578     3.3605315381    16.4706601267
H       8.7898346764     4.7361052554    17.3583639372
H       5.6451131759     3.8090818595    10.7399553294
H       9.6353657953     5.2501945309    13.0423246949
H       6.8496004275     2.6329248823    15.2874716097
H       9.2718029204     6.3315716076    15.4240464333
H       7.7665542850     2.5681415362    17.7507303515
