168
Step 1 | ATOMIC_POSITIONS (angstrom) | Cartesian Angstrom
NI      0.0000000000     0.0000000000     1.5000000000
NI     15.9724448650     2.1280835410     1.5000000000
NI     17.2010944700     4.2561670810     1.5000000000
NI      3.6859488150     6.3842506220     1.5000000000
NI     19.6583936800     8.5123341620     1.5000000000
NI     20.8870432850    10.6404177020     1.5000000000
NI      2.4572992100     0.0000000000     1.5000000000
NI      3.6859488160     2.1280835410     1.5000000000
NI      4.9145984200     4.2561670810     1.5000000000
NI      6.1432480250     6.3842506220     1.5000000000
NI      7.3718976300     8.5123341620     1.5000000000
NI      8.6005472350    10.6404177020     1.5000000000
NI      4.9145984200     0.0000000000     1.5000000000
NI      6.1432480250     2.1280835410     1.5000000000
NI      7.3718976300     4.2561670810     1.5000000000
NI      8.6005472350     6.3842506220     1.5000000000
NI      9.8291968400     8.5123341620     1.5000000000
NI     11.0578464450    10.6404177020     1.5000000000
NI      7.3718976300     0.0000000000     1.5000000000
NI      8.6005472350     2.1280835410     1.5000000000
NI      9.8291968400     4.2561670810     1.5000000000
NI     11.0578464450     6.3842506220     1.5000000000
NI     12.2864960500     8.5123341620     1.5000000000
NI     13.5151456550    10.6404177020     1.5000000000
NI      9.8291968400     0.0000000000     1.5000000000
NI     11.0578464450     2.1280835410     1.5000000000
NI     12.2864960500     4.2561670810     1.5000000000
NI     13.5151456550     6.3842506220     1.5000000000
NI     14.7437952600     8.5123341620     1.5000000000
NI     15.9724448650    10.6404177020     1.5000000000
NI     12.2864960500     0.0000000000     1.5000000000
NI     13.5151456550     2.1280835410     1.5000000000
NI     14.7437952600     4.2561670810     1.5000000000
NI     15.9724448650     6.3842506220     1.5000000000
NI     17.2010944700     8.5123341620     1.5000000000
NI     18.4297440740    10.6404177020     1.5000000000
NI      1.2286815946     0.7094053230     3.5132495327
NI      2.4574077324     2.8373659173     3.5136231669
NI      3.6860363089     4.9653918866     3.5132311703
NI      4.9145567655     7.0936302724     3.5132785845
NI      6.1432737178     9.2217044259     3.5133085067
NI      7.3718777555    11.3497297204     3.5132652435
NI      3.6859495334     0.7095963879     3.5133644780
NI      4.9143762880     2.8373284245     3.5135308744
NI      6.1435163208     4.9655214633     3.5137746682
NI      7.3718941114     7.0935864992     3.5131997410
NI      8.6004968439     9.2216383986     3.5131002039
NI      9.8292407966    11.3496808995     3.5137253208
NI      6.1431374066     0.7093738988     3.5130641905
NI      7.3719875965     2.8375941870     3.5136349208
NI      8.6000004715     4.9652062699     3.5122470968
NI      9.8292755342     7.0936045961     3.5135576666
NI     11.0579104616     9.2219296670     3.5125851041
NI     12.2864534084    11.3497558759     3.5135755015
NI      8.6004753338     0.7093561380     3.5134021310
NI      9.8292459756     2.8375285194     3.5132868797
NI     11.0577574790     4.9658755588     3.5138202166
NI     12.2862704488     7.0936069636     3.5134983046
NI     13.5150407004     9.2215861283     3.5134756067
NI     14.7437817438    11.3498212809     3.5133724480
NI     11.0578428845     0.7093979961     3.5133114918
NI     12.2865917413     2.8372379111     3.5129388257
NI     13.5155672868     4.9653774782     3.5127927411
NI     14.7438815237     7.0935517099     3.5128761091
NI     15.9724289407     9.2216989444     3.5133094831
NI     17.2011828122    11.3497070670     3.5133117766
NI     13.5152313518     0.7093442077     3.5132142183
NI     14.7438331927     2.8374183546     3.5130500541
NI     15.9723622342     4.9655547770     3.5134423201
NI     17.2011856838     7.0935690060     3.5133923379
NI     18.4297867748     9.2217833343     3.5132515929
NI     19.6583435432    11.3496537558     3.5133404870
NI      2.4572458815     1.4186914583     5.5291880402
NI      3.6859928517     3.5468108503     5.5293046554
NI      4.9143233552     5.6748963249     5.5291986906
NI      6.1432943885     7.8030626026     5.5294946038
NI      7.3718483253     9.9310514272     5.5294314656
NI      8.6004723820    12.0594046954     5.5291745116
NI      4.9146710017     1.4186807746     5.5293909775
NI      6.1433000883     3.5467599933     5.5294906165
NI      7.3721282929     5.6747858333     5.5297175299
NI      8.6009732096     7.8027005697     5.5297404976
NI      9.8293673720     9.9309462059     5.5296996305
NI     11.0578098008    12.0591829547     5.5294558074
NI      7.3718661373     1.4185031904     5.5292979723
NI      8.6006337043     3.5472401323     5.5298738380
NI      9.8305797915     5.6756777590     5.5282668124
NI     11.0576850268     7.8034179858     5.5264667285
NI     12.2861992582     9.9308111005     5.5297332340
NI     13.5152786853    12.0594018879     5.5293521106
NI      9.8293222229     1.4186596354     5.5295990454
NI     11.0579996399     3.5472429545     5.5295559870
NI     12.2861148136     5.6750305138     5.5256561485
NI     13.5147122971     7.8025996100     5.5301764460
NI     14.7438973650     9.9311231823     5.5294611598
NI     15.9724386197    12.0591987075     5.5293861721
NI     12.2863348219     1.4188391976     5.5293857577
NI     13.5153175347     3.5471666853     5.5295829099
NI     14.7434798001     5.6743887041     5.5293211065
NI     15.9723457239     7.8030755291     5.5293785549
NI     17.2011195623     9.9310739693     5.5292969612
NI     18.4297683237    12.0591511393     5.5293157246
NI     14.7438056606     1.4185801342     5.5294771010
NI     15.9724533074     3.5468122375     5.5296789655
NI     17.2012358215     5.6748912616     5.5294028112
NI     18.4297250984     7.8030138490     5.5294137326
NI     19.6583909254     9.9310717924     5.5294457278
NI     20.8869973567    12.0592090629     5.5292844719
NI     -0.0000904262     0.0000627566     7.5425144492
NI     15.9725354291     2.1279553034     7.5425585068
NI     17.2012536761     4.2561143315     7.5426766699
NI      3.6859701796     6.3843296458     7.5425559107
NI     19.6582128728     8.5124016657     7.5425959172
NI     20.8869219304    10.6405452782     7.5425399620
NI      2.4573193397     0.0001154160     7.5425318931
NI      3.6859692761     2.1281000506     7.5426437104
NI      4.9144389663     4.2560431447     7.5426545187
NI      6.1439483749     6.3842285958     7.5426224116
NI      7.3718708371     8.5124543468     7.5426251514
NI      8.6008487592    10.6398283156     7.5426377767
NI      4.9146261179     0.0001924399     7.5425425122
NI      6.1430034630     2.1279342406     7.5425501279
NI      7.3721700129     4.2560801920     7.5429387124
NI      8.5933699360     6.3839113212     7.5392200591
NI      9.8255297200     8.5188177434     7.5380326921
NI     11.0579309262    10.6407288855     7.5428124377
NI      7.3719761986     0.0000022349     7.5424574695
NI      8.6010739645     2.1289271825     7.5431751403
NI      9.8254600248     4.2494778455     7.5394670343
NI     11.0481406490     6.3888062370     7.4305392160
NI     12.2898949101     8.5186685440     7.5385565824
NI     13.5146709673    10.6395123634     7.5428201760
NI      9.8291368643    -0.0000529691     7.5426392114
NI     11.0575969873     2.1276615097     7.5430507894
NI     12.2852380790     4.2507401801     7.5481091698
NI     13.5271527058     6.3872005557     7.5345841169
NI     14.7439747119     8.5125719246     7.5430267011
NI     15.9724917680    10.6405709806     7.5425477588
NI     12.2865846877    -0.0001066365     7.5426371739
NI     13.5148732590     2.1283067013     7.5424405794
NI     14.7449352663     4.2558519310     7.5419543241
NI     15.9713037619     6.3842354719     7.5428641855
NI     17.2012892143     8.5123551704     7.5426473147
NI     18.4297285673    10.6404256346     7.5425155505
C      11.8055113884     5.5839285732     9.7637822102
C      11.5702360547     5.1024672299    11.1414358075
C      11.7402914997     6.2263620796    12.1944295283
C      11.7276006044     5.6445104944    13.6384262622
C      11.8309937853     6.7927826100    14.6663135606
C      11.6944522111     6.3152687061    16.1222463191
O      11.0348907666     6.4675896435     9.2825804273
O      10.2916523908     4.5217347935    11.2938880260
O      13.0087642303     6.8323587690    11.9910253541
O      10.4790409134     5.0039678197    13.8284928534
O      13.1032969848     7.4084560182    14.5082259827
O      10.3390443955     5.9300505042    16.3702313385
H      12.8131768022     5.3972385251     9.3174816199
H      12.3302585027     4.3520934722    11.3059685739
H      10.9220935230     6.9498753639    12.0332649136
H      12.5744600714     4.9298598378    13.8117865851
H      11.0336481620     7.5332275002    14.5153512280
H      12.3799710465     5.5109285893    16.3797076336
H      11.9582457292     7.1188855784    16.8288948749
H      10.1732468353     3.9359980500    10.5127071832
H      12.9031244461     7.4658243811    11.2587401902
H      10.6272749009     4.1941375318    14.3334347913
H      13.0929620021     8.1929580775    15.0873101881
H      10.3163034850     5.6375771077    17.2971298110
168
Step 2 | ATOMIC_POSITIONS (angstrom) | Cartesian Angstrom
NI      0.0000000000     0.0000000000     1.5000000000
NI     15.9724448650     2.1280835410     1.5000000000
NI     17.2010944700     4.2561670810     1.5000000000
NI      3.6859488150     6.3842506220     1.5000000000
NI     19.6583936800     8.5123341620     1.5000000000
NI     20.8870432850    10.6404177020     1.5000000000
NI      2.4572992100     0.0000000000     1.5000000000
NI      3.6859488160     2.1280835410     1.5000000000
NI      4.9145984200     4.2561670810     1.5000000000
NI      6.1432480250     6.3842506220     1.5000000000
NI      7.3718976300     8.5123341620     1.5000000000
NI      8.6005472350    10.6404177020     1.5000000000
NI      4.9145984200     0.0000000000     1.5000000000
NI      6.1432480250     2.1280835410     1.5000000000
NI      7.3718976300     4.2561670810     1.5000000000
NI      8.6005472350     6.3842506220     1.5000000000
NI      9.8291968400     8.5123341620     1.5000000000
NI     11.0578464450    10.6404177020     1.5000000000
NI      7.3718976300     0.0000000000     1.5000000000
NI      8.6005472350     2.1280835410     1.5000000000
NI      9.8291968400     4.2561670810     1.5000000000
NI     11.0578464450     6.3842506220     1.5000000000
NI     12.2864960500     8.5123341620     1.5000000000
NI     13.5151456550    10.6404177020     1.5000000000
NI      9.8291968400     0.0000000000     1.5000000000
NI     11.0578464450     2.1280835410     1.5000000000
NI     12.2864960500     4.2561670810     1.5000000000
NI     13.5151456550     6.3842506220     1.5000000000
NI     14.7437952600     8.5123341620     1.5000000000
NI     15.9724448650    10.6404177020     1.5000000000
NI     12.2864960500     0.0000000000     1.5000000000
NI     13.5151456550     2.1280835410     1.5000000000
NI     14.7437952600     4.2561670810     1.5000000000
NI     15.9724448650     6.3842506220     1.5000000000
NI     17.2010944700     8.5123341620     1.5000000000
NI     18.4297440740    10.6404177020     1.5000000000
NI      1.2287186108     0.7094254057     3.5132375488
NI      2.4574339641     2.8373915538     3.5139689615
NI      3.6861032900     4.9653026033     3.5131460125
NI      4.9145363864     7.0936408592     3.5132586001
NI      6.1433239463     9.2216408709     3.5134046758
NI      7.3718962883    11.3496457973     3.5132846909
NI      3.6859090298     0.7097739187     3.5134679843
NI      4.9141999415     2.8373105087     3.5137503800
NI      6.1437875514     4.9655495447     3.5143192187
NI      7.3718748530     7.0935937810     3.5131721768
NI      8.6004547360     9.2215604755     3.5129934172
NI      9.8293344987    11.3494935806     3.5142529773
NI      6.1430256705     0.7093991323     3.5128189473
NI      7.3720167996     2.8378332990     3.5140215393
NI      8.5995243360     4.9649790060     3.5114350238
NI      9.8291305773     7.0936543368     3.5131914131
NI     11.0579511966     9.2221927345     3.5119993385
NI     12.2863421152    11.3496372762     3.5139648302
NI      8.6004057721     0.7093042457     3.5134818284
NI      9.8293036780     2.8376437124     3.5133317881
NI     11.0576249045     4.9660560368     3.5137448463
NI     12.2862926019     7.0937285724     3.5130107101
NI     13.5149706134     9.2214166838     3.5137525933
NI     14.7437546338    11.3498057804     3.5134223164
NI     11.0578401561     0.7094484356     3.5134228262
NI     12.2867459827     2.8370930519     3.5127310298
NI     13.5160366319     4.9651937798     3.5124062406
NI     14.7439866518     7.0935302972     3.5125913808
NI     15.9723857793     9.2216241593     3.5133865695
NI     17.2012384324    11.3495933078     3.5133684701
NI     13.5153611721     0.7093110802     3.5132030643
NI     14.7439418711     2.8374594108     3.5128449413
NI     15.9722985950     4.9655895110     3.5136961153
NI     17.2012481001     7.0934951047     3.5134941058
NI     18.4298156282     9.2217737858     3.5132562155
NI     19.6583344593    11.3495078080     3.5134516499
NI      2.4571841395     1.4187140317     5.5291095817
NI      3.6860107700     3.5468661841     5.5293032994
NI      4.9140725684     5.6749173239     5.5290790063
NI      6.1432647326     7.8031546422     5.5295510276
NI      7.3717626410     9.9310757088     5.5294728552
NI      8.6004078038    12.0596126636     5.5290562497
NI      4.9146901264     1.4186675089     5.5294058050
NI      6.1431955217     3.5467170615     5.5295455671
NI      7.3721868274     5.6746263501     5.5295218123
NI      8.6011377648     7.8025302189     5.5298742068
NI      9.8294844969     9.9310628360     5.5296124033
NI     11.0577676672    12.0593436235     5.5294280982
NI      7.3718721381     1.4183968974     5.5292621279
NI      8.6005297284     3.5475764542     5.5297409455
NI      9.8282196517     5.6741101194     5.5219184498
NI     11.0577428967     7.8077077674     5.5190260108
NI     12.2859468761     9.9307791280     5.5296072500
NI     13.5153669734    12.0595482698     5.5293248548
NI      9.8294537075     1.4186110994     5.5297651799
NI     11.0583571283     3.5475708877     5.5299364367
NI     12.2889445900     5.6731184324     5.5184780030
NI     13.5145022088     7.8024411935     5.5305130019
NI     14.7440147607     9.9311692533     5.5295149726
NI     15.9724641433    12.0592124621     5.5294573506
NI     12.2862455477     1.4189439959     5.5293632582
NI     13.5154990936     3.5475879168     5.5295752032
NI     14.7435075494     5.6737076417     5.5284178487
NI     15.9722853453     7.8031330432     5.5293232245
NI     17.2011492177     9.9310379264     5.5292404067
NI     18.4297930555    12.0591253698     5.5292651403
NI     14.7437937488     1.4185694947     5.5295820065
NI     15.9726104228     3.5467871267     5.5297932575
NI     17.2013029890     5.6748978454     5.5294209029
NI     18.4296790677     7.8030192085     5.5294953018
NI     19.6583710623     9.9310469622     5.5295131030
NI     20.8869502608    12.0592709568     5.5292848127
NI     -0.0001199407     0.0001406421     7.5423969445
NI     15.9725600448     2.1278413592     7.5424874188
NI     17.2014240921     4.2561497500     7.5427019802
NI      3.6859061554     6.3843427026     7.5423616491
NI     19.6580433497     8.5124003940     7.5425410003
NI     20.8868895908    10.6406317520     7.5424531530
NI      2.4573046311     0.0001687485     7.5424235743
NI      3.6859333847     2.1281352157     7.5426049406
NI      4.9142581658     4.2560534442     7.5426358550
NI      6.1440767063     6.3842336674     7.5426205831
NI      7.3715539922     8.5126832017     7.5426151701
NI      8.6008485296    10.6397387545     7.5427058741
NI      4.9146752486     0.0003195646     7.5424578919
NI      6.1428556315     2.1277893796     7.5424341757
NI      7.3722059941     4.2558895881     7.5433286308
NI      8.5868151562     6.3832952958     7.5363518369
NI      9.8222459112     8.5252550974     7.5335524266
NI     11.0579624007    10.6412172156     7.5431651708
NI      7.3719742000    -0.0000178307     7.5422092349
NI      8.6013251021     2.1292621208     7.5438921932
NI      9.8220245580     4.2434931384     7.5365675351
NI     11.0425930439     6.3938102826     7.4204180131
NI     12.2926817761     8.5239469770     7.5348215991
NI     13.5145242133    10.6390517986     7.5431122156
NI      9.8290983259    -0.0001005373     7.5426557386
NI     11.0573894322     2.1271834840     7.5437955727
NI     12.2839570561     4.2464935333     7.5534373114
NI     13.5379466543     6.3897361944     7.5263814771
NI     14.7444097676     8.5130552958     7.5435223855
NI     15.9724991873    10.6406714522     7.5424249978
NI     12.2866653273    -0.0001916592     7.5426442239
NI     13.5147134474     2.1283805033     7.5424001275
NI     14.7459311692     4.2554868291     7.5413119024
NI     15.9709590231     6.3842557202     7.5431023263
NI     17.2014577138     8.5122973156     7.5426357694
NI     18.4296745575    10.6403960351     7.5423859376
C      11.8082108588     5.6008149574     9.7794591124
C      11.5643892099     5.0811315809    11.1518647147
C      11.7499021535     6.2153368015    12.1900499757
C      11.7212063622     5.6582454938    13.6408599348
C      11.8404314322     6.7912664208    14.6829252290
C      11.6848416669     6.3172291668    16.1281634395
O      11.0322534070     6.4702001081     9.3102841887
O      10.2747291568     4.5142568873    11.2759132398
O      13.0132203987     6.8373587368    11.9785569399
O      10.4765666664     4.9986596672    13.8260885045
O      13.1120836660     7.4178011206    14.5188675498
O      10.3339985521     5.9254949596    16.3785867866
H      12.8208609354     5.3959747103     9.3134110420
H      12.3477678222     4.3417665503    11.3151125450
H      10.9196121703     6.9463438728    12.0421529808
H      12.5694319943     4.9425865862    13.8023173146
H      11.0256869274     7.5295354580    14.5069650075
H      12.3902369845     5.4979795582    16.3714145522
H      11.9623020443     7.1304593115    16.8215013281
H      10.1680347921     3.9354350315    10.5155062377
H      12.9078588384     7.4680362875    11.2597338222
H      10.6234401423     4.1925557779    14.3374103380
H      13.0977039639     8.1925661439    15.0861494372
H      10.3110413875     5.6376247498    17.2978668610
168
Step 3 | ATOMIC_POSITIONS (angstrom) | Cartesian Angstrom
NI      0.0000000000     0.0000000000     1.5000000000
NI     15.9724448650     2.1280835410     1.5000000000
NI     17.2010944700     4.2561670810     1.5000000000
NI      3.6859488150     6.3842506220     1.5000000000
NI     19.6583936800     8.5123341620     1.5000000000
NI     20.8870432850    10.6404177020     1.5000000000
NI      2.4572992100     0.0000000000     1.5000000000
NI      3.6859488160     2.1280835410     1.5000000000
NI      4.9145984200     4.2561670810     1.5000000000
NI      6.1432480250     6.3842506220     1.5000000000
NI      7.3718976300     8.5123341620     1.5000000000
NI      8.6005472350    10.6404177020     1.5000000000
NI      4.9145984200     0.0000000000     1.5000000000
NI      6.1432480250     2.1280835410     1.5000000000
NI      7.3718976300     4.2561670810     1.5000000000
NI      8.6005472350     6.3842506220     1.5000000000
NI      9.8291968400     8.5123341620     1.5000000000
NI     11.0578464450    10.6404177020     1.5000000000
NI      7.3718976300     0.0000000000     1.5000000000
NI      8.6005472350     2.1280835410     1.5000000000
NI      9.8291968400     4.2561670810     1.5000000000
NI     11.0578464450     6.3842506220     1.5000000000
NI     12.2864960500     8.5123341620     1.5000000000
NI     13.5151456550    10.6404177020     1.5000000000
NI      9.8291968400     0.0000000000     1.5000000000
NI     11.0578464450     2.1280835410     1.5000000000
NI     12.2864960500     4.2561670810     1.5000000000
NI     13.5151456550     6.3842506220     1.5000000000
NI     14.7437952600     8.5123341620     1.5000000000
NI     15.9724448650    10.6404177020     1.5000000000
NI     12.2864960500     0.0000000000     1.5000000000
NI     13.5151456550     2.1280835410     1.5000000000
NI     14.7437952600     4.2561670810     1.5000000000
NI     15.9724448650     6.3842506220     1.5000000000
NI     17.2010944700     8.5123341620     1.5000000000
NI     18.4297440740    10.6404177020     1.5000000000
NI      1.2287829273     0.7093914088     3.5131479491
NI      2.4574645340     2.8374238193     3.5145444746
NI      3.6862677729     4.9651277511     3.5129310198
NI      4.9145726811     7.0936891447     3.5131927710
NI      6.1434375221     9.2215457781     3.5135771089
NI      7.3719241325    11.3494680965     3.5132960432
NI      3.6858585373     0.7100200464     3.5135958732
NI      4.9139904851     2.8372604405     3.5141053504
NI      6.1443094265     4.9655685527     3.5153201037
NI      7.3718409025     7.0936351532     3.5130982651
NI      8.6003619867     9.2214282850     3.5127902071
NI      9.8295168651    11.3491504018     3.5152213085
NI      6.1428660075     0.7094434605     3.5123246059
NI      7.3720841319     2.8382019746     3.5147400975
NI      8.5984302106     4.9643917780     3.5094916492
NI      9.8286007604     7.0938204624     3.5117967507
NI     11.0580040435     9.2231195561     3.5102973718
NI     12.2861620616    11.3494343779     3.5147002048
NI      8.6003049195     0.7092276632     3.5135951687
NI      9.8294383705     2.8378158392     3.5134935660
NI     11.0573116405     4.9660574162     3.5128355518
NI     12.2865442932     7.0940682879     3.5113393184
NI     13.5148661395     9.2211750036     3.5142550824
NI     14.7436943557    11.3497952268     3.5134918599
NI     11.0577962996     0.7095441090     3.5136210301
NI     12.2869623976     2.8368156740     3.5123378064
NI     13.5170846686     4.9646297068     3.5111131910
NI     14.7441606437     7.0935822448     3.5120209524
NI     15.9722731398     9.2215539861     3.5135103400
NI     17.2013177489    11.3494466395     3.5134436523
NI     13.5155466301     0.7092179072     3.5131594805
NI     14.7441035406     2.8374672381     3.5124934334
NI     15.9722631278     4.9656042807     3.5140698092
NI     17.2013521986     7.0934058083     3.5136383945
NI     18.4298757941     9.2218029222     3.5132317255
NI     19.6583144783    11.3492792877     3.5136177762
NI      2.4570814658     1.4187169255     5.5290251488
NI      3.6861030365     3.5469242163     5.5293595631
NI      4.9137001593     5.6749566842     5.5289265549
NI      6.1432279005     7.8033339952     5.5296640534
NI      7.3716039456     9.9311637460     5.5295502673
NI      8.6002642803    12.0599538788     5.5288905605
NI      4.9147853099     1.4185941112     5.5294537678
NI      6.1430002462     3.5465643712     5.5297014772
NI      7.3719135512     5.6741805892     5.5287090619
NI      8.6013949009     7.8021747018     5.5298535804
NI      9.8295424882     9.9318694741     5.5289383811
NI     11.0577321024    12.0597200518     5.5293655464
NI      7.3719681403     1.4182506122     5.5292518825
NI      8.5999796877     3.5478077870     5.5289805014
NI      9.8235046663     5.6708877195     5.5092051682
NI     11.0579403549     7.8159186820     5.5043023682
NI     12.2856134752     9.9313155049     5.5288845437
NI     13.5155412320    12.0597882199     5.5293268684
NI      9.8296284672     1.4185418537     5.5300960419
NI     11.0592876581     3.5482374973     5.5308920429
NI     12.2940423460     5.6693999427     5.5054722906
NI     13.5141140405     7.8023481091     5.5304952358
NI     14.7442075569     9.9313637234     5.5296095789
NI     15.9725427211    12.0592731061     5.5296267177
NI     12.2860687876     1.4191096252     5.5293077935
NI     13.5157656833     3.5481958646     5.5296097463
NI     14.7441780147     5.6721807937     5.5257720996
NI     15.9721448613     7.8032658933     5.5292442794
NI     17.2011997083     9.9310474988     5.5291560185
NI     18.4298154224    12.0591228163     5.5291924629
NI     14.7436996535     1.4185815373     5.5297658955
NI     15.9729950936     3.5466046532     5.5298854126
NI     17.2014178172     5.6749064816     5.5294797346
NI     18.4296136348     7.8030961185     5.5296816121
NI     19.6583414774     9.9310543613     5.5296455103
NI     20.8868206758    12.0593935158     5.5293148555
NI     -0.0001978652     0.0003038827     7.5421752549
NI     15.9725621551     2.1274926545     7.5424080552
NI     17.2018684436     4.2562135800     7.5428126086
NI      3.6858072176     6.3843766510     7.5420331665
NI     19.6577016566     8.5123983301     7.5424668487
NI     20.8868650623    10.6408525051     7.5422850139
NI      2.4572713071     0.0002399831     7.5422183386
NI      3.6858943305     2.1281518797     7.5425261886
NI      4.9139289085     4.2560892721     7.5426319685
NI      6.1438754405     6.3842037806     7.5426447662
NI      7.3706722689     8.5132671070     7.5426331916
NI      8.6005445207    10.6401116730     7.5428561597
NI      4.9148392590     0.0005393261     7.5422975494
NI      6.1426817394     2.1274515338     7.5422018683
NI      7.3720100432     4.2553398085     7.5441722536
NI      8.5747064077     6.3819482863     7.5305516707
NI      9.8162595228     8.5374106399     7.5245512483
NI     11.0580057685    10.6424536829     7.5439508090
NI      7.3719610906    -0.0000345450     7.5416996677
NI      8.6015044511     2.1293930497     7.5453298376
NI      9.8156312731     4.2328929338     7.5304071747
NI     11.0330862374     6.4036735743     7.4215109540
NI     12.2975269660     8.5335257121     7.5271631137
NI     13.5145167847    10.6386551559     7.5437140799
NI      9.8289889650    -0.0001995805     7.5426702786
NI     11.0569806723     2.1260778521     7.5454101223
NI     12.2817385746     4.2394697993     7.5626994291
NI     13.5570778505     6.3940499436     7.5104874581
NI     14.7455292576     8.5144542624     7.5446021452
NI     15.9725021636    10.6409839371     7.5422034164
NI     12.2867918417    -0.0003991099     7.5426468744
NI     13.5143986705     2.1283963333     7.5424254445
NI     14.7475896779     4.2547267149     7.5401937573
NI     15.9711180052     6.3843041346     7.5436023676
NI     17.2018530054     8.5122458718     7.5426551431
NI     18.4295368839    10.6403986110     7.5421219705
C      11.8232162611     5.6260013944     9.8113761406
C      11.5586683308     5.0446215247    11.1710330923
C      11.7546963160     6.2055634291    12.1903825944
C      11.7183486645     5.6736280066    13.6466259434
C      11.8444862426     6.7988120621    14.6991418480
C      11.6797809815     6.3102916098    16.1433342164
O      11.0243259065     6.4800165865     9.3463177030
O      10.2520483609     4.5165474174    11.2625464777
O      13.0211456023     6.8304027851    11.9650389633
O      10.4733828370     4.9941332169    13.8191416472
O      13.1237712758     7.4161033251    14.5324196229
O      10.3273041230     5.9215631668    16.3842855949
H      12.8271463752     5.3960337923     9.3082972341
H      12.3763473386     4.3189559403    11.3337193332
H      10.9216971239     6.9322796177    12.0576816611
H      12.5587333259     4.9689384872    13.7844182805
H      11.0185625189     7.5174980336    14.4946539380
H      12.4007960321     5.4830236155    16.3539619093
H      11.9689733181     7.1512585210    16.8085844439
H      10.1534043837     3.9166350786    10.4983752887
H      12.9146453090     7.4832827726    11.2497680007
H      10.6171891766     4.1900881404    14.3459861923
H      13.1080046458     8.2088013119    15.0956973377
H      10.2994632443     5.6341439843    17.3109580220
168
Step 4 | ATOMIC_POSITIONS (angstrom) | Cartesian Angstrom
NI      0.0000000000     0.0000000000     1.5000000000
NI     15.9724448650     2.1280835410     1.5000000000
NI     17.2010944700     4.2561670810     1.5000000000
NI      3.6859488150     6.3842506220     1.5000000000
NI     19.6583936800     8.5123341620     1.5000000000
NI     20.8870432850    10.6404177020     1.5000000000
NI      2.4572992100     0.0000000000     1.5000000000
NI      3.6859488160     2.1280835410     1.5000000000
NI      4.9145984200     4.2561670810     1.5000000000
NI      6.1432480250     6.3842506220     1.5000000000
NI      7.3718976300     8.5123341620     1.5000000000
NI      8.6005472350    10.6404177020     1.5000000000
NI      4.9145984200     0.0000000000     1.5000000000
NI      6.1432480250     2.1280835410     1.5000000000
NI      7.3718976300     4.2561670810     1.5000000000
NI      8.6005472350     6.3842506220     1.5000000000
NI      9.8291968400     8.5123341620     1.5000000000
NI     11.0578464450    10.6404177020     1.5000000000
NI      7.3718976300     0.0000000000     1.5000000000
NI      8.6005472350     2.1280835410     1.5000000000
NI      9.8291968400     4.2561670810     1.5000000000
NI     11.0578464450     6.3842506220     1.5000000000
NI     12.2864960500     8.5123341620     1.5000000000
NI     13.5151456550    10.6404177020     1.5000000000
NI      9.8291968400     0.0000000000     1.5000000000
NI     11.0578464450     2.1280835410     1.5000000000
NI     12.2864960500     4.2561670810     1.5000000000
NI     13.5151456550     6.3842506220     1.5000000000
NI     14.7437952600     8.5123341620     1.5000000000
NI     15.9724448650    10.6404177020     1.5000000000
NI     12.2864960500     0.0000000000     1.5000000000
NI     13.5151456550     2.1280835410     1.5000000000
NI     14.7437952600     4.2561670810     1.5000000000
NI     15.9724448650     6.3842506220     1.5000000000
NI     17.2010944700     8.5123341620     1.5000000000
NI     18.4297440740    10.6404177020     1.5000000000