88
Step 1 | ATOMIC_POSITIONS (angstrom) | Cartesian Angstrom
NI      1.2285271350     0.7092904720     2.0000000000
NI      8.6004271350     0.7092904720     2.0000000000
NI      2.4570542700     2.8371618880     2.0000000000
NI      9.8289542700     2.8371618880     2.0000000000
NI      3.6859500000     4.9656717300     2.0000000000
NI     11.0578500000     4.9656717300     2.0000000000
NI      3.6855814050     0.7092904720     2.0000000000
NI     11.0574814050     0.7092904720     2.0000000000
NI      4.9141085400     2.8371618880     2.0000000000
NI     12.2860085400     2.8371618880     2.0000000000
NI      6.1430042700     4.9656717300     2.0000000000
NI     13.5149042700     4.9656717300     2.0000000000
NI      6.1433728650     0.7092904720     2.0000000000
NI     13.5152728650     0.7092904720     2.0000000000
NI      7.3719000000     2.8371618880     2.0000000000
NI     14.7438000000     2.8371618880     2.0000000000
NI      8.6007957300     4.9656717300     2.0000000000
NI     15.9726957300     4.9656717300     2.0000000000
NI      0.0020494598    -0.0011643064     4.0326975985
NI      7.3733933742    -0.0008667566     4.0321614991
NI      1.2305466765     2.1271186209     4.0330287447
NI      8.6024324741     2.1267851767     4.0317867533
NI      2.4590529566     4.2550115589     4.0329133917
NI      9.8310940100     4.2552099719     4.0321899479
NI      2.4588605481    -0.0009792363     4.0329131566
NI      9.8311696484    -0.0010934168     4.0325384737
NI      3.6872963027     2.1270708790     4.0325105324
NI     11.0593990909     2.1271872341     4.0332602235
NI      4.9161958772     4.2550972099     4.0326544722
NI     12.2882974906     4.2550962535     4.0327064519
NI      4.9162688172    -0.0013933310     4.0324456515
NI     12.2884279670    -0.0011493906     4.0325498288
NI      6.1451938258     2.1270440257     4.0329636085
NI     13.5171994052     2.1271822731     4.0326686259
NI      7.3738634012     4.2554223714     4.0325149319
NI     14.7459273494     4.2550704569     4.0330732575
NI      1.2265976614     0.7104728848     6.0689200818
NI      8.5984418292     0.7107202194     6.0690228681
NI      2.4554544308     2.8383026328     6.0695122240
NI      9.8270509335     2.8381612652     6.0705972358
NI      3.6841339202     4.9664956244     6.0696026876
NI     11.0557905004     4.9666357342     6.0697951921
NI      3.6835749460     0.7106684922     6.0691208162
NI     11.0561797602     0.7107060150     6.0685880577
NI      4.9130497041     2.8378221343     6.0700030433
NI     12.2841987796     2.8376424437     6.0685121540
NI      6.1407023223     4.9667119686     6.0689208740
NI     13.5128590063     4.9668638868     6.0706628629
NI      6.1416304747     0.7115735577     6.0696579138
NI     13.5129636590     0.7106070745     6.0691442587
NI      7.3700802363     2.8374486814     6.0699953152
NI     14.7414155180     2.8376889330     6.0698019577
NI      8.5998548153     4.9659060353     6.0704369863
NI     15.9708655107     4.9675395086     6.0699801295
NI      0.0012989777    -0.0008072091     8.0982954747
NI      7.3738442888    -0.0032044391     8.0953998792
NI      1.2292977023     2.1273790640     8.0977582858
NI      8.6014263030     2.1280594569     8.0925124564
NI      2.4581070710     4.2560732177     8.0978604523
NI      9.8272830658     4.2588826866     8.0970520317
NI      2.4580887630    -0.0005652960     8.0990662158
NI      9.8288129926    -0.0033931366     8.0967985308
NI      3.6831221917     2.1274669735     8.0954876091
NI     11.0624630618     2.1252029091     8.1387244743
NI      4.9131994087     4.2588507289     8.0952656090
NI     12.2891998515     4.2584208855     8.0966501799
NI      4.9127550633    -0.0045856342     8.0946499397
NI     12.2885748500    -0.0035468231     8.0957960289
NI      6.1455296788     2.1294193926     8.1115306909
NI     13.5193775493     2.1282908427     8.0956199485
NI      7.3747830519     4.2606400525     8.0945611573
NI     14.7449218902     4.2556313066     8.0985783295
O       6.1386774019     2.0916720755    10.2466774612
H       5.7093440567     1.4090264064    10.7099074804
H       7.7585552076     2.8821112797    11.2969054572
H       6.2840003085     3.8928478285    11.2995037905
C       6.6635228902     2.8841841304    11.3493238518
O       6.6612522428     0.7999780803    12.5736984940
H       7.6461957754     0.8577444620    12.5779923317
C       6.1960569501     2.1532962846    12.6115698443
H       5.0711116969     2.0655226549    12.6052517032
C       6.6601219584     2.8447733895    13.8716092569
H       6.3167998720     3.8833746728    13.9024320578
H       7.7691818664     2.8315415870    13.9019827700
O       6.1783764987     2.1465386409    15.0193553859
H       6.5226549097     2.6230886670    15.7919267462
O      11.0382253280     2.1169609851    10.0770952102
H      11.7835338461     1.6876635190    10.5811607284
88
Step 2 | ATOMIC_POSITIONS (angstrom) | Cartesian Angstrom
NI      1.2285271350     0.7092904720     2.0000000000
NI      8.6004271350     0.7092904720     2.0000000000
NI      2.4570542700     2.8371618880     2.0000000000
NI      9.8289542700     2.8371618880     2.0000000000
NI      3.6859500000     4.9656717300     2.0000000000
NI     11.0578500000     4.9656717300     2.0000000000
NI      3.6855814050     0.7092904720     2.0000000000
NI     11.0574814050     0.7092904720     2.0000000000
NI      4.9141085400     2.8371618880     2.0000000000
NI     12.2860085400     2.8371618880     2.0000000000
NI      6.1430042700     4.9656717300     2.0000000000
NI     13.5149042700     4.9656717300     2.0000000000
NI      6.1433728650     0.7092904720     2.0000000000
NI     13.5152728650     0.7092904720     2.0000000000
NI      7.3719000000     2.8371618880     2.0000000000
NI     14.7438000000     2.8371618880     2.0000000000
NI      8.6007957300     4.9656717300     2.0000000000
NI     15.9726957300     4.9656717300     2.0000000000
NI      0.0039364281    -0.0022639094     4.0316723773
NI      7.3748170463    -0.0017266580     4.0306813733
NI      1.2323119899     2.1262264409     4.0323130940
NI      8.6042496450     2.1256471527     4.0299942974
NI      2.4606884092     4.2539480909     4.0321026464
NI      9.8328713071     4.2542313802     4.0307753663
NI      2.4605772302    -0.0019340835     4.0320808346
NI      9.8330225540    -0.0021780007     4.0314080583
NI      3.6888775439     2.1261359179     4.0313415560
NI     11.0608293230     2.1263514826     4.0328931349
NI      4.9179317417     4.2540522628     4.0315875208
NI     12.2900320234     4.2541214459     4.0317268228
NI      4.9178692956    -0.0026518018     4.0312421696
NI     12.2900124920    -0.0022327413     4.0313786534
NI      6.1469793964     2.1260762081     4.0321976766
NI     13.5188914412     2.1263341811     4.0315996354
NI      7.3757104872     4.2546801144     4.0313417523
NI     14.7476989597     4.2540379390     4.0324756279
NI      1.2247770570     0.7115614510     6.0693124663
NI      8.5966274007     0.7119795608     6.0692384924
NI      2.4539061189     2.8394141161     6.0702957379
NI      9.8259032902     2.8388594959     6.0732488317
NI      3.6823481422     4.9673294491     6.0703990916
NI     11.0538613829     4.9674920040     6.0707214305
NI      3.6816832844     0.7119008911     6.0695022886
NI     11.0549865829     0.7127189296     6.0694674885
NI      4.9121819770     2.8383880675     6.0717018383
NI     12.2819168055     2.8377131662     6.0693208563
NI      6.1385747992     4.9677489362     6.0691300193
NI     13.5109506812     4.9679722929     6.0725150788
NI      6.1399406062     0.7137488563     6.0707750863
NI     13.5108418452     0.7118042866     6.0696241650
NI      7.3680365360     2.8375758669     6.0716417724
NI     14.7393064515     2.8383364577     6.0707788351
NI      8.5990447777     4.9662570582     6.0717556431
NI     15.9690895551     4.9691186693     6.0710930388
NI      0.0024501711    -0.0014524242     8.0949909012
NI      7.3755867100    -0.0058052895     8.0894336508
NI      1.2298961403     2.1267301720     8.0939222611
NI      8.6022204901     2.1280330007     8.0840873470
NI      2.4588783066     4.2558907455     8.0941318187
NI      9.8258689547     4.2610186599     8.0926746470
NI      2.4589164286    -0.0010349051     8.0964680821
NI      9.8286237394    -0.0061422441     8.0915385719
NI      3.6811265130     2.1269151087     8.0897474263
NI     11.0668712239     2.1226154864     8.1696743016
NI      4.9124507931     4.2610394354     8.0893079111
NI     12.2914763667     4.2600198174     8.0912852967
NI      4.9112499280    -0.0082573279     8.0877244770
NI     12.2903144239    -0.0066328709     8.0901143135
NI      6.1470364754     2.1299804358     8.1224892227
NI     13.5229088674     2.1283626712     8.0898164661
NI      7.3769469954     4.2640504859     8.0880457344
NI     14.7458743575     4.2550447355     8.0955157274
O       6.1447286167     2.1102779154    10.2439015309
H       5.6969979881     1.3789966919    10.7033650386
H       7.7626875611     2.8841528552    11.2958727057
H       6.2805177726     3.9039764940    11.2967371933
C       6.6633270923     2.8782918422    11.3516857502
O       6.6656641400     0.7964687950    12.5718389188
H       7.6392235320     0.8530372442    12.5770304746
C       6.1958863029     2.1552000943    12.6176649391
H       5.0811541987     2.0680559555    12.6065646541
C       6.6640168109     2.8455795484    13.8798192381
H       6.3164239050     3.8904971088    13.8978516365
H       7.7705816890     2.8349465154    13.8961125767
O       6.1736133699     2.1438465352    15.0216568264
H       6.5210290803     2.6211226116    15.7931594648
O      11.0416120772     2.1142365831    10.0664326449
H      11.7761561119     1.6921536175    10.5659048106
