88
Step 1 | ATOMIC_POSITIONS (angstrom) | Cartesian Angstrom
NI      1.2285271350     0.7092904720     2.0000000000
NI      8.6004271350     0.7092904720     2.0000000000
NI      2.4570542700     2.8371618880     2.0000000000
NI      9.8289542700     2.8371618880     2.0000000000
NI      3.6859500000     4.9656717300     2.0000000000
NI     11.0578500000     4.9656717300     2.0000000000
NI      3.6855814050     0.7092904720     2.0000000000
NI     11.0574814050     0.7092904720     2.0000000000
NI      4.9141085400     2.8371618880     2.0000000000
NI     12.2860085400     2.8371618880     2.0000000000
NI      6.1430042700     4.9656717300     2.0000000000
NI     13.5149042700     4.9656717300     2.0000000000
NI      6.1433728650     0.7092904720     2.0000000000
NI     13.5152728650     0.7092904720     2.0000000000
NI      7.3719000000     2.8371618880     2.0000000000
NI     14.7438000000     2.8371618880     2.0000000000
NI      8.6007957300     4.9656717300     2.0000000000
NI     15.9726957300     4.9656717300     2.0000000000
NI      0.0020494598    -0.0011643064     4.0326975985
NI      7.3733933742    -0.0008667566     4.0321614991
NI      1.2305466765     2.1271186209     4.0330287447
NI      8.6024324741     2.1267851767     4.0317867533
NI      2.4590529566     4.2550115589     4.0329133917
NI      9.8310940100     4.2552099719     4.0321899479
NI      2.4588605481    -0.0009792363     4.0329131566
NI      9.8311696484    -0.0010934168     4.0325384737
NI      3.6872963027     2.1270708790     4.0325105324
NI     11.0593990909     2.1271872341     4.0332602235
NI      4.9161958772     4.2550972099     4.0326544722
NI     12.2882974906     4.2550962535     4.0327064519
NI      4.9162688172    -0.0013933310     4.0324456515
NI     12.2884279670    -0.0011493906     4.0325498288
NI      6.1451938258     2.1270440257     4.0329636085
NI     13.5171994052     2.1271822731     4.0326686259
NI      7.3738634012     4.2554223714     4.0325149319
NI     14.7459273494     4.2550704569     4.0330732575
NI      1.2265976614     0.7104728848     6.0689200818
NI      8.5984418292     0.7107202194     6.0690228681
NI      2.4554544308     2.8383026328     6.0695122240
NI      9.8270509335     2.8381612652     6.0705972358
NI      3.6841339202     4.9664956244     6.0696026876
NI     11.0557905004     4.9666357342     6.0697951921
NI      3.6835749460     0.7106684922     6.0691208162
NI     11.0561797602     0.7107060150     6.0685880577
NI      4.9130497041     2.8378221343     6.0700030433
NI     12.2841987796     2.8376424437     6.0685121540
NI      6.1407023223     4.9667119686     6.0689208740
NI     13.5128590063     4.9668638868     6.0706628629
NI      6.1416304747     0.7115735577     6.0696579138
NI     13.5129636590     0.7106070745     6.0691442587
NI      7.3700802363     2.8374486814     6.0699953152
NI     14.7414155180     2.8376889330     6.0698019577
NI      8.5998548153     4.9659060353     6.0704369863
NI     15.9708655107     4.9675395086     6.0699801295
NI      0.0012989777    -0.0008072091     8.0982954747
NI      7.3738442888    -0.0032044391     8.0953998792
NI      1.2292977023     2.1273790640     8.0977582858
NI      8.6014263030     2.1280594569     8.0925124564
NI      2.4581070710     4.2560732177     8.0978604523
NI      9.8272830658     4.2588826866     8.0970520317
NI      2.4580887630    -0.0005652960     8.0990662158
NI      9.8288129926    -0.0033931366     8.0967985308
NI      3.6831221917     2.1274669735     8.0954876091
NI     11.0624630618     2.1252029091     8.1387244743
NI      4.9131994087     4.2588507289     8.0952656090
NI     12.2891998515     4.2584208855     8.0966501799
NI      4.9127550633    -0.0045856342     8.0946499397
NI     12.2885748500    -0.0035468231     8.0957960289
NI      6.1455296788     2.1294193926     8.1115306909
NI     13.5193775493     2.1282908427     8.0956199485
NI      7.3747830519     4.2606400525     8.0945611573
NI     14.7449218902     4.2556313066     8.0985783295
O       6.1386774019     2.0916720755    10.2466774612
H       5.7093440567     1.4090264064    10.7099074804
H       7.7585552076     2.8821112797    11.2969054572
H       6.2840003085     3.8928478285    11.2995037905
C       6.6635228902     2.8841841304    11.3493238518
O       6.6612522428     0.7999780803    12.5736984940
H       7.6461957754     0.8577444620    12.5779923317
C       6.1960569501     2.1532962846    12.6115698443
H       5.0711116969     2.0655226549    12.6052517032
C       6.6601219584     2.8447733895    13.8716092569
H       6.3167998720     3.8833746728    13.9024320578
H       7.7691818664     2.8315415870    13.9019827700
O       6.1783764987     2.1465386409    15.0193553859
H       6.5226549097     2.6230886670    15.7919267462
O      11.0382253280     2.1169609851    10.0770952102
H      11.7835338461     1.6876635190    10.5811607284
88
Step 2 | ATOMIC_POSITIONS (angstrom) | Cartesian Angstrom
NI      1.2285271350     0.7092904720     2.0000000000
NI      8.6004271350     0.7092904720     2.0000000000
NI      2.4570542700     2.8371618880     2.0000000000
NI      9.8289542700     2.8371618880     2.0000000000
NI      3.6859500000     4.9656717300     2.0000000000
NI     11.0578500000     4.9656717300     2.0000000000
NI      3.6855814050     0.7092904720     2.0000000000
NI     11.0574814050     0.7092904720     2.0000000000
NI      4.9141085400     2.8371618880     2.0000000000
NI     12.2860085400     2.8371618880     2.0000000000
NI      6.1430042700     4.9656717300     2.0000000000
NI     13.5149042700     4.9656717300     2.0000000000
NI      6.1433728650     0.7092904720     2.0000000000
NI     13.5152728650     0.7092904720     2.0000000000
NI      7.3719000000     2.8371618880     2.0000000000
NI     14.7438000000     2.8371618880     2.0000000000
NI      8.6007957300     4.9656717300     2.0000000000
NI     15.9726957300     4.9656717300     2.0000000000
NI      0.0039364281    -0.0022639094     4.0316723773
NI      7.3748170463    -0.0017266580     4.0306813733
NI      1.2323119899     2.1262264409     4.0323130940
NI      8.6042496450     2.1256471527     4.0299942974
NI      2.4606884092     4.2539480909     4.0321026464
NI      9.8328713071     4.2542313802     4.0307753663
NI      2.4605772302    -0.0019340835     4.0320808346
NI      9.8330225540    -0.0021780007     4.0314080583
NI      3.6888775439     2.1261359179     4.0313415560
NI     11.0608293230     2.1263514826     4.0328931349
NI      4.9179317417     4.2540522628     4.0315875208
NI     12.2900320234     4.2541214459     4.0317268228
NI      4.9178692956    -0.0026518018     4.0312421696
NI     12.2900124920    -0.0022327413     4.0313786534
NI      6.1469793964     2.1260762081     4.0321976766
NI     13.5188914412     2.1263341811     4.0315996354
NI      7.3757104872     4.2546801144     4.0313417523
NI     14.7476989597     4.2540379390     4.0324756279
NI      1.2247770570     0.7115614510     6.0693124663
NI      8.5966274007     0.7119795608     6.0692384924
NI      2.4539061189     2.8394141161     6.0702957379
NI      9.8259032902     2.8388594959     6.0732488317
NI      3.6823481422     4.9673294491     6.0703990916
NI     11.0538613829     4.9674920040     6.0707214305
NI      3.6816832844     0.7119008911     6.0695022886
NI     11.0549865829     0.7127189296     6.0694674885
NI      4.9121819770     2.8383880675     6.0717018383
NI     12.2819168055     2.8377131662     6.0693208563
NI      6.1385747992     4.9677489362     6.0691300193
NI     13.5109506812     4.9679722929     6.0725150788
NI      6.1399406062     0.7137488563     6.0707750863
NI     13.5108418452     0.7118042866     6.0696241650
NI      7.3680365360     2.8375758669     6.0716417724
NI     14.7393064515     2.8383364577     6.0707788351
NI      8.5990447777     4.9662570582     6.0717556431
NI     15.9690895551     4.9691186693     6.0710930388
NI      0.0024501711    -0.0014524242     8.0949909012
NI      7.3755867100    -0.0058052895     8.0894336508
NI      1.2298961403     2.1267301720     8.0939222611
NI      8.6022204901     2.1280330007     8.0840873470
NI      2.4588783066     4.2558907455     8.0941318187
NI      9.8258689547     4.2610186599     8.0926746470
NI      2.4589164286    -0.0010349051     8.0964680821
NI      9.8286237394    -0.0061422441     8.0915385719
NI      3.6811265130     2.1269151087     8.0897474263
NI     11.0668712239     2.1226154864     8.1696743016
NI      4.9124507931     4.2610394354     8.0893079111
NI     12.2914763667     4.2600198174     8.0912852967
NI      4.9112499280    -0.0082573279     8.0877244770
NI     12.2903144239    -0.0066328709     8.0901143135
NI      6.1470364754     2.1299804358     8.1224892227
NI     13.5229088674     2.1283626712     8.0898164661
NI      7.3769469954     4.2640504859     8.0880457344
NI     14.7458743575     4.2550447355     8.0955157274
O       6.1447286167     2.1102779154    10.2439015309
H       5.6969979881     1.3789966919    10.7033650386
H       7.7626875611     2.8841528552    11.2958727057
H       6.2805177726     3.9039764940    11.2967371933
C       6.6633270923     2.8782918422    11.3516857502
O       6.6656641400     0.7964687950    12.5718389188
H       7.6392235320     0.8530372442    12.5770304746
C       6.1958863029     2.1552000943    12.6176649391
H       5.0811541987     2.0680559555    12.6065646541
C       6.6640168109     2.8455795484    13.8798192381
H       6.3164239050     3.8904971088    13.8978516365
H       7.7705816890     2.8349465154    13.8961125767
O       6.1736133699     2.1438465352    15.0216568264
H       6.5210290803     2.6211226116    15.7931594648
O      11.0416120772     2.1142365831    10.0664326449
H      11.7761561119     1.6921536175    10.5659048106
88
Step 3 | ATOMIC_POSITIONS (angstrom) | Cartesian Angstrom
NI      1.2285271350     0.7092904720     2.0000000000
NI      8.6004271350     0.7092904720     2.0000000000
NI      2.4570542700     2.8371618880     2.0000000000
NI      9.8289542700     2.8371618880     2.0000000000
NI      3.6859500000     4.9656717300     2.0000000000
NI     11.0578500000     4.9656717300     2.0000000000
NI      3.6855814050     0.7092904720     2.0000000000
NI     11.0574814050     0.7092904720     2.0000000000
NI      4.9141085400     2.8371618880     2.0000000000
NI     12.2860085400     2.8371618880     2.0000000000
NI      6.1430042700     4.9656717300     2.0000000000
NI     13.5149042700     4.9656717300     2.0000000000
NI      6.1433728650     0.7092904720     2.0000000000
NI     13.5152728650     0.7092904720     2.0000000000
NI      7.3719000000     2.8371618880     2.0000000000
NI     14.7438000000     2.8371618880     2.0000000000
NI      8.6007957300     4.9656717300     2.0000000000
NI     15.9726957300     4.9656717300     2.0000000000
NI      0.0087235247    -0.0050752749     4.0292694849
NI      7.3784926621    -0.0040180291     4.0273086570
NI      1.2368056136     2.1239367396     4.0307025979
NI      8.6090044446     2.1229208202     4.0258787785
NI      2.4648688666     4.2512749764     4.0302659869
NI      9.8374379296     4.2515395029     4.0276198071
NI      2.4650064573    -0.0043958577     4.0301671156
NI      9.8378358726    -0.0050555135     4.0288723255
NI      3.6930470317     2.1237782799     4.0286355844
NI     11.0644845155     2.1242180735     4.0324279938
NI      4.9223915246     4.2512523651     4.0291587989
NI     12.2945819091     4.2516207741     4.0295961152
NI      4.9220445370    -0.0058341206     4.0285178220
NI     12.2940920660    -0.0049933131     4.0286441626
NI      6.1515472831     2.1236585156     4.0305734306
NI     13.5232121416     2.1241541074     4.0291090255
NI      7.3804467704     4.2526262809     4.0287038057
NI     14.7522662399     4.2513689341     4.0312928142
NI      1.2200936627     0.7143207006     6.0693950189
NI      8.5920510484     0.7150724416     6.0682566218
NI      2.4498203672     2.8423429496     6.0710098312
NI      9.8239716553     2.8402228907     6.0803220100
NI      3.6776728291     4.9695565839     6.0711284781
NI     11.0489405684     4.9695847861     6.0715490345
NI      3.6767426964     0.7149638929     6.0691893102
NI     11.0519777239     0.7189073476     6.0720931065
NI      4.9102594839     2.8396596794     6.0758913235
NI     12.2752193120     2.8373129114     6.0717378580
NI      6.1332074479     4.9704990724     6.0683301251
NI     13.5061253575     4.9707638188     6.0759126582
NI      6.1355691319     0.7197659853     6.0733413431
NI     13.5055323268     0.7147775355     6.0696701655
NI      7.3624460513     2.8378151955     6.0749681301
NI     14.7340905459     2.8402709473     6.0719012805
NI      8.5969346991     4.9671369218     6.0732309144
NI     15.9644001492     4.9728835851     6.0725199549
NI      0.0053029324    -0.0029137236     8.0868349507
NI      7.3797704712    -0.0118505869     8.0747000515
NI      1.2314590428     2.1251143693     8.0843922979
NI      8.6044585289     2.1278274213     8.0632749576
NI      2.4608583977     4.2552309779     8.0849114586
NI      9.8229638604     4.2657779461     8.0820576212
NI      2.4608080365    -0.0020360791     8.0901356976
NI      9.8284842921    -0.0122887711     8.0774514363
NI      3.6767704260     2.1253885274     8.0757589367
NI     11.0782582355     2.1162292920     8.2413617760
NI      4.9108754070     4.2661373372     8.0746645839
NI     12.2967368744     4.2631473037     8.0769882460
NI      4.9080201736    -0.0161379790     8.0703500791
NI     12.2948256170    -0.0140884814     8.0759706470
NI      6.1507887053     2.1318360898     8.1503147331
NI     13.5315849886     2.1282820446     8.0754310747
NI      7.3817341894     4.2717226305     8.0717279080
NI     14.7485956649     4.2533855268     8.0879548150
O       6.1353781042     2.1182341221    10.2558734722
H       5.6893813285     1.3385868502    10.6650890044
H       7.7694410718     2.8893322466    11.2935693426
H       6.2771155592     3.9191446187    11.2915643858
C       6.6620610004     2.8794418942    11.3594171763
O       6.6624787050     0.7923131448    12.5685681289
H       7.6343836377     0.8408070654    12.5744295737
C       6.1986100664     2.1557470384    12.6288042477
H       5.1037572449     2.0743290153    12.6111401159
C       6.6696221516     2.8500082861    13.8946535232
H       6.3174328456     3.9028407477    13.8878791021
H       7.7748479584     2.8436562945    13.8844091641
O       6.1650970255     2.1414503337    15.0272303639
H       6.5157944459     2.6145961111    15.7977244980
O      11.0410193952     2.1124485035    10.0410640528
H      11.7659918728     1.6986784501    10.5318005936
88
Step 4 | ATOMIC_POSITIONS (angstrom) | Cartesian Angstrom
NI      1.2285271350     0.7092904720     2.0000000000
NI      8.6004271350     0.7092904720     2.0000000000
NI      2.4570542700     2.8371618880     2.0000000000
NI      9.8289542700     2.8371618880     2.0000000000
NI      3.6859500000     4.9656717300     2.0000000000
NI     11.0578500000     4.9656717300     2.0000000000
NI      3.6855814050     0.7092904720     2.0000000000
NI     11.0574814050     0.7092904720     2.0000000000
NI      4.9141085400     2.8371618880     2.0000000000
NI     12.2860085400     2.8371618880     2.0000000000
NI      6.1430042700     4.9656717300     2.0000000000
NI     13.5149042700     4.9656717300     2.0000000000
NI      6.1433728650     0.7092904720     2.0000000000
NI     13.5152728650     0.7092904720     2.0000000000
NI      7.3719000000     2.8371618880     2.0000000000
NI     14.7438000000     2.8371618880     2.0000000000
NI      8.6007957300     4.9656717300     2.0000000000
NI     15.9726957300     4.9656717300     2.0000000000
NI      0.0123405105    -0.0072378833     4.0277977369
NI      7.3813727801    -0.0059320101     4.0254282676
NI      1.2402527711     2.1221438594     4.0298209024
NI      8.6128632216     2.1211646486     4.0236279937
NI      2.4680960375     4.2492915882     4.0292237222
NI      9.8410108382     4.2491012120     4.0260078561
NI      2.4684827076    -0.0063138230     4.0290191953
NI      9.8417057834    -0.0074209365     4.0275573689
NI      3.6965320030     2.1220459050     4.0270504434
NI     11.0673086961     2.1225633489     4.0328410165
NI      4.9258268966     4.2488295041     4.0277968292
NI     12.2982815962     4.2496389389     4.0286231167
NI      4.9254366587    -0.0081281825     4.0270197953
NI     12.2972279007    -0.0070511660     4.0270551393
NI      6.1549971807     2.1218652314     4.0299067154
NI     13.5264496264     2.1224711158     4.0276702020
NI      7.3840771548     4.2507541478     4.0272742738
NI     14.7558175357     4.2492898151     4.0309110723
NI      1.2164772039     0.7163911596     6.0678064474
NI      8.5886657662     0.7171861378     6.0645326611
NI      2.4465395446     2.8447092143     6.0691973916
NI      9.8238376405     2.8408344043     6.0853194095
NI      3.6738839056     4.9714112381     6.0692834456
NI     11.0451671485     4.9710310548     6.0692175967
NI      3.6727335147     0.7171682969     6.0665264720
NI     11.0497636767     0.7249204822     6.0741734374
NI      4.9092061127     2.8403763364     6.0787378572
NI     12.2691002842     2.8362412461     6.0735820504
NI      6.1292178299     4.9728226366     6.0652810938
NI     13.5027150086     4.9726974213     6.0756530764
NI      6.1321637517     0.7250603923     6.0746847108
NI     13.5017478106     0.7168608052     6.0674987302
NI      7.3574798049     2.8378465861     6.0760208511
NI     14.7303899275     2.8422850121     6.0701379743
NI      8.5952997338     4.9677604392     6.0707801534
NI     15.9605082529     4.9752763816     6.0709081037
NI      0.0072923467    -0.0036844779     8.0810425316
NI      7.3824589384    -0.0152249102     8.0645180615
NI      1.2327153184     2.1239550569     8.0775577298
NI      8.6063063575     2.1275076159     8.0488950246
NI      2.4624070275     4.2543795727     8.0783397295
NI      9.8218889090     4.2682211073     8.0749351873
NI      2.4617939734    -0.0024240036     8.0857283379
NI      9.8289915383    -0.0153381919     8.0657975721
NI      3.6748076779     2.1240451188     8.0662939944
NI     11.0870563889     2.1119536444     8.2721559372
NI      4.9103659448     4.2691083454     8.0645889484
NI     12.2996935160     4.2637752884     8.0652964880
NI      4.9066827449    -0.0193320010     8.0576740120
NI     12.2985340933    -0.0189614779     8.0659074786
NI      6.1532813735     2.1336960541     8.1720872499
NI     13.5376128558     2.1275977097     8.0653046654
NI      7.3838858605     4.2754502836     8.0599428433
NI     14.7511688491     4.2518453773     8.0825880712
O       6.1253714884     2.1207224502    10.2577648065
H       5.6896172927     1.3152511951    10.6391688125
H       7.7678102097     2.8931441869    11.2914071606
H       6.2780496881     3.9203585268    11.2890867257
C       6.6604098377     2.8837622117    11.3657466056
O       6.6582965183     0.7932361289    12.5680876348
H       7.6326685631     0.8299761488    12.5722184037
C       6.2103410987     2.1576249747    12.6341884242
H       5.1103212015     2.0788302841    12.6163127823
C       6.6688663143     2.8534326535    13.8962687157
H       6.3202298275     3.9058923370    13.8829388089
H       7.7784476496     2.8504135739    13.8804299481
O       6.1629032601     2.1448720160    15.0285235342
H       6.5113224230     2.6090044624    15.8055927116
O      11.0284905248     2.1174964668    10.0393776677
H      11.7693794557     1.6973907297    10.5122064433
