88
Step 1 | ATOMIC_POSITIONS (angstrom) | Cartesian Angstrom
NI      1.2285271350     0.7092904720     2.0000000000
NI      8.6004271350     0.7092904720     2.0000000000
NI      2.4570542700     2.8371618880     2.0000000000
NI      9.8289542700     2.8371618880     2.0000000000
NI      3.6859500000     4.9656717300     2.0000000000
NI     11.0578500000     4.9656717300     2.0000000000
NI      3.6855814050     0.7092904720     2.0000000000
NI     11.0574814050     0.7092904720     2.0000000000
NI      4.9141085400     2.8371618880     2.0000000000
NI     12.2860085400     2.8371618880     2.0000000000
NI      6.1430042700     4.9656717300     2.0000000000
NI     13.5149042700     4.9656717300     2.0000000000
NI      6.1433728650     0.7092904720     2.0000000000
NI     13.5152728650     0.7092904720     2.0000000000
NI      7.3719000000     2.8371618880     2.0000000000
NI     14.7438000000     2.8371618880     2.0000000000
NI      8.6007957300     4.9656717300     2.0000000000
NI     15.9726957300     4.9656717300     2.0000000000
NI      0.0017907850    -0.0010240772     4.0330848480
NI      7.3737378175    -0.0013088939     4.0327542952
NI      1.2305059910     2.1269858676     4.0330243434
NI      8.6025835953     2.1271345765     4.0321119351
NI      2.4591776034     4.2550929211     4.0329781295
NI      9.8309626895     4.2550848937     4.0326308893
NI      2.4588086312    -0.0010853807     4.0327359997
NI      9.8310722223    -0.0010198718     4.0325240804
NI      3.6875231848     2.1268512820     4.0323110840
NI     11.0596356708     2.1270962710     4.0331923784
NI      4.9164307350     4.2551007027     4.0324278980
NI     12.2882583917     4.2550383216     4.0325564651
NI      4.9162112207    -0.0013189327     4.0320638999
NI     12.2885408901    -0.0009605670     4.0330812803
NI      6.1449937381     2.1274035984     4.0325516114
NI     13.5170419591     2.1270220947     4.0331107356
NI      7.3733038640     4.2552606531     4.0321744222
NI     14.7459851214     4.2550447100     4.0327705262
NI      1.2265015760     0.7105251454     6.0690163446
NI      8.5973661218     0.7092795507     6.0692542028
NI      2.4553549820     2.8382491117     6.0700564638
NI      9.8265588817     2.8382166038     6.0712374405
NI      3.6842769806     4.9664767912     6.0698483540
NI     11.0565184350     4.9680381506     6.0694293970
NI      3.6841440089     0.7104683351     6.0702314432
NI     11.0552502978     0.7098153976     6.0701583799
NI      4.9128430727     2.8378092539     6.0704241859
NI     12.2844941179     2.8390194323     6.0700868507
NI      6.1410025138     4.9664763523     6.0689506416
NI     13.5127090131     4.9668988369     6.0692643957
NI      6.1431598653     0.7109760044     6.0716525174
NI     13.5134218315     0.7103467037     6.0690287508
NI      7.3699438447     2.8376605593     6.0687847058
NI     14.7418262912     2.8383496507     6.0690714075
NI      8.5991941928     4.9664975168     6.0695949600
NI     15.9705434434     4.9668365052     6.0691253838
NI      0.0009839299    -0.0006552115     8.0979147621
NI      7.3768640105    -0.0066204029     8.1258180354
NI      1.2295055899     2.1276074072     8.0978353894
NI      8.6071225140     2.1313255062     8.0931520212
NI      2.4580045169     4.2558498816     8.0979682594
NI      9.8279944684     4.2519674817     8.0974718848
NI      2.4579714393    -0.0006627323     8.0983246996
NI      9.8335361592     0.0001546010     8.0968544699
NI      3.6832018834     2.1278560486     8.0960875308
NI     11.0583208179     2.1275687151     8.0986060928
NI      4.9130968894     4.2589473679     8.0948130382
NI     12.2887048010     4.2524561121     8.0962191244
NI      4.9095641620    -0.0037485336     8.0939623340
NI     12.2873094899    -0.0005872820     8.0976524219
NI      6.1420656536     2.1392607955     8.1110461754
NI     13.5161670432     2.1278217777     8.0975510070
NI      7.3744008006     4.2600052788     8.0948854661
NI     14.7453816799     4.2554058157     8.0976126437
O       6.1541836354     2.1967133637    10.1953182600
H       6.5409875540     1.2037578369    10.2562901545
H       7.7602804701     2.8829748854    11.2981852258
H       6.2837698488     3.8901205392    11.2975258683
C       6.6508164074     2.8689951490    11.3398492071
O       6.6691903431     0.7970202178    12.5819900387
H       7.6480713208     0.8628739071    12.5875879287
C       6.1855436016     2.1536688116    12.6060851726
H       5.0740108072     2.0645802019    12.6038938148
C       6.6610743503     2.8426721322    13.8705527072
H       6.3167004921     3.8831845307    13.9020533684
H       7.7696319927     2.8319015634    13.9027164146
O       6.1786813849     2.1465723667    15.0199915223
H       6.5226077773     2.6230796843    15.7920251660
O       7.3729986863    -0.0021252818    10.0738948505
H       7.3702600895    -0.0134190871    11.0701548822
88
Step 2 | ATOMIC_POSITIONS (angstrom) | Cartesian Angstrom
NI      1.2285271350     0.7092904720     2.0000000000
NI      8.6004271350     0.7092904720     2.0000000000
NI      2.4570542700     2.8371618880     2.0000000000
NI      9.8289542700     2.8371618880     2.0000000000
NI      3.6859500000     4.9656717300     2.0000000000
NI     11.0578500000     4.9656717300     2.0000000000
NI      3.6855814050     0.7092904720     2.0000000000
NI     11.0574814050     0.7092904720     2.0000000000
NI      4.9141085400     2.8371618880     2.0000000000
NI     12.2860085400     2.8371618880     2.0000000000
NI      6.1430042700     4.9656717300     2.0000000000
NI     13.5149042700     4.9656717300     2.0000000000
NI      6.1433728650     0.7092904720     2.0000000000
NI     13.5152728650     0.7092904720     2.0000000000
NI      7.3719000000     2.8371618880     2.0000000000
NI     14.7438000000     2.8371618880     2.0000000000
NI      8.6007957300     4.9656717300     2.0000000000
NI     15.9726957300     4.9656717300     2.0000000000
NI      0.0044788847    -0.0025956981     4.0319047824
NI      7.3763840679    -0.0032071169     4.0313715561
NI      1.2333219615     2.1253461759     4.0317760793
NI      8.6057076917     2.1256558045     4.0296052798
NI      2.4620383964     4.2534610344     4.0316887285
NI      9.8336665143     4.2533847326     4.0309800790
NI      2.4614955149    -0.0026877004     4.0311149012
NI      9.8339098732    -0.0025181895     4.0305849396
NI      3.6903069380     2.1250205361     4.0301019113
NI     11.0623478207     2.1255927243     4.0323589524
NI      4.9194756332     4.2534160987     4.0303754676
NI     12.2909028964     4.2533065024     4.0306409250
NI      4.9188067960    -0.0031823897     4.0296151847
NI     12.2912328872    -0.0024063825     4.0319312358
NI      6.1476073958     2.1261785328     4.0307802505
NI     13.5195115959     2.1254261473     4.0319991875
NI      7.3755273553     4.2538485006     4.0297833444
NI     14.7488969661     4.2533607099     4.0311530966
NI      1.2234721234     0.7123718041     6.0698136534
NI      8.5923480296     0.7089811906     6.0712609319
NI      2.4527324218     2.8399183180     6.0721328036
NI      9.8231941399     2.8398176630     6.0748349511
NI      3.6816869000     4.9677200453     6.0716385324
NI     11.0544185262     4.9719331203     6.0714735017
NI      3.6819940407     0.7122201758     6.0724079342
NI     11.0519305295     0.7108314970     6.0723511112
NI      4.9111047592     2.8385889287     6.0734281069
NI     12.2820083939     2.8416176851     6.0721649985
NI      6.1379939224     4.9677769119     6.0693106756
NI     13.5094104184     4.9687886548     6.0702508838
NI      6.1432242599     0.7137333529     6.0781411630
NI     13.5106010182     0.7119443853     6.0698437428
NI      7.3667563142     2.8382053393     6.0693359777
NI     14.7388808522     2.8401303742     6.0699204936
NI      8.5968765449     4.9678173731     6.0707817607
NI     15.9673239564     4.9685944934     6.0700131128
NI      0.0023670080    -0.0014703457     8.0920848664
NI      7.3842643244    -0.0162534799     8.1553807048
NI      1.2306290960     2.1268624753     8.0918301622
NI      8.6160413093     2.1355329145     8.0794934417
NI      2.4589225378     4.2554571913     8.0921785101
NI      9.8266139653     4.2463068043     8.0902077009
NI      2.4590254741    -0.0013641853     8.0930170693
NI      9.8399470769     0.0001695949     8.0891236636
NI      3.6798260840     2.1274131937     8.0876711092
NI     11.0594683965     2.1266576916     8.0937813929
NI      4.9111105002     4.2632699277     8.0844433801
NI     12.2921991189     4.2468313275     8.0874571521
NI      4.9030251064    -0.0085156257     8.0818501463
NI     12.2883462600    -0.0014724977     8.0913855062
NI      6.1407526768     2.1555833134     8.1252059564
NI     13.5174019218     2.1272877575     8.0911825924
NI      7.3780382240     4.2651644355     8.0844308725
NI     14.7473982955     4.2542512784     8.0913673510
O       6.1299132452     2.1906321544    10.1904265145
H       6.5528373938     1.1887068570    10.2419736317
H       7.7628175357     2.8868446298    11.3027462496
H       6.2821883612     3.9026270773    11.2985683454
C       6.6523707988     2.8795721885    11.3334895961
O       6.6762208798     0.7843414401    12.5875739869
H       7.6469325897     0.8655542584    12.6007940475
C       6.1853877939     2.1532473807    12.6082973058
H       5.0843180510     2.0647930254    12.6040029068
C       6.6642649463     2.8446104019    13.8796113680
H       6.3167203267     3.8929360946    13.8940311563
H       7.7731969393     2.8371671577    13.8930568909
O       6.1710506843     2.1409269342    15.0235628079
H       6.5202456949     2.6203875887    15.7941443895
O       7.3671312447     0.0056990422    10.0673219506
H       7.3680609321    -0.0349761942    11.0427149453
88
Step 3 | ATOMIC_POSITIONS (angstrom) | Cartesian Angstrom
NI      1.2285271350     0.7092904720     2.0000000000
NI      8.6004271350     0.7092904720     2.0000000000
NI      2.4570542700     2.8371618880     2.0000000000
NI      9.8289542700     2.8371618880     2.0000000000
NI      3.6859500000     4.9656717300     2.0000000000
NI     11.0578500000     4.9656717300     2.0000000000
NI      3.6855814050     0.7092904720     2.0000000000
NI     11.0574814050     0.7092904720     2.0000000000
NI      4.9141085400     2.8371618880     2.0000000000
NI     12.2860085400     2.8371618880     2.0000000000
NI      6.1430042700     4.9656717300     2.0000000000
NI     13.5149042700     4.9656717300     2.0000000000
NI      6.1433728650     0.7092904720     2.0000000000
NI     13.5152728650     0.7092904720     2.0000000000
NI      7.3719000000     2.8371618880     2.0000000000
NI     14.7438000000     2.8371618880     2.0000000000
NI      8.6007957300     4.9656717300     2.0000000000
NI     15.9726957300     4.9656717300     2.0000000000
NI      0.0079984579    -0.0046863975     4.0306347822
NI      7.3797007929    -0.0056014320     4.0301976323
NI      1.2370426382     2.1232039101     4.0304410083
NI      8.6098797585     2.1236297372     4.0267997576
NI      2.4658222424     4.2512974685     4.0303287676
NI      9.8373162866     4.2510785337     4.0293253498
NI      2.4650639453    -0.0047532762     4.0293746888
NI      9.8376363700    -0.0044390342     4.0284299983
NI      3.6940065042     2.1226795343     4.0276539252
NI     11.0659405144     2.1236014335     4.0317202089
NI      4.9233360818     4.2511153816     4.0280736079
NI     12.2943604467     4.2510075738     4.0284803668
NI      4.9225048373    -0.0054349274     4.0270923345
NI     12.2947669856    -0.0043162429     4.0307180374
NI      6.1510129597     2.1242517670     4.0290809807
NI     13.5227744579     2.1233339175     4.0308180323
NI      7.3786293564     4.2519388965     4.0270701809
NI     14.7527103763     4.2511431198     4.0293271401
NI      1.2194994148     0.7147871547     6.0698016391
NI      8.5854137822     0.7082779687     6.0737936740
NI      2.4491886527     2.8421599144     6.0733782530
NI      9.8191903627     2.8419440166     6.0775404966
NI      3.6781131287     4.9694594318     6.0724688673
NI     11.0515264053     4.9773650693     6.0738521637
NI      3.6791393453     0.7144968603     6.0734680666
NI     11.0476396620     0.7124686321     6.0736924309
NI      4.9090587400     2.8393656464     6.0766191377
NI     12.2785058358     2.8447369874     6.0733371141
NI      6.1340462538     4.9696688935     6.0682663192
NI     13.5051688580     4.9712546336     6.0701864760
NI      6.1436982273     0.7174571506     6.0874943798
NI     13.5068937849     0.7140477686     6.0698622756
NI      7.3621855444     2.8386243359     6.0692529594
NI     14.7350593356     2.8424471058     6.0699344261
NI      8.5940578079     4.9697263377     6.0704469163
NI     15.9631495224     4.9708854413     6.0700162495
NI      0.0040086302    -0.0022650875     8.0848407184
NI      7.3939237659    -0.0287785087     8.1892712031
NI      1.2318512650     2.1258424859     8.0842940851
NI      8.6261830926     2.1399178559     8.0615949306
NI      2.4599478245     4.2550527485     8.0849708909
NI      9.8255746658     4.2400961336     8.0804407333
NI      2.4598407532    -0.0018643569     8.0863289021
NI      9.8479762598    -0.0001318337     8.0793482817
NI      3.6760273691     2.1268123869     8.0773156533
NI     11.0616280820     2.1252497192     8.0878190634
NI      4.9084814168     4.2691006689     8.0716022335
NI     12.2968911893     4.2396391324     8.0763316798
NI      4.8960600208    -0.0135440310     8.0662625845
NI     12.2900544052    -0.0026375133     8.0835363377
NI      6.1392623947     2.1759427544     8.1447238608
NI     13.5191986771     2.1263259065     8.0832835564
NI      7.3824148639     4.2709890372     8.0711402568
NI     14.7500965066     4.2526841129     8.0836219297
O       6.1081710216     2.1765022658    10.1911638230
H       6.5650235555     1.1774930366    10.2220231302
H       7.7638361721     2.8920493481    11.3053013960
H       6.2805433764     3.9182781713    11.2994113692
C       6.6498994300     2.8840305389    11.3261605635
O       6.6782820671     0.7775898432    12.5937135998
H       7.6516169925     0.8679028220    12.6186108384
C       6.1921331703     2.1510795510    12.6093480767
H       5.0937954256     2.0642230691    12.6043575896
C       6.6645614562     2.8469834573    13.8846219636
H       6.3181379211     3.9007190741    13.8852263354
H       7.7768235211     2.8438836123    13.8831407287
O       6.1655144465     2.1394174258    15.0272368217
H       6.5156380371     2.6148359157    15.7970159849
O       7.3560538788     0.0225479884    10.0500252628
H       7.3660484070    -0.0668036207    11.0212164811
88
Step 4 | ATOMIC_POSITIONS (angstrom) | Cartesian Angstrom
NI      1.2285271350     0.7092904720     2.0000000000
NI      8.6004271350     0.7092904720     2.0000000000
NI      2.4570542700     2.8371618880     2.0000000000
NI      9.8289542700     2.8371618880     2.0000000000
NI      3.6859500000     4.9656717300     2.0000000000
NI     11.0578500000     4.9656717300     2.0000000000
NI      3.6855814050     0.7092904720     2.0000000000
NI     11.0574814050     0.7092904720     2.0000000000
NI      4.9141085400     2.8371618880     2.0000000000
NI     12.2860085400     2.8371618880     2.0000000000
NI      6.1430042700     4.9656717300     2.0000000000
NI     13.5149042700     4.9656717300     2.0000000000
NI      6.1433728650     0.7092904720     2.0000000000
NI     13.5152728650     0.7092904720     2.0000000000
NI      7.3719000000     2.8371618880     2.0000000000
NI     14.7438000000     2.8371618880     2.0000000000
NI      8.6007957300     4.9656717300     2.0000000000
NI     15.9726957300     4.9656717300     2.0000000000
NI      0.0128358644    -0.0076069090     4.0291596249
NI      7.3840281899    -0.0087234797     4.0295216210
NI      1.2422089029     2.1202648062     4.0289287644
NI      8.6156914371     2.1206311056     4.0236433974
NI      2.4710583701     4.2482825170     4.0288056601
NI      9.8425611916     4.2478212347     4.0276859415
NI      2.4700774957    -0.0075665309     4.0274352647
NI      9.8427133391    -0.0070101520     4.0259687026
NI      3.6992142014     2.1195845380     4.0248770484
NI     11.0709446561     2.1208028656     4.0313288406
NI      4.9284644338     4.2477511415     4.0254029721
NI     12.2990902459     4.2478572828     4.0259531039
NI      4.9281246433    -0.0081836363     4.0246182658
NI     12.2996291172    -0.0069834599     4.0293598599
NI      6.1556714690     2.1210571282     4.0276692722
NI     13.5273193004     2.1204567271     4.0294759494
NI      7.3831862912     4.2491771204     4.0238548066
NI     14.7579456006     4.2480928897     4.0271327722
NI      1.2140542701     0.7180951574     6.0681227367
NI      8.5756823489     0.7069102540     6.0768596560
NI      2.4441964081     2.8453316119     6.0727637899
NI      9.8144409373     2.8448862033     6.0777672203
NI      3.6728811506     4.9720084104     6.0711602001
NI     11.0473798018     4.9850714028     6.0764206432
NI      3.6751473623     0.7176189094     6.0720403366
NI     11.0418131022     0.7151765287     6.0730652002
NI      4.9066367832     2.8400585395     6.0799986190
NI     12.2733389868     2.8485801269     6.0724115909
NI      6.1286507263     4.9725745099     6.0644604112
NI     13.4995139855     4.9746055392     6.0679474336
NI      6.1447077133     0.7228478106     6.1012434109
NI     13.5017791826     0.7169480418     6.0682120805
NI      7.3552433682     2.8387526213     6.0679742607
NI     14.7298391111     2.8456282921     6.0682205493
NI      8.5905604208     4.9726139945     6.0668613770
NI     15.9574659162     4.9740296800     6.0682040791
NI      0.0059379498    -0.0028976709     8.0754864286
NI      7.4077433481    -0.0466830501     8.2234594495
NI      1.2331523306     2.1244225457     8.0744422724
NI      8.6374871796     2.1440999572     8.0374256574
NI      2.4610712411     4.2546501726     8.0756244173
NI      9.8254701678     4.2335640762     8.0667705494
NI      2.4600885860    -0.0018644102     8.0775000617
NI      9.8583509988    -0.0011217356     8.0665622272
NI      3.6719284434     2.1259909879     8.0641985931
NI     11.0655959143     2.1229887096     8.0801285273
NI      4.9048944132     4.2773303661     8.0552485476
NI     12.3035061628     4.2301214769     8.0617724620
NI      4.8889530464    -0.0184102580     8.0455737870
NI     12.2929122734    -0.0042710478     8.0732838108
NI      6.1370849168     2.2024295092     8.1725138247
NI     13.5219458403     2.1246048650     8.0731070752
NI      7.3876779185     4.2774189090     8.0535641048
NI     14.7538811031     4.2504734776     8.0736327083
O       6.0861377769     2.1596032104    10.1977815777
H       6.5804010030     1.1652689644    10.1953792744
H       7.7610660923     2.8989964470    11.3038708641
H       6.2799766296     3.9314899709    11.2992864637
C       6.6433178291     2.8867879936    11.3183547378
O       6.6873803572     0.7759093145    12.6007121204
H       7.6546746745     0.8683301209    12.6441058402
C       6.1993075170     2.1492380903    12.6095249810
H       5.1050899965     2.0627831382    12.6050028218
C       6.6655964889     2.8503468056    13.8853942858
H       6.3208807090     3.9065605673    13.8746685051
H       7.7789045039     2.8530875372    13.8729765787
O       6.1604787702     2.1409111446    15.0258775864
H       6.5096613086     2.6078497963    15.8045442021
O       7.3371625466     0.0534217305    10.0399216713
H       7.3641760046    -0.1160171646    10.9911704389
88
Step 5 | ATOMIC_POSITIONS (angstrom) | Cartesian Angstrom
NI      1.2285271350     0.7092904720     2.0000000000
NI      8.6004271350     0.7092904720     2.0000000000
NI      2.4570542700     2.8371618880     2.0000000000
NI      9.8289542700     2.8371618880     2.0000000000
NI      3.6859500000     4.9656717300     2.0000000000
NI     11.0578500000     4.9656717300     2.0000000000
NI      3.6855814050     0.7092904720     2.0000000000
NI     11.0574814050     0.7092904720     2.0000000000
NI      4.9141085400     2.8371618880     2.0000000000
NI     12.2860085400     2.8371618880     2.0000000000
NI      6.1430042700     4.9656717300     2.0000000000
NI     13.5149042700     4.9656717300     2.0000000000
NI      6.1433728650     0.7092904720     2.0000000000
NI     13.5152728650     0.7092904720     2.0000000000
NI      7.3719000000     2.8371618880     2.0000000000
NI     14.7438000000     2.8371618880     2.0000000000
NI      8.6007957300     4.9656717300     2.0000000000
NI     15.9726957300     4.9656717300     2.0000000000
NI      0.0196045380    -0.0117193802     4.0271465978
NI      7.3897578159    -0.0128374309     4.0296425498
NI      1.2494504821     2.1161582207     4.0269533297
NI      8.6237891074     2.1160890233     4.0200165435
NI      2.4783495325     4.2440405380     4.0268048326
NI      9.8502430575     4.2432393967     4.0258543827
NI      2.4772312891    -0.0114754803     4.0249986471
NI      9.8496714643    -0.0105416577     4.0229525091
NI      3.7066700217     2.1154953086     4.0215291158
NI     11.0780368882     2.1167867247     4.0309402130
NI      4.9354171864     4.2427270735     4.0221124006
NI     12.3056734609     4.2435419519     4.0227777701
NI      4.9367572068    -0.0115256962     4.0222618746
NI     12.3064431505    -0.0107891769     4.0275769375
NI      6.1621592542     2.1158526913     4.0268142197
NI     13.5337952498     2.1164387677     4.0276743300
NI      7.3899456951     4.2450494197     4.0198377276
NI     14.7652352537     4.2438275671     4.0242371460
NI      1.2064800389     0.7226965363     6.0635477486
NI      8.5625273503     0.7047588840     6.0801005560
NI      2.4371333537     2.8498598454     6.0688708080
NI      9.8089823150     2.8489588462     6.0729169846
NI      3.6651576620     4.9757508951     6.0660516689
NI     11.0413870648     4.9955665048     6.0786711766
NI      3.6694301514     0.7220019406     6.0661338950
NI     11.0338230954     0.7195173060     6.0688310479
NI      4.9037294656     2.8406237690     6.0834828524
NI     12.2658028687     2.8533003339     6.0676135097
NI      6.1212503106     4.9770300191     6.0560260260
NI     13.4919741148     4.9791248693     6.0619692645
NI      6.1461922855     0.7309776864     6.1208038361
NI     13.4946496765     0.7210059344     6.0636460315
NI      7.3447766509     2.8384932114     6.0646805362
NI     14.7225729443     2.8500587749     6.0635372041
NI      8.5861664077     4.9768646724     6.0575568388
NI     15.9496122610     4.9784094769     6.0632942583
NI      0.0080600980    -0.0030738227     8.0630982026
NI      7.4285406138    -0.0736629964     8.2532672367
NI      1.2344556728     2.1225490123     8.0612551218
NI      8.6493629386     2.1473113770     8.0053257800
NI      2.4621921777     4.2542831811     8.0631674229
NI      9.8272360042     4.2273254636     8.0477663699
NI      2.4593066822    -0.0008743292     8.0654904039
NI      9.8717513291    -0.0033969390     8.0498348343
NI      3.6678282696     2.1248971340     8.0474657614
NI     11.0723920023     2.1193900311     8.0698749215
NI      4.8999239850     4.2890956500     8.0342928074
NI     12.3129425187     4.2174714275     8.0427710721
NI      4.8823029877    -0.0224587849     8.0182572411
NI     12.2975805728    -0.0065967399     8.0596332012
NI      6.1334429875     2.2376233741     8.2126862414
NI     13.5261610089     2.1216282283     8.0597533266
NI      7.3939452147     4.2842587094     8.0299671176
NI     14.7592479343     4.2473340284     8.0604835674
O       6.0606321872     2.1400029283    10.2076300818
H       6.6019431323     1.1502147385    10.1621029909
H       7.7512688154     2.9081123072    11.2962693569
H       6.2793011520     3.9423201101    11.2976752445
C       6.6357515812     2.8874643026    11.3114244027
O       6.6950607875     0.7791354940    12.6090517521
H       7.6662545451     0.8677152604    12.6817290039
C       6.2070032593     2.1476584004    12.6085929691
H       5.1186513234     2.0593144519    12.6063157868
C       6.6689233675     2.8558939858    13.8817292266
H       6.3247621654     3.9116987822    13.8610517382
H       7.7796829531     2.8660148772    13.8622177324
O       6.1574120592     2.1484619539    15.0235342614
H       6.4995471270     2.5960078686    15.8124755638
O       7.3061212769     0.1085436100    10.0355229131
H       7.3629926987    -0.1948670650    10.9555356143
88
Step 6 | ATOMIC_POSITIONS (angstrom) | Cartesian Angstrom
NI      1.2285271350     0.7092904720     2.0000000000
NI      8.6004271350     0.7092904720     2.0000000000
NI      2.4570542700     2.8371618880     2.0000000000
NI      9.8289542700     2.8371618880     2.0000000000
NI      3.6859500000     4.9656717300     2.0000000000
NI     11.0578500000     4.9656717300     2.0000000000
NI      3.6855814050     0.7092904720     2.0000000000
NI     11.0574814050     0.7092904720     2.0000000000
NI      4.9141085400     2.8371618880     2.0000000000
NI     12.2860085400     2.8371618880     2.0000000000
NI      6.1430042700     4.9656717300     2.0000000000
NI     13.5149042700     4.9656717300     2.0000000000
NI      6.1433728650     0.7092904720     2.0000000000
NI     13.5152728650     0.7092904720     2.0000000000
NI      7.3719000000     2.8371618880     2.0000000000
NI     14.7438000000     2.8371618880     2.0000000000
NI      8.6007957300     4.9656717300     2.0000000000
NI     15.9726957300     4.9656717300     2.0000000000
NI      0.0268327908    -0.0161173608     4.0247008925
NI      7.3954114385    -0.0168316792     4.0310564270
NI      1.2571544197     2.1118045408     4.0247054862
NI      8.6321913547     2.1106579451     4.0171223123
NI      2.4859736315     4.2395079476     4.0244558483
NI      9.8589588845     4.2384350474     4.0240050326
NI      2.4850640116    -0.0156067810     4.0223981358
NI      9.8568177140    -0.0142590154     4.0199935232
NI      3.7148738847     2.1116070505     4.0184359964
NI     11.0857323885     2.1123276705     4.0301130512
NI      4.9425048543     4.2368324284     4.0190105698
NI     12.3126685931     4.2391553129     4.0195565261
NI      4.9471206004    -0.0142896647     4.0210738734
NI     12.3137163656    -0.0149828684     4.0254640796
NI      6.1690066216     2.1092432738     4.0273926943
NI     13.5408996599     2.1121803122     4.0254770384
NI      7.3976754522     4.2401462394     4.0159889929
NI     14.7729246792     4.2393045603     4.0210836665
NI      1.1985321577     0.7275266679     6.0553702625
NI      8.5499980193     0.7024529384     6.0814130890
NI      2.4296338984     2.8547471600     6.0603678054
NI      9.8049854481     2.8531152606     6.0597641993
NI      3.6564149497     4.9799321680     6.0558165521
NI     11.0347903816     5.0058406183     6.0789299053
NI      3.6630831557     0.7267260105     6.0541107874
NI     11.0256461211     0.7248727458     6.0592806564
NI      4.9012380558     2.8407860046     6.0854276827
NI     12.2575379096     2.8572523140     6.0571742393
NI      6.1137086543     4.9823157117     6.0425550641
NI     13.4846090677     4.9835648090     6.0514265309
NI      6.1475823678     0.7407997150     6.1411648248
NI     13.4871741968     0.7252831466     6.0553785548
NI      7.3327739228     2.8378199916     6.0589905009
NI     14.7149162141     2.8547141136     6.0551685284
NI      8.5822050590     4.9815246135     6.0413121213
NI     15.9414573813     4.9830131216     6.0545653971
NI      0.0093245905    -0.0021233659     8.0507900975
NI      7.4529507782    -0.1049139722     8.2623063587
NI      1.2351365245     2.1208839186     8.0479766909
NI      8.6558068846     2.1467850428     7.9750290990
NI      2.4627125890     4.2541337547     8.0506364965
NI      9.8318498716     4.2249352092     8.0280672008
NI      2.4569473222     0.0016995381     8.0530022687
NI      9.8841383010    -0.0072025652     8.0340913610
NI      3.6659256710     2.1238859218     8.0321105396
NI     11.0812335113     2.1148994873     8.0594277013
NI      4.8947102508     4.3019493156     8.0149564044
NI     12.3232748227     4.2049721550     8.0250486792
NI      4.8800093846    -0.0228509155     7.9924050406
NI     12.3035266364    -0.0090904384     8.0460772143
NI      6.1282273272     2.2725863175     8.2573374316
NI     13.5311918848     2.1175356300     8.0467895175
NI      7.3990300975     4.2885024601     8.0063481627
NI     14.7650516651     4.2439415112     8.0476322284
O       6.0388286266     2.1316995563    10.2197455497
H       6.6249003752     1.1355300455    10.1359658913
H       7.7372648838     2.9163252455    11.2800539758
H       6.2780635885     3.9443968001    11.2944274506
C       6.6230095789     2.8827923406    11.3068402221
O       6.7104434944     0.7900204055    12.6177288588
H       7.6745895599     0.8644649334    12.7242189810
C       6.2171814490     2.1478024748    12.6069779066
H       5.1267696678     2.0538484708    12.6083337070
C       6.6705162697     2.8633350903    13.8734244478
H       6.3290513026     3.9138418152    13.8478282397
H       7.7806913709     2.8798274007    13.8552538060
O       6.1564232451     2.1593306337    15.0120412103
H       6.4898685210     2.5853110011    15.8235295635
O       7.2728975543     0.1727397098    10.0532545998
H       7.3614367091    -0.2878224655    10.9097646294
88
Step 7 | ATOMIC_POSITIONS (angstrom) | Cartesian Angstrom
NI      1.2285271350     0.7092904720     2.0000000000
NI      8.6004271350     0.7092904720     2.0000000000
NI      2.4570542700     2.8371618880     2.0000000000
NI      9.8289542700     2.8371618880     2.0000000000
NI      3.6859500000     4.9656717300     2.0000000000
NI     11.0578500000     4.9656717300     2.0000000000
NI      3.6855814050     0.7092904720     2.0000000000
NI     11.0574814050     0.7092904720     2.0000000000
NI      4.9141085400     2.8371618880     2.0000000000