74
Step 1 | ATOMIC_POSITIONS (angstrom) | Cartesian Angstrom
Ni      1.2286390390     0.7093535490     9.0125970590
Ni      2.4572760100     2.8374169220     9.0125970590
Ni      3.6859498400     4.9655441370     9.0125970590
Ni      3.6859144660     0.7093535490     9.0125970590
Ni      4.9145514370     2.8374169220     9.0125970590
Ni      6.1432252670     4.9655441370     9.0125970590
Ni      6.1432636120     0.7093535490     9.0125970590
Ni      7.3719005830     2.8374169220     9.0125970590
Ni      8.6005744130     4.9655441370     9.0125970590
Ni      0.0000019230    -0.0000011100    11.0191845730
Ni      1.2286511800     2.1280835430    11.0191845730
Ni      2.4573004380     4.2561681970    11.0191845730
Ni      2.4573019230    -0.0000011100    11.0191845730
Ni      3.6859511800     2.1280835430    11.0191845730
Ni      4.9146004380     4.2561681970    11.0191845730
Ni      4.9146019230    -0.0000011100    11.0191845730
Ni      6.1432511800     2.1280835430    11.0191845730
Ni      7.3719004380     4.2561681970    11.0191845730
Ni      9.8291970100     5.6748892401    13.0324849556
Ni      4.9145980198     5.6748893593    13.0324852164
Ni      7.3718991758     1.4187202853    13.0324856500
Ni      8.6005492460     3.5468057814    13.0324864151
Ni      7.3718984520     5.6748900664    13.0324864346
Ni      2.4573016324     1.4187213286    13.0324867123
Ni      3.6859500153     3.5468058594    13.0324876950
Ni      6.1432488122     3.5468055587    13.0324879319
Ni      4.9146003559     1.4187209547    13.0324881305
Ni      4.9146024517     2.8374451427    15.0334585589
Ni      2.4573039655     2.8374470172    15.0334598186
Ni      6.1432518675     4.9655284072    15.0334598528
Ni      7.3719008977     2.8374462771    15.0334599804
Ni      3.6859555058     0.7093603620    15.0334602556
Ni      1.2286550209     0.7093609929    15.0334616076
Ni      3.6859521613     4.9655297045    15.0334616685
Ni      8.6005513471     4.9655301153    15.0334618667
Ni      6.1432529377     0.7093606827    15.0334623189
Ni      7.3718981461     4.2561658701    17.0436126492
Ni      2.4573001516     4.2561668027    17.0436139163
Ni      4.9146014848    -0.0000023770    17.0436145683
Ni      4.9146006221     4.2561672435    17.0436152860
Ni      0.0000023638    -0.0000021113    17.0436153847
Ni      6.1432512178     2.1280823767    17.0436158106
Ni      1.2286541909     2.1280837412    17.0436166733
Ni      2.4573047358    -0.0000005294    17.0436167517
Ni      3.6859557290     2.1280847607    17.0436183569
Ni      7.3719133276     1.4185417254    19.0412527128
Ni      9.8293627318     5.6749729268    19.0412618568
Ni      2.4569508833     1.4185255155    19.0411862468
Ni      4.9144381340     5.6749861610    19.0412531377
Ni      4.9149451253     1.4185263302    19.0411987217
Ni      3.6859480532     3.5472061581    19.0411955889
Ni      7.3718944538     5.6744121483    19.0415163485
Ni      8.6001245894     3.5470438252    19.0414590828
Ni      6.1436568303     3.5470386245    19.0415219589
Ni      4.9113640011     2.8355854199    21.0506245952
Ni      6.1426207054     4.9658977596    21.0562656973
Ni      3.6859489080     4.9653749195    21.0527153099
Ni      3.6859321443     0.7131196301    21.0506280335
Ni      2.4605710367     2.8355437950    21.0506547763
Ni      1.2287959850     0.7094447015    21.0527222043
Ni      7.3718947611     2.8367188306    21.0562710784
Ni      6.1431178205     0.7094370807    21.0526753858
Ni      8.6011680750     4.9658978277    21.0562642006
Ni      3.6866672287     2.1282856129    23.0102889292
Ni      1.2229065283     2.1287908522    23.0194731425
Ni      2.4538756813     4.2607864824    23.0194882255
Ni      6.1489030313     2.1288264787    23.0194897248
Ni     -0.0000143107    -0.0000236036    23.0246784914
Ni      2.4550423935    -0.0052936533    23.0195025643
Ni      7.3718916996     4.2561504868    23.0252668263
Ni      4.9180133940     4.2607419912    23.0195206714
Ni      4.9168169540    -0.0052636215    23.0194870270
O       3.6869954061     2.1176848301    24.8659080128
H       3.7197336485     2.1081177517    25.7459390162
74
Step 2 | ATOMIC_POSITIONS (angstrom) | Cartesian Angstrom
Ni      1.2286390390     0.7093535490     9.0125970590
Ni      2.4572760100     2.8374169220     9.0125970590
Ni      3.6859498400     4.9655441370     9.0125970590
Ni      3.6859144660     0.7093535490     9.0125970590
Ni      4.9145514370     2.8374169220     9.0125970590
Ni      6.1432252670     4.9655441370     9.0125970590
Ni      6.1432636120     0.7093535490     9.0125970590
Ni      7.3719005830     2.8374169220     9.0125970590
Ni      8.6005744130     4.9655441370     9.0125970590
Ni      0.0000019230    -0.0000011100    11.0191845730
Ni      1.2286511800     2.1280835430    11.0191845730
Ni      2.4573004380     4.2561681970    11.0191845730
Ni      2.4573019230    -0.0000011100    11.0191845730
Ni      3.6859511800     2.1280835430    11.0191845730
Ni      4.9146004380     4.2561681970    11.0191845730
Ni      4.9146019230    -0.0000011100    11.0191845730
Ni      6.1432511800     2.1280835430    11.0191845730
Ni      7.3719004380     4.2561681970    11.0191845730
Ni      9.8291970100     5.6748892401    13.0324849556
Ni      4.9145980198     5.6748893593    13.0324852164
Ni      7.3718991758     1.4187202853    13.0324856500
Ni      8.6005492460     3.5468057814    13.0324864151
Ni      7.3718984520     5.6748900664    13.0324864346
Ni      2.4573016324     1.4187213286    13.0324867123
Ni      3.6859500153     3.5468058594    13.0324876950
Ni      6.1432488122     3.5468055587    13.0324879319
Ni      4.9146003559     1.4187209547    13.0324881305
Ni      4.9146024517     2.8374451427    15.0334585589
Ni      2.4573039655     2.8374470172    15.0334598186
Ni      6.1432518675     4.9655284072    15.0334598528
Ni      7.3719008977     2.8374462771    15.0334599804
Ni      3.6859555058     0.7093603620    15.0334602556
Ni      1.2286550209     0.7093609929    15.0334616076
Ni      3.6859521613     4.9655297045    15.0334616685
Ni      8.6005513471     4.9655301153    15.0334618667
Ni      6.1432529377     0.7093606827    15.0334623189
Ni      7.3718981461     4.2561658701    17.0436126492
Ni      2.4573001516     4.2561668027    17.0436139163
Ni      4.9146014848    -0.0000023770    17.0436145683
Ni      4.9146006221     4.2561672435    17.0436152860
Ni      0.0000023638    -0.0000021113    17.0436153847
Ni      6.1432512178     2.1280823767    17.0436158106
Ni      1.2286541909     2.1280837412    17.0436166733
Ni      2.4573047358    -0.0000005294    17.0436167517
Ni      3.6859557290     2.1280847607    17.0436183569
Ni      7.3719186186     1.4185371267    19.0414127181
Ni      9.8293708221     5.6749728909    19.0414251763
Ni      2.4567917889     1.4184367258    19.0411737367
Ni      4.9144318285     5.6749912079    19.0414140532
Ni      4.9151011767     1.4184378721    19.0411907823
Ni      3.6859468547     3.5473885536    19.0411867484
Ni      7.3718924212     5.6741786808    19.0417270672
Ni      8.5999192392     3.5471603400    19.0416501178
Ni      6.1438567975     3.5471544281    19.0417329179
Ni      4.9103766280     2.8350200192    21.0497681554
Ni      6.1424973090     4.9659721206    21.0572317696
Ni      3.6859468412     4.9653579753    21.0524926121
Ni      3.6859238751     0.7142746474    21.0497832691
Ni      2.4615816550     2.8349553753    21.0498304957
Ni      1.2288144643     0.7094564058    21.0525049220
Ni      7.3718903641     2.8365765295    21.0572405972
Ni      6.1431010048     0.7094453895    21.0524368246
Ni      8.6012865670     4.9659743575    21.0572325885
Ni      3.6869122523     2.1282796684    23.0199283393
Ni      1.2214157046     2.1290784667    23.0182840878
Ni      2.4528953082     4.2619387472    23.0183018947
Ni      6.1503691122     2.1291284861    23.0183136702
Ni     -0.0000129713    -0.0000293399    23.0250655343
Ni      2.4545485197    -0.0067068708    23.0183315810
Ni      7.3718967240     4.2561454448    23.0259436747
Ni      4.9189840281     4.2618829968    23.0183494736
Ni      4.9172905657    -0.0066766545    23.0183138862
O       3.6844706577     2.1182406587    24.8124748444
H       3.7220592108     2.1075047049    25.7950712281
74
Step 3 | ATOMIC_POSITIONS (angstrom) | Cartesian Angstrom
Ni      1.2286390390     0.7093535490     9.0125970590
Ni      2.4572760100     2.8374169220     9.0125970590
Ni      3.6859498400     4.9655441370     9.0125970590
Ni      3.6859144660     0.7093535490     9.0125970590
Ni      4.9145514370     2.8374169220     9.0125970590
Ni      6.1432252670     4.9655441370     9.0125970590
Ni      6.1432636120     0.7093535490     9.0125970590
Ni      7.3719005830     2.8374169220     9.0125970590
Ni      8.6005744130     4.9655441370     9.0125970590
Ni      0.0000019230    -0.0000011100    11.0191845730
Ni      1.2286511800     2.1280835430    11.0191845730
Ni      2.4573004380     4.2561681970    11.0191845730
Ni      2.4573019230    -0.0000011100    11.0191845730
Ni      3.6859511800     2.1280835430    11.0191845730
Ni      4.9146004380     4.2561681970    11.0191845730
Ni      4.9146019230    -0.0000011100    11.0191845730
Ni      6.1432511800     2.1280835430    11.0191845730
Ni      7.3719004380     4.2561681970    11.0191845730
Ni      9.8291970100     5.6748892401    13.0324849556
Ni      4.9145980198     5.6748893593    13.0324852164
Ni      7.3718991758     1.4187202853    13.0324856500
Ni      8.6005492460     3.5468057814    13.0324864151
Ni      7.3718984520     5.6748900664    13.0324864346
Ni      2.4573016324     1.4187213286    13.0324867123
Ni      3.6859500153     3.5468058594    13.0324876950
Ni      6.1432488122     3.5468055587    13.0324879319
Ni      4.9146003559     1.4187209547    13.0324881305
Ni      4.9146024517     2.8374451427    15.0334585589
Ni      2.4573039655     2.8374470172    15.0334598186
Ni      6.1432518675     4.9655284072    15.0334598528
Ni      7.3719008977     2.8374462771    15.0334599804
Ni      3.6859555058     0.7093603620    15.0334602556
Ni      1.2286550209     0.7093609929    15.0334616076
Ni      3.6859521613     4.9655297045    15.0334616685
Ni      8.6005513471     4.9655301153    15.0334618667
Ni      6.1432529377     0.7093606827    15.0334623189
Ni      7.3718981461     4.2561658701    17.0436126492
Ni      2.4573001516     4.2561668027    17.0436139163
Ni      4.9146014848    -0.0000023770    17.0436145683
Ni      4.9146006221     4.2561672435    17.0436152860
Ni      0.0000023638    -0.0000021113    17.0436153847
Ni      6.1432512178     2.1280823767    17.0436158106
Ni      1.2286541909     2.1280837412    17.0436166733
Ni      2.4573047358    -0.0000005294    17.0436167517
Ni      3.6859557290     2.1280847607    17.0436183569
Ni      7.3719299036     1.4185453613    19.0416863711
Ni      9.8293724718     5.6749643863    19.0417064609
Ni      2.4564439215     1.4182413713    19.0410891968
Ni      4.9144348907     5.6749930665    19.0416876066
Ni      4.9154435462     1.4182436877    19.0411161966
Ni      3.6859451665     3.5477881246    19.0411101602
Ni      7.3718873560     5.6737019159    19.0421972378
Ni      8.5994974399     3.5473992207    19.0420804774
Ni      6.1442645778     3.5473911575    19.0422032769
Ni      4.9081762266     2.8337623694    21.0479602341
Ni      6.1423546664     4.9660626374    21.0590385702
Ni      3.6859407717     4.9653669484    21.0519343649
Ni      3.6859029214     0.7168534584    21.0480087994
Ni      2.4638360794     2.8336423535    21.0480940819
Ni      1.2288158951     0.7094608046    21.0519609907
Ni      7.3718873733     2.8364134124    21.0590506020
Ni      6.1431062080     0.7094388963    21.0518459552
Ni      8.6014202082     4.9660628991    21.0590416327
Ni      3.6875517216     2.1283288598    23.0281734611
Ni      1.2181471516     2.1296395669    23.0154587203
Ni      2.4508077920     4.2644988192    23.0154885098
Ni      6.1535944864     2.1297135558    23.0155159570
Ni     -0.0000144571    -0.0000391502    23.0260732230
Ni      2.4534003660    -0.0097799422    23.0155379839
Ni      7.3719066240     4.2561364086    23.0276720697
Ni      4.9210551373     4.2644270000    23.0155693281
Ni      4.9184017078    -0.0097467982    23.0155146084
O       3.6830471211     2.1181626085    24.8237676661
H       3.7229154311     2.1074035036    25.7895578671
74
Step 4 | ATOMIC_POSITIONS (angstrom) | Cartesian Angstrom
Ni      1.2286390390     0.7093535490     9.0125970590
Ni      2.4572760100     2.8374169220     9.0125970590
Ni      3.6859498400     4.9655441370     9.0125970590
Ni      3.6859144660     0.7093535490     9.0125970590
Ni      4.9145514370     2.8374169220     9.0125970590
Ni      6.1432252670     4.9655441370     9.0125970590
Ni      6.1432636120     0.7093535490     9.0125970590
Ni      7.3719005830     2.8374169220     9.0125970590
Ni      8.6005744130     4.9655441370     9.0125970590
Ni      0.0000019230    -0.0000011100    11.0191845730
Ni      1.2286511800     2.1280835430    11.0191845730
Ni      2.4573004380     4.2561681970    11.0191845730
Ni      2.4573019230    -0.0000011100    11.0191845730
Ni      3.6859511800     2.1280835430    11.0191845730
Ni      4.9146004380     4.2561681970    11.0191845730
Ni      4.9146019230    -0.0000011100    11.0191845730
Ni      6.1432511800     2.1280835430    11.0191845730
Ni      7.3719004380     4.2561681970    11.0191845730
Ni      9.8291970100     5.6748892401    13.0324849556
Ni      4.9145980198     5.6748893593    13.0324852164
Ni      7.3718991758     1.4187202853    13.0324856500
Ni      8.6005492460     3.5468057814    13.0324864151
Ni      7.3718984520     5.6748900664    13.0324864346
Ni      2.4573016324     1.4187213286    13.0324867123
Ni      3.6859500153     3.5468058594    13.0324876950
Ni      6.1432488122     3.5468055587    13.0324879319
Ni      4.9146003559     1.4187209547    13.0324881305
Ni      4.9146024517     2.8374451427    15.0334585589
Ni      2.4573039655     2.8374470172    15.0334598186
Ni      6.1432518675     4.9655284072    15.0334598528
Ni      7.3719008977     2.8374462771    15.0334599804
Ni      3.6859555058     0.7093603620    15.0334602556
Ni      1.2286550209     0.7093609929    15.0334616076
Ni      3.6859521613     4.9655297045    15.0334616685
Ni      8.6005513471     4.9655301153    15.0334618667
Ni      6.1432529377     0.7093606827    15.0334623189
Ni      7.3718981461     4.2561658701    17.0436126492
Ni      2.4573001516     4.2561668027    17.0436139163
Ni      4.9146014848    -0.0000023770    17.0436145683
Ni      4.9146006221     4.2561672435    17.0436152860
Ni      0.0000023638    -0.0000021113    17.0436153847
Ni      6.1432512178     2.1280823767    17.0436158106
Ni      1.2286541909     2.1280837412    17.0436166733
Ni      2.4573047358    -0.0000005294    17.0436167517
Ni      3.6859557290     2.1280847607    17.0436183569
Ni      7.3719463207     1.4186414687    19.0420048665
Ni      9.8293011375     5.6749099604    19.0420350980
Ni      2.4559486603     1.4179626532    19.0408028090
Ni      4.9145135644     5.6749534443    19.0420049457
Ni      4.9159311801     1.4179665754    19.0408437898
Ni      3.6859428237     3.5483574618    19.0408349004
Ni      7.3718794599     5.6730874766    19.0428288379
Ni      8.5989532942     3.5477072552    19.0426638919
Ni      6.1447907740     3.5476981661    19.0428329443
Ni      4.9051816451     2.8320540029    21.0458708844
Ni      6.1424440253     4.9660245761    21.0610955741
Ni      3.6859294521     4.9654732216    21.0511034870
Ni      3.6858718276     0.7203803720    21.0459872515
Ni      2.4669275295     2.8318421572    21.0461345808
Ni      1.2287372048     0.7094224957    21.0511559574
Ni      7.3718888396     2.8365191029    21.0611094504
Ni      6.1431954765     0.7093813179    21.0509715470
Ni      8.6013211390     4.9660171993    21.0611035016
Ni      3.6885164998     2.1283835285    23.0406568206
Ni      1.2143496985     2.1303212759    23.0115221239
Ni      2.4483565306     4.2674631051    23.0115740879
Ni      6.1573589670     2.1304205204    23.0116320177
Ni     -0.0000104223    -0.0000481517    23.0275218119
Ni      2.4520849808    -0.0133606776    23.0116466594
Ni      7.3719306804     4.2561257371    23.0302878630
Ni      4.9234812673     4.2673880182    23.0117082250
Ni      4.9196682588    -0.0133353476    23.0116221745
O       3.6804594862     2.1181449599    24.8325334928
H       3.7245652217     2.1071731685    25.7884044856
74
Step 5 | ATOMIC_POSITIONS (angstrom) | Cartesian Angstrom
Ni      1.2286390390     0.7093535490     9.0125970590
Ni      2.4572760100     2.8374169220     9.0125970590
Ni      3.6859498400     4.9655441370     9.0125970590
Ni      3.6859144660     0.7093535490     9.0125970590
Ni      4.9145514370     2.8374169220     9.0125970590
Ni      6.1432252670     4.9655441370     9.0125970590
Ni      6.1432636120     0.7093535490     9.0125970590
Ni      7.3719005830     2.8374169220     9.0125970590
Ni      8.6005744130     4.9655441370     9.0125970590
Ni      0.0000019230    -0.0000011100    11.0191845730
Ni      1.2286511800     2.1280835430    11.0191845730
Ni      2.4573004380     4.2561681970    11.0191845730
Ni      2.4573019230    -0.0000011100    11.0191845730
Ni      3.6859511800     2.1280835430    11.0191845730
Ni      4.9146004380     4.2561681970    11.0191845730
Ni      4.9146019230    -0.0000011100    11.0191845730
Ni      6.1432511800     2.1280835430    11.0191845730
Ni      7.3719004380     4.2561681970    11.0191845730
Ni      9.8291970100     5.6748892401    13.0324849556
Ni      4.9145980198     5.6748893593    13.0324852164
Ni      7.3718991758     1.4187202853    13.0324856500
Ni      8.6005492460     3.5468057814    13.0324864151
Ni      7.3718984520     5.6748900664    13.0324864346
Ni      2.4573016324     1.4187213286    13.0324867123
Ni      3.6859500153     3.5468058594    13.0324876950
Ni      6.1432488122     3.5468055587    13.0324879319
Ni      4.9146003559     1.4187209547    13.0324881305
Ni      4.9146024517     2.8374451427    15.0334585589
Ni      2.4573039655     2.8374470172    15.0334598186
Ni      6.1432518675     4.9655284072    15.0334598528
Ni      7.3719008977     2.8374462771    15.0334599804
Ni      3.6859555058     0.7093603620    15.0334602556
Ni      1.2286550209     0.7093609929    15.0334616076
Ni      3.6859521613     4.9655297045    15.0334616685
Ni      8.6005513471     4.9655301153    15.0334618667
Ni      6.1432529377     0.7093606827    15.0334623189
Ni      7.3718981461     4.2561658701    17.0436126492
Ni      2.4573001516     4.2561668027    17.0436139163
Ni      4.9146014848    -0.0000023770    17.0436145683
Ni      4.9146006221     4.2561672435    17.0436152860
Ni      0.0000023638    -0.0000021113    17.0436153847
Ni      6.1432512178     2.1280823767    17.0436158106
Ni      1.2286541909     2.1280837412    17.0436166733
Ni      2.4573047358    -0.0000005294    17.0436167517
Ni      3.6859557290     2.1280847607    17.0436183569
Ni      7.3719713492     1.4188942970    19.0424103232
Ni      9.8291000351     5.6747742010    19.0424555271
Ni      2.4551810040     1.4175291919    19.0401701874
Ni      4.9147275154     5.6748393383    19.0424071767
Ni      4.9166888362     1.4175358271    19.0402337739
Ni      3.6859402811     3.5492415405    19.0402197011
Ni      7.3718663712     5.6722494998    19.0437761518
Ni      8.5982092442     3.5481283099    19.0435464394
Ni      6.1455087020     3.5481196207    19.0437743097
Ni      4.9006797114     2.8294895272    21.0431771474
Ni      6.1429662671     4.9657464279    21.0636137079
Ni      3.6859080159     4.9657896147    21.0497239579
Ni      3.6858234821     0.7257113862    21.0434261498
Ni      2.4716161897     2.8291140641    21.0436822483
Ni      1.2284842608     0.7092904195    21.0498244141
Ni      7.3718979900     2.8371266907    21.0636268085
Ni      6.1434662361     0.7092139933    21.0495269204
Ni      8.6007883611     4.9657217357    21.0636319891
Ni      3.6901655251     2.1284578566    23.0593651957
Ni      1.2094429625     2.1312180286    23.0054096089
Ni      2.4451782306     4.2712924278    23.0055040736
Ni      6.1622462833     2.1313433634    23.0056230507
Ni      0.0000034961    -0.0000555865    23.0298335422
Ni      2.4503884389    -0.0179905345    23.0056051487
Ni      7.3719810929     4.2561118758    23.0345991565
Ni      4.9266203562     4.2712351995    23.0057317234
Ni      4.9212964809    -0.0179873104    23.0055901365
O       3.6755517222     2.1182042142    24.8428285976
H       3.7277541407     2.1067272333    25.7915486185
74
Step 6 | ATOMIC_POSITIONS (angstrom) | Cartesian Angstrom
Ni      1.2286390390     0.7093535490     9.0125970590
Ni      2.4572760100     2.8374169220     9.0125970590
Ni      3.6859498400     4.9655441370     9.0125970590
Ni      3.6859144660     0.7093535490     9.0125970590
Ni      4.9145514370     2.8374169220     9.0125970590
Ni      6.1432252670     4.9655441370     9.0125970590
Ni      6.1432636120     0.7093535490     9.0125970590
Ni      7.3719005830     2.8374169220     9.0125970590
Ni      8.6005744130     4.9655441370     9.0125970590
Ni      0.0000019230    -0.0000011100    11.0191845730
Ni      1.2286511800     2.1280835430    11.0191845730
Ni      2.4573004380     4.2561681970    11.0191845730
Ni      2.4573019230    -0.0000011100    11.0191845730
Ni      3.6859511800     2.1280835430    11.0191845730
Ni      4.9146004380     4.2561681970    11.0191845730
Ni      4.9146019230    -0.0000011100    11.0191845730
Ni      6.1432511800     2.1280835430    11.0191845730
Ni      7.3719004380     4.2561681970    11.0191845730
Ni      9.8291970100     5.6748892401    13.0324849556
Ni      4.9145980198     5.6748893593    13.0324852164
Ni      7.3718991758     1.4187202853    13.0324856500
Ni      8.6005492460     3.5468057814    13.0324864151
Ni      7.3718984520     5.6748900664    13.0324864346
Ni      2.4573016324     1.4187213286    13.0324867123
Ni      3.6859500153     3.5468058594    13.0324876950
Ni      6.1432488122     3.5468055587    13.0324879319
Ni      4.9146003559     1.4187209547    13.0324881305
Ni      4.9146024517     2.8374451427    15.0334585589
Ni      2.4573039655     2.8374470172    15.0334598186
Ni      6.1432518675     4.9655284072    15.0334598528
Ni      7.3719008977     2.8374462771    15.0334599804
Ni      3.6859555058     0.7093603620    15.0334602556
Ni      1.2286550209     0.7093609929    15.0334616076
Ni      3.6859521613     4.9655297045    15.0334616685
Ni      8.6005513471     4.9655301153    15.0334618667
Ni      6.1432529377     0.7093606827    15.0334623189
Ni      7.3718981461     4.2561658701    17.0436126492
Ni      2.4573001516     4.2561668027    17.0436139163
Ni      4.9146014848    -0.0000023770    17.0436145683
Ni      4.9146006221     4.2561672435    17.0436152860
Ni      0.0000023638    -0.0000021113    17.0436153847
Ni      6.1432512178     2.1280823767    17.0436158106
Ni      1.2286541909     2.1280837412    17.0436166733
Ni      2.4573047358    -0.0000005294    17.0436167517
Ni      3.6859557290     2.1280847607    17.0436183569
Ni      7.3720128487     1.4194496986    19.0428898614
Ni      9.8286463271     5.6744817679    19.0429567895
Ni      2.4539889396     1.4168552798    19.0388966910
Ni      4.9152051601     5.6745812735    19.0428794123
Ni      4.9178659131     1.4168651100    19.0389977120
Ni      3.6859357777     3.5506153221    19.0389726661
Ni      7.3718441110     5.6711774121    19.0451882967
Ni      8.5972542367     3.5486675851    19.0448721598
Ni      6.1464293315     3.5486654359    19.0451719397
Ni      4.8939692476     2.8256739004    21.0396838095
Ni      6.1443904210     4.9649652896    21.0664748906
Ni      3.6858677634     4.9665737731    21.0473945408
Ni      3.6857488282     0.7337162803    21.0401874611
Ni      2.4786895800     2.8250028122    21.0406395262
Ni      1.2278411528     0.7089456167    21.0475843228
Ni      7.3719239212     2.8387797904    21.0664812622
Ni      6.1441438165     0.7088023748    21.0470961431
Ni      8.5993552279     4.9649041690    21.0665170824
Ni      3.6931034577     2.1285520669    23.0873830100
Ni      1.2032086842     2.1323644742    22.9958034095
Ni      2.4411431962     4.2761667200    22.9959820495
Ni      6.1684858255     2.1325066891    22.9962407900
Ni      0.0000383223    -0.0000565946    23.0335494126
Ni      2.4482222732    -0.0238676293    22.9961188874
Ni      7.3720816286     4.2560947528    23.0417279033
Ni      4.9305950265     4.2761654068    22.9963879769
Ni      4.9233704502    -0.0239031872    22.9961477988
O       3.6661184870     2.1184258237    24.8577371395
H       3.7339504961     2.1058955173    25.8012851645
74
Step 7 | ATOMIC_POSITIONS (angstrom) | Cartesian Angstrom
Ni      1.2286390390     0.7093535490     9.0125970590
Ni      2.4572760100     2.8374169220     9.0125970590
Ni      3.6859498400     4.9655441370     9.0125970590
Ni      3.6859144660     0.7093535490     9.0125970590
Ni      4.9145514370     2.8374169220     9.0125970590
Ni      6.1432252670     4.9655441370     9.0125970590
Ni      6.1432636120     0.7093535490     9.0125970590
Ni      7.3719005830     2.8374169220     9.0125970590
Ni      8.6005744130     4.9655441370     9.0125970590
Ni      0.0000019230    -0.0000011100    11.0191845730
Ni      1.2286511800     2.1280835430    11.0191845730
Ni      2.4573004380     4.2561681970    11.0191845730
Ni      2.4573019230    -0.0000011100    11.0191845730
Ni      3.6859511800     2.1280835430    11.0191845730
Ni      4.9146004380     4.2561681970    11.0191845730
Ni      4.9146019230    -0.0000011100    11.0191845730
Ni      6.1432511800     2.1280835430    11.0191845730
Ni      7.3719004380     4.2561681970    11.0191845730
Ni      9.8291970100     5.6748892401    13.0324849556
Ni      4.9145980198     5.6748893593    13.0324852164
Ni      7.3718991758     1.4187202853    13.0324856500
Ni      8.6005492460     3.5468057814    13.0324864151
Ni      7.3718984520     5.6748900664    13.0324864346
Ni      2.4573016324     1.4187213286    13.0324867123
Ni      3.6859500153     3.5468058594    13.0324876950
Ni      6.1432488122     3.5468055587    13.0324879319
Ni      4.9146003559     1.4187209547    13.0324881305
Ni      4.9146024517     2.8374451427    15.0334585589
Ni      2.4573039655     2.8374470172    15.0334598186
Ni      6.1432518675     4.9655284072    15.0334598528
Ni      7.3719008977     2.8374462771    15.0334599804
Ni      3.6859555058     0.7093603620    15.0334602556
Ni      1.2286550209     0.7093609929    15.0334616076
Ni      3.6859521613     4.9655297045    15.0334616685
Ni      8.6005513471     4.9655301153    15.0334618667
Ni      6.1432529377     0.7093606827    15.0334623189
Ni      7.3718981461     4.2561658701    17.0436126492
Ni      2.4573001516     4.2561668027    17.0436139163
Ni      4.9146014848    -0.0000023770    17.0436145683
Ni      4.9146006221     4.2561672435    17.0436152860
Ni      0.0000023638    -0.0000021113    17.0436153847
Ni      6.1432512178     2.1280823767    17.0436158106
Ni      1.2286541909     2.1280837412    17.0436166733
Ni      2.4573047358    -0.0000005294    17.0436167517
Ni      3.6859557290     2.1280847607    17.0436183569
Ni      7.3720819102     1.4205871903    19.0433374306
Ni      9.8277034350     5.6738903354    19.0434341497
Ni      2.4521434291     1.4158110593    19.0364366091
Ni      4.9161947867     5.6740432449    19.0433122733
Ni      4.9196896832     1.4158232846    19.0366000678
Ni      3.6859272390     3.5527439564    19.0365501838
Ni      7.3718069505     5.6699691882    19.0472063773
Ni      8.5961730079     3.5492758367    19.0467799552
Ni      6.1474719474     3.5492957785    19.0471583362
Ni      4.8843134062     2.8201940729    21.0353012351
Ni      6.1476284263     4.9631653455    21.0690227648
Ni      3.6857944435     4.9683268319    21.0434324809
Ni      3.6856429718     0.7453666722    21.0362870171
Ni      2.4890580886     2.8189890685    21.0370950115
Ni      1.2263869282     0.7081546991    21.0437902213
Ni      7.3719790289     2.8425369194    21.0690138633
Ni      6.1456692322     0.7078848191    21.0429706765
Ni      8.5961146559     4.9630364648    21.0691273488
Ni      3.6985282435     2.1286423771    23.1292906417
Ni      1.1958336891     2.1337063946    22.9807974085
Ni      2.4364145502     4.2819607316    22.9811460620
Ni      6.1758830509     2.1338277058    22.9817502128
Ni      0.0001173629    -0.0000391193    23.0395357643
Ni      2.4456230850    -0.0307889721    22.9813300647
Ni      7.3722772300     4.2560753926    23.0534523493
Ni      4.9352329584     4.2820692386    22.9819168048
Ni      4.9258556278    -0.0308585202    22.9815051757
O       3.6476782566     2.1190184347    24.8820738721
H       3.7461659599     2.1043472169    25.8221814147
74
Step 8 | ATOMIC_POSITIONS (angstrom) | Cartesian Angstrom
Ni      1.2286390390     0.7093535490     9.0125970590
Ni      2.4572760100     2.8374169220     9.0125970590
Ni      3.6859498400     4.9655441370     9.0125970590
Ni      3.6859144660     0.7093535490     9.0125970590
Ni      4.9145514370     2.8374169220     9.0125970590
Ni      6.1432252670     4.9655441370     9.0125970590
Ni      6.1432636120     0.7093535490     9.0125970590
Ni      7.3719005830     2.8374169220     9.0125970590
Ni      8.6005744130     4.9655441370     9.0125970590
Ni      0.0000019230    -0.0000011100    11.0191845730
Ni      1.2286511800     2.1280835430    11.0191845730
Ni      2.4573004380     4.2561681970    11.0191845730
Ni      2.4573019230    -0.0000011100    11.0191845730
Ni      3.6859511800     2.1280835430    11.0191845730
Ni      4.9146004380     4.2561681970    11.0191845730
Ni      4.9146019230    -0.0000011100    11.0191845730
Ni      6.1432511800     2.1280835430    11.0191845730
Ni      7.3719004380     4.2561681970    11.0191845730