24
Step 1 | ATOMIC_POSITIONS (angstrom) | Cartesian Angstrom
O      10.1733879660     7.1092137225     5.3584748891
H      12.1148197547     6.7376582646     5.8325439926
C      11.0344443274     6.7033835746     6.0987588265
H       8.9193315320     6.4306631028     6.7250310364
O       9.2618115023     6.0307285845     7.5592076710
C      10.6636271925     6.0680790924     7.4304077343
H      11.0872848727     5.0435611126     7.4016725921
O      12.6136162334     7.2756467548     8.1699784646
C      11.3260638296     6.8260841047     8.6080288042
H      10.6559147015     7.6790082169     8.8269830736
H      13.0854779003     7.5648563842     8.9766135836
H      12.3913826932     5.3436167022     9.7222549037
C      11.4753474334     5.9554388688     9.8742682512
O      10.3280801679     5.1324120438    10.0186058500
O      12.8303324755     7.6956610765    10.8957122710
C      11.6855960127     6.8326219158    11.1237592903
H      10.2827350930     4.8555743490    10.9569298498
H      10.7732360271     7.4351002087    11.2719959912
H      12.6035011445     8.5975947876    11.1697318389
H      12.8926599352     5.4274798489    12.2242009488
C      11.9875293115     6.0331776946    12.3942608156
O      10.8522779513     5.2002426914    12.7119513623
H      12.1953579893     6.7363478123    13.2186923632
H      11.1413504513     4.4798716848    13.2926995070
24
Step 2 | ATOMIC_POSITIONS (angstrom) | Cartesian Angstrom
O      10.1680408504     7.1110380328     5.3557883038
H      12.1144918338     6.7373378180     5.8318799184
C      11.0409559317     6.7003661843     6.1053720750
H       8.9187420648     6.4299160080     6.7258184300
O       9.2612917126     6.0311564916     7.5581595302
C      10.6627237206     6.0695580694     7.4281437094
H      11.0879815867     5.0438399096     7.4012467505
O      12.6129374117     7.2757526203     8.1696436578
C      11.3269418714     6.8263790477     8.6085791819
H      10.6560798703     7.6785405474     8.8268545091
H      13.0860727247     7.5646110818     8.9769709429
H      12.3912539859     5.3439087097     9.7219776849
C      11.4752903607     5.9551712509     9.8746257649
O      10.3283337050     5.1324560199    10.0180449508
O      12.8301166469     7.6952365941    10.8955535438
C      11.6855216631     6.8327357786    11.1240482487
H      10.2827990371     4.8555778570    10.9569107200
H      10.7733405138     7.4356276423    11.2720466403
H      12.6033970952     8.5977737711    11.1692546212
H      12.8928158415     5.4276035725    12.2244989253
C      11.9871950234     6.0330561285    12.3945488815
O      10.8517621776     5.2008745411    12.7115221694
H      12.1955678767     6.7364543715    13.2185900299
H      11.1415129922     4.4790505511    13.2926847215
24
Step 3 | ATOMIC_POSITIONS (angstrom) | Cartesian Angstrom
O      10.1678616224     7.1122114238     5.3525235070
H      12.1139129761     6.7379504918     5.8330380284
C      11.0408111821     6.7007136865     6.1028620586
H       8.9201118014     6.4307118725     6.7255234536
O       9.2614653679     6.0307604792     7.5592285765
C      10.6637252935     6.0679664890     7.4305918419
H      11.0869938674     5.0429704955     7.4019101916
O      12.6135407296     7.2753276447     8.1696747987
C      11.3258704177     6.8260623756     8.6077596981
H      10.6558452343     7.6792809270     8.8270470269
H      13.0852659752     7.5652088235     8.9768237181
H      12.3913810940     5.3434691620     9.7224169219
C      11.4753513929     5.9554665633     9.8741800246
O      10.3279852823     5.1325354583    10.0186852950
O      12.8304405400     7.6956563707    10.8957911770
C      11.6857190907     6.8326232140    11.1235719656
H      10.2827062155     4.8555038811    10.9572234738
H      10.7731558781     7.4347186997    11.2719509956
H      12.6035050468     8.5977231686    11.1701927437
H      12.8926496497     5.4273670305    12.2239588725
C      11.9876326984     6.0331591521    12.3941514496
O      10.8524498313     5.2005400680    12.7116691916
H      12.1952276463     6.7362659584    13.2187199899
H      11.1415576644     4.4798291630    13.2932689106
24
Step 4 | ATOMIC_POSITIONS (angstrom) | Cartesian Angstrom
O      10.1685180784     7.1137511762     5.3470830921
H      12.1135693877     6.7394525431     5.8347111931
C      11.0389974110     6.7007312484     6.1000185750
H       8.9236220434     6.4317350221     6.7263425941
O       9.2615086255     6.0304785615     7.5601584562
C      10.6641012527     6.0669203374     7.4312711667
H      11.0854243930     5.0401218666     7.4034801594
O      12.6136245698     7.2739980506     8.1689777133
C      11.3251337638     6.8261083243     8.6073838446
H      10.6555558378     7.6804025114     8.8271326120
H      13.0838103048     7.5667214078     8.9771566124
H      12.3913310034     5.3427661525     9.7231660337
C      11.4753310878     5.9555362526     9.8736840486
O      10.3275242271     5.1330695612    10.0194926124
O      12.8309358591     7.6961449313    10.8961384247
C      11.6862324884     6.8325953029    11.1227617145
H      10.2825774598     4.8552942645    10.9583130819
H      10.7727490347     7.4329060594    11.2717114788
H      12.6036476517     8.5979166042    11.1723357559
H      12.8925912844     5.4268307006    12.2227835407
C      11.9881971946     6.0331730461    12.3935138512
O      10.8534653426     5.2008075609    12.7110967825
H      12.1946132656     6.7358751629    13.2188052092
H      11.1421049310     4.4806859506    13.2952453579
24
Step 5 | ATOMIC_POSITIONS (angstrom) | Cartesian Angstrom
O      10.1698368066     7.1148001309     5.3410030101
H      12.1127348079     6.7417036317     5.8367463694
C      11.0375067318     6.7004986951     6.0973272358
H       8.9278766851     6.4334025569     6.7272763176
O       9.2617610537     6.0301099836     7.5613589677
C      10.6633767300     6.0657201002     7.4294892955
H      11.0831577538     5.0368243338     7.4056960942
O      12.6139457742     7.2725580053     8.1692674869
C      11.3249699577     6.8263897249     8.6068966193
H      10.6555109483     7.6814442999     8.8269582718
H      13.0811573581     7.5686737787     8.9765489587
H      12.3909414763     5.3419165942     9.7239475106
C      11.4753402847     5.9552407248     9.8735015309
O      10.3268451220     5.1338171995    10.0210408392
O      12.8312290174     7.6972789322    10.8965393162
C      11.6869767721     6.8325147599    11.1221408618
H      10.2825839045     4.8552604588    10.9594127171
H      10.7721584295     7.4305429783    11.2712903786
H      12.6039964166     8.5978154052    11.1754861959
H      12.8928086864     5.4261146154    12.2210988580
C      11.9890511620     6.0331904860    12.3925693719
O      10.8548188553     5.1998249353    12.7110761556
H      12.1939951923     6.7353270552    13.2186615447
H      11.1425865716     4.4830532135    13.2974300035
