24
Step 1 | ATOMIC_POSITIONS (angstrom) | Cartesian Angstrom
O      10.1733879660     7.1092137225     5.3584748891
H      12.1148197547     6.7376582646     5.8325439926
C      11.0344443274     6.7033835746     6.0987588265
H       8.9193315320     6.4306631028     6.7250310364
O       9.2618115023     6.0307285845     7.5592076710
C      10.6636271925     6.0680790924     7.4304077343
H      11.0872848727     5.0435611126     7.4016725921
O      12.6136162334     7.2756467548     8.1699784646
C      11.3260638296     6.8260841047     8.6080288042
H      10.6559147015     7.6790082169     8.8269830736
H      13.0854779003     7.5648563842     8.9766135836
H      12.3913826932     5.3436167022     9.7222549037
C      11.4753474334     5.9554388688     9.8742682512
O      10.3280801679     5.1324120438    10.0186058500
O      12.8303324755     7.6956610765    10.8957122710
C      11.6855960127     6.8326219158    11.1237592903
H      10.2827350930     4.8555743490    10.9569298498
H      10.7732360271     7.4351002087    11.2719959912
H      12.6035011445     8.5975947876    11.1697318389
H      12.8926599352     5.4274798489    12.2242009488
C      11.9875293115     6.0331776946    12.3942608156
O      10.8522779513     5.2002426914    12.7119513623
H      12.1953579893     6.7363478123    13.2186923632
H      11.1413504513     4.4798716848    13.2926995070
24
Step 2 | ATOMIC_POSITIONS (angstrom) | Cartesian Angstrom
O      10.1680408504     7.1110380328     5.3557883038
H      12.1144918338     6.7373378180     5.8318799184
C      11.0409559317     6.7003661843     6.1053720750
H       8.9187420648     6.4299160080     6.7258184300
O       9.2612917126     6.0311564916     7.5581595302
C      10.6627237206     6.0695580694     7.4281437094
H      11.0879815867     5.0438399096     7.4012467505
O      12.6129374117     7.2757526203     8.1696436578
C      11.3269418714     6.8263790477     8.6085791819
H      10.6560798703     7.6785405474     8.8268545091
H      13.0860727247     7.5646110818     8.9769709429
H      12.3912539859     5.3439087097     9.7219776849
C      11.4752903607     5.9551712509     9.8746257649
O      10.3283337050     5.1324560199    10.0180449508
O      12.8301166469     7.6952365941    10.8955535438
C      11.6855216631     6.8327357786    11.1240482487
H      10.2827990371     4.8555778570    10.9569107200
H      10.7733405138     7.4356276423    11.2720466403
H      12.6033970952     8.5977737711    11.1692546212
H      12.8928158415     5.4276035725    12.2244989253
C      11.9871950234     6.0330561285    12.3945488815
O      10.8517621776     5.2008745411    12.7115221694
H      12.1955678767     6.7364543715    13.2185900299
H      11.1415129922     4.4790505511    13.2926847215
24
Step 3 | ATOMIC_POSITIONS (angstrom) | Cartesian Angstrom
O      10.1678616224     7.1122114238     5.3525235070
H      12.1139129761     6.7379504918     5.8330380284
C      11.0408111821     6.7007136865     6.1028620586
H       8.9201118014     6.4307118725     6.7255234536
O       9.2614653679     6.0307604792     7.5592285765
C      10.6637252935     6.0679664890     7.4305918419
H      11.0869938674     5.0429704955     7.4019101916
O      12.6135407296     7.2753276447     8.1696747987
C      11.3258704177     6.8260623756     8.6077596981
H      10.6558452343     7.6792809270     8.8270470269
H      13.0852659752     7.5652088235     8.9768237181
H      12.3913810940     5.3434691620     9.7224169219
C      11.4753513929     5.9554665633     9.8741800246
O      10.3279852823     5.1325354583    10.0186852950
O      12.8304405400     7.6956563707    10.8957911770
C      11.6857190907     6.8326232140    11.1235719656
H      10.2827062155     4.8555038811    10.9572234738
H      10.7731558781     7.4347186997    11.2719509956
H      12.6035050468     8.5977231686    11.1701927437
H      12.8926496497     5.4273670305    12.2239588725
C      11.9876326984     6.0331591521    12.3941514496
O      10.8524498313     5.2005400680    12.7116691916
H      12.1952276463     6.7362659584    13.2187199899
H      11.1415576644     4.4798291630    13.2932689106
24
Step 4 | ATOMIC_POSITIONS (angstrom) | Cartesian Angstrom
O      10.1685180784     7.1137511762     5.3470830921
H      12.1135693877     6.7394525431     5.8347111931
C      11.0389974110     6.7007312484     6.1000185750
H       8.9236220434     6.4317350221     6.7263425941
O       9.2615086255     6.0304785615     7.5601584562
C      10.6641012527     6.0669203374     7.4312711667
H      11.0854243930     5.0401218666     7.4034801594
O      12.6136245698     7.2739980506     8.1689777133
C      11.3251337638     6.8261083243     8.6073838446
H      10.6555558378     7.6804025114     8.8271326120
H      13.0838103048     7.5667214078     8.9771566124
H      12.3913310034     5.3427661525     9.7231660337
C      11.4753310878     5.9555362526     9.8736840486
O      10.3275242271     5.1330695612    10.0194926124
O      12.8309358591     7.6961449313    10.8961384247
C      11.6862324884     6.8325953029    11.1227617145
H      10.2825774598     4.8552942645    10.9583130819
H      10.7727490347     7.4329060594    11.2717114788
H      12.6036476517     8.5979166042    11.1723357559
H      12.8925912844     5.4268307006    12.2227835407
C      11.9881971946     6.0331730461    12.3935138512
O      10.8534653426     5.2008075609    12.7110967825
H      12.1946132656     6.7358751629    13.2188052092
H      11.1421049310     4.4806859506    13.2952453579
24
Step 5 | ATOMIC_POSITIONS (angstrom) | Cartesian Angstrom
O      10.1698368066     7.1148001309     5.3410030101
H      12.1127348079     6.7417036317     5.8367463694
C      11.0375067318     6.7004986951     6.0973272358
H       8.9278766851     6.4334025569     6.7272763176
O       9.2617610537     6.0301099836     7.5613589677
C      10.6633767300     6.0657201002     7.4294892955
H      11.0831577538     5.0368243338     7.4056960942
O      12.6139457742     7.2725580053     8.1692674869
C      11.3249699577     6.8263897249     8.6068966193
H      10.6555109483     7.6814442999     8.8269582718
H      13.0811573581     7.5686737787     8.9765489587
H      12.3909414763     5.3419165942     9.7239475106
C      11.4753402847     5.9552407248     9.8735015309
O      10.3268451220     5.1338171995    10.0210408392
O      12.8312290174     7.6972789322    10.8965393162
C      11.6869767721     6.8325147599    11.1221408618
H      10.2825839045     4.8552604588    10.9594127171
H      10.7721584295     7.4305429783    11.2712903786
H      12.6039964166     8.5978154052    11.1754861959
H      12.8928086864     5.4261146154    12.2210988580
C      11.9890511620     6.0331904860    12.3925693719
O      10.8548188553     5.1998249353    12.7110761556
H      12.1939951923     6.7353270552    13.2186615447
H      11.1425865716     4.4830532135    13.2974300035
24
Step 6 | ATOMIC_POSITIONS (angstrom) | Cartesian Angstrom
O      10.1709640813     7.1143847960     5.3386346653
H      12.1122900949     6.7433448011     5.8377939418
C      11.0372352851     6.7001034342     6.0963492898
H       8.9295669159     6.4346981171     6.7278033319
O       9.2616638065     6.0302024388     7.5612506045
C      10.6630157039     6.0649320316     7.4277608824
H      11.0815167718     5.0357170828     7.4069204422
O      12.6135820727     7.2715309764     8.1689653037
C      11.3251946874     6.8261430449     8.6061544000
H      10.6558660775     7.6815669357     8.8265069075
H      13.0797993599     7.5704269453     8.9766899967
H      12.3904968723     5.3413195566     9.7241547810
C      11.4752108161     5.9549877819     9.8736062290
O      10.3264087889     5.1345192359    10.0218214118
O      12.8310775235     7.6976588930    10.8965191394
C      11.6873114075     6.8324947504    11.1220883712
H      10.2827484777     4.8553014669    10.9603441951
H      10.7717705944     7.4292051815    11.2709510404
H      12.6041747999     8.5980369254    11.1779969565
H      12.8932384054     5.4257654120    12.2199865829
C      11.9895215525     6.0327066664    12.3922226547
O      10.8551882602     5.2000329218    12.7101134523
H      12.1938928087     6.7349614983    13.2183105894
H      11.1434313339     4.4839817049    13.2998187414
24
Step 7 | ATOMIC_POSITIONS (angstrom) | Cartesian Angstrom
O      10.1725032417     7.1127681407     5.3365340526
H      12.1124313368     6.7459839798     5.8389392557
C      11.0373595104     6.6990025813     6.0959391055
H       8.9305887614     6.4370397064     6.7281333669
O       9.2614323587     6.0305663031     7.5601822154
C      10.6624816350     6.0644483702     7.4255464569
H      11.0791516257     5.0345535311     7.4083157003
O      12.6134591614     7.2703673877     8.1686740727
C      11.3253721485     6.8251699892     8.6049672354
H      10.6567863424     7.6810217399     8.8253535276
H      13.0776738591     7.5732589481     8.9766397592
H      12.3896620525     5.3403261531     9.7241612353
C      11.4749453143     5.9547061425     9.8736043846
O      10.3256159580     5.1356164436    10.0230374555
O      12.8303386068     7.6986642103    10.8963746756
C      11.6876486330     6.8322939211    11.1221344894
H      10.2831723334     4.8555077315    10.9616551106
H      10.7711297052     7.4275362459    11.2704711470
H      12.6045770406     8.5979693982    11.1820831783
H      12.8941878416     5.4253039320    12.2183589396
C      11.9901985598     6.0320027086    12.3916538853
O      10.8559418591     5.1990466542    12.7094542565
H      12.1941546600     6.7343580048    13.2175902920
H      11.1443539527     4.4865103756    13.3029601130
24
Step 8 | ATOMIC_POSITIONS (angstrom) | Cartesian Angstrom
O      10.1738548087     7.1105751947     5.3350633106
H      12.1129870186     6.7486940982     5.8400206228
C      11.0380802555     6.6978864207     6.0956066862
H       8.9306944369     6.4398317105     6.7278881664
O       9.2611775467     6.0309799860     7.5588929643
C      10.6619108532     6.0639253562     7.4240378226
H      11.0768039047     5.0335635660     7.4093939399
O      12.6137291237     7.2693853002     8.1685771600
C      11.3255479734     6.8240868724     8.6039360205
H      10.6578029330     7.6801468806     8.8239195784
H      13.0753260744     7.5762347120     8.9762867209
H      12.3887084154     5.3392264984     9.7240138826
C      11.4747033975     5.9543832786     9.8734050206
O      10.3246348918     5.1366973293    10.0244448614
O      12.8293893035     7.6996362117    10.8960723678
C      11.6877615417     6.8321188306    11.1219909034
H      10.2837019652     4.8558137252    10.9628269110
H      10.7704492585     7.4259931759    11.2700477372
H      12.6049671554     8.5978921421    11.1866163138
H      12.8952194248     5.4249142781    12.2167476081
C      11.9909173043     6.0311660296    12.3909838237
O      10.8567701275     5.1981458548    12.7086177110
H      12.1946703199     6.7336915105    13.2168108110
H      11.1453584640     4.4890336366    13.3065629666
24
Step 9 | ATOMIC_POSITIONS (angstrom) | Cartesian Angstrom
O      10.1755251047     7.1071230759     5.3331927137
H      12.1142565586     6.7525143765     5.8415606497
C      11.0393399699     6.6963998603     6.0951260430
H       8.9303959694     6.4440009992     6.7273612508
O       9.2605031810     6.0317999628     7.5566685952
C      10.6613613512     6.0630287905     7.4226603990
H      11.0735393864     5.0321192370     7.4106080040
O      12.6141013232     7.2678787642     8.1681420796
C      11.3258688156     6.8224930459     8.6026310341
H      10.6591118627     7.6788786848     8.8217634624
H      13.0720820691     7.5807397997     8.9759695173
H      12.3873219691     5.3375078842     9.7236934208
C      11.4742777450     5.9539142858     9.8730460660
O      10.3231098027     5.1382888206    10.0262303841
O      12.8278699069     7.7011891414    10.8955570001
C      11.6878340775     6.8318105464    11.1215324980
H      10.2845188228     4.8562329783    10.9646129566
H      10.7693922624     7.4239242638    11.2695333988
H      12.6055355830     8.5975607108    11.1934103454
H      12.8967017128     5.4243973879    12.2144760763
C      11.9920040403     6.0301418236    12.3898195780
O      10.8582713962     5.1965273591    12.7077010469
H      12.1956124894     6.7326396297    13.2156647693
H      11.1466310980     4.4929111705    13.3118026222
24
Step 10 | ATOMIC_POSITIONS (angstrom) | Cartesian Angstrom
O      10.1776897276     7.1019141202     5.3305572708
H      12.1165432742     6.7578379195     5.8438134836
C      11.0412800740     6.6944083858     6.0944379782
H       8.9296647861     6.4502416408     6.7261802576
O       9.2594136891     6.0330965748     7.5534945229
C      10.6605969508     6.0617562728     7.4212983990
H      11.0690388041     5.0297279156     7.4119577381
O      12.6150555258     7.2657937591     8.1678395922
C      11.3261455669     6.8202502314     8.6009897977
H      10.6607126466     7.6771673561     8.8186555706
H      13.0672949256     7.5872604680     8.9751356837
H      12.3852947688     5.3348676335     9.7231497833
C      11.4737223196     5.9532303678     9.8723940396
O      10.3207244161     5.1404988626    10.0289227011
O      12.8256030913     7.7034098856    10.8945771375
C      11.6877251134     6.8314168866    11.1206472556
H      10.2857301374     4.8568722445    10.9669086684
H      10.7678335998     7.4210568286    11.2688966474
H      12.6062785377     8.5969617220    11.2036045020
H      12.8987804430     5.4237372176    12.2112424897
C      11.9936708367     6.0287721320    12.3879791424
O      10.8607415371     5.1943585086    12.7063190445
H      12.1971954102     6.7310326411    13.2139985874
H      11.1484303159     4.4983530245    13.3197636173
24
Step 11 | ATOMIC_POSITIONS (angstrom) | Cartesian Angstrom
O      10.1805382850     7.0940083962     5.3269957984
H      12.1202710024     6.7650542839     5.8471807760
C      11.0444341373     6.6918565342     6.0934043657
H       8.9283572253     6.4593535780     6.7241091848
O       9.2575657759     6.0353957781     7.5487612000
C      10.6596292745     6.0596766990     7.4201185628
H      11.0628503246     5.0260877647     7.4131456460
O      12.6163256776     7.2625411876     8.1671724615
C      11.3264821363     6.8172811678     8.5990300805
H      10.6624901983     7.6749355808     8.8142636493
H      13.0607257392     7.5969600305     8.9740723719
H      12.3823001777     5.3308027065     9.7222102416
C      11.4727626950     5.9521599466     9.8713800018
O      10.3171546775     5.1437356647    10.0323134805
O      12.8220525044     7.7068951059    10.8928474315
C      11.6874319253     6.8308867380    11.1190593273
H      10.2874854274     4.8576715945    10.9701580271
H      10.7654717696     7.4171991984    11.2681601754
H      12.6072957071     8.5955320109    11.2188620375
H      12.9017435908     5.4229382075    12.2066204226
C      11.9962367716     6.0270555596    12.3850829514
O      10.8649223616     5.1909127500    12.7048126600
H      12.1999156613     6.7286232865    13.2115710379
H      11.1507234520     4.5064588292    13.3314320195
24
Step 12 | ATOMIC_POSITIONS (angstrom) | Cartesian Angstrom
O      10.1829100454     7.0865609455     5.3238335851
H      12.1241873596     6.7707297111     5.8503817529
C      11.0473053659     6.6897958235     6.0926928996
H       8.9272571647     6.4675325133     6.7217630010
O       9.2556899339     6.0380691276     7.5444878134
C      10.6589218637     6.0578561949     7.4197971784
H      11.0577408849     5.0224213664     7.4130874269
O      12.6178567025     7.2596823767     8.1673020309
C      11.3263649075     6.8148321315     8.5976806707
H      10.6632022367     7.6734306500     8.8106252238
H      13.0548945814     7.6056926854     8.9723401851
H      12.3794199338     5.3268312101     9.7211816180
C      11.4718556244     5.9512611737     9.8703229693
O      10.3136679076     5.1464387681    10.0352824731
O      12.8184880177     7.7100970148    10.8906280425
C      11.6868600814     6.8304939242    11.1173684504
H      10.2889817138     4.8582913535    10.9722856271
H      10.7632681637     7.4140646369    11.2677437483
H      12.6080394135     8.5935965540    11.2335337591
H      12.9044238098     5.4224647487    12.2024463636
C      11.9988116240     6.0258277328    12.3823350203
O      10.8694105502     5.1879760383    12.7037010074
H      12.2030297016     6.7263959404    13.2093545273
H      11.1525789101     4.5136799777    13.3425885365
24
Step 13 | ATOMIC_POSITIONS (angstrom) | Cartesian Angstrom
O      10.1840468814     7.0826114639     5.3223450562
H      12.1263192676     6.7723455100     5.8522526517
C      11.0489628706     6.6890756374     6.0923994571
H       8.9270008472     6.4714387991     6.7198616971
O       9.2548294387     6.0399877044     7.5427742096
C      10.6585729976     6.0569508336     7.4201976813
H      11.0557115617     5.0204659926     7.4116996359
O      12.6182088813     7.2579170339     8.1672901265
C      11.3259285259     6.8142126758     8.5976086366
H      10.6625854351     7.6731544085     8.8092811777
H      13.0526485554     7.6102735207     8.9714583353
H      12.3777018530     5.3246236563     9.7204756836
C      11.4711219184     5.9507494441     9.8697837220
O      10.3118003534     5.1477527979    10.0359394867
O      12.8162006299     7.7119785538    10.8888101775
C      11.6863306107     6.8303824043    11.1163529670
H      10.2895202490     4.8582207492    10.9728594212
H      10.7620986631     7.4129252556    11.2678281228
H      12.6082820703     8.5916093943    11.2417847430
H      12.9058544206     5.4225541871    12.2003159217
C      12.0004241181     6.0255197456    12.3808763174
O      10.8724519860     5.1863844286    12.7038026221
H      12.2054173346     6.7253846910    13.2082874837
H      11.1531470285     4.5175037112    13.3484785775
24
Step 14 | ATOMIC_POSITIONS (angstrom) | Cartesian Angstrom
O      10.1852142047     7.0789893183     5.3208077091
H      12.1284609582     6.7721873003     5.8542693623
C      11.0502688046     6.6885351311     6.0924208843
H       8.9277131713     6.4743104935     6.7177944789
O       9.2539243656     6.0427213538     7.5412888468
C      10.6584304095     6.0563718663     7.4209858619
H      11.0544306770     5.0187583229     7.4088511677
O      12.6183758320     7.2563473087     8.1679417932
C      11.3249748320     6.8140655715     8.5979889909
H      10.6608364744     7.6735275668     8.8087847825
H      13.0510559087     7.6143509201     8.9699005834
H      12.3757080576     5.3224653952     9.7196277136
C      11.4701496998     5.9504423240     9.8692928332
O      10.3098183055     5.1486331640    10.0360950196
O      12.8135614041     7.7134629188    10.8860082140
C      11.6855794960     6.8302603036    11.1154259622
H      10.2896280741     4.8576989866    10.9722109880
H      10.7609595872     7.4123224751    11.2682550893
H      12.6082632373     8.5890308952    11.2507611320
H      12.9074636371     5.4230049722    12.1981791293
C      12.0023058199     6.0256358011    12.3796851032
O      10.8758656394     5.1852780345    12.7042053831
H      12.2086590420     6.7246735114    13.2073454242
H      11.1535188600     4.5209486639    13.3546374585
24
Step 15 | ATOMIC_POSITIONS (angstrom) | Cartesian Angstrom
O      10.1871053461     7.0751317102     5.3185417149
H      12.1306984821     6.7693344248     5.8570998645
C      11.0515579517     6.6879075582     6.0926720564
H       8.9301082888     6.4766968768     6.7141422459
O       9.2535033749     6.0466882319     7.5408847830
C      10.6580119075     6.0564167285     7.4217907988
H      11.0536069630     5.0173694465     7.4035228075
O      12.6174837764     7.2543535723     8.1685761813
C      11.3231496590     6.8147408310     8.5990784371
H      10.6574261337     7.6744935616     8.8093552082
H      13.0502391749     7.6190974138     8.9678776777
H      12.3725942593     5.3200940914     9.7184162918
C      11.4683267377     5.9500780822     9.8689683849
O      10.3071856688     5.1493991759    10.0349049909
O      12.8095390769     7.7156068911    10.8814436869
C      11.6842686142     6.8300344199    11.1146236217
H      10.2889570499     4.8559915223    10.9702731095
H      10.7596400068     7.4120280267    11.2692451414
H      12.6082278026     8.5842794210    11.2631080172
H      12.9099663928     5.4241063614    12.1952576707
C      12.0051568736     6.0260092779    12.3786378353
O      10.8804769876     5.1845759523    12.7052087658
H      12.2140187037     6.7244485992    13.2064073350
H      11.1539172660     4.5251404225    13.3627272844
24
Step 16 | ATOMIC_POSITIONS (angstrom) | Cartesian Angstrom
O      10.1892671162     7.0726869718     5.3164159852
H      12.1318749758     6.7657228602     5.8594090122
C      11.0523075101     6.6871139836     6.0928733668
H       8.9333300699     6.4772536086     6.7117157886
O       9.2530536314     6.0504014090     7.5402166445
C      10.6576691115     6.0570392508     7.4217837673
H      11.0529485584     5.0175358831     7.3991232839
O      12.6162045632     7.2533472312     8.1691279210
C      11.3216927540     6.8153059582     8.5997465307
H      10.6547546194     7.6749857710     8.8103483891
H      13.0496424344     7.6223731179     8.9659458623
H      12.3696839951     5.3187539834     9.7174687077
C      11.4664193397     5.9498757631     9.8689022496
O      10.3048346778     5.1496913239    10.0337818978
O      12.8059285607     7.7167648870    10.8773197362
C      11.6832920164     6.8297391329    11.1145189415
H      10.2877559669     4.8539026036    10.9679849996
H      10.7585944753     7.4116177859    11.2702468184
H      12.6083770690     8.5805200300    11.2739177164
H      12.9125625116     5.4251393244    12.1925401529
C      12.0076734147     6.0262858127    12.3782656703
O      10.8838974833     5.1843108060    12.7063016922
H      12.2188545590     6.7247329146    13.2056839918
H      11.1545470843     4.5289221858    13.3691247849
24
Step 17 | ATOMIC_POSITIONS (angstrom) | Cartesian Angstrom
O      10.1927166120     7.0706315053     5.3132068675
H      12.1327960490     6.7602022063     5.8620151812
C      11.0528717965     6.6856689205     6.0930689101
H       8.9378841934     6.4771713623     6.7080463947
O       9.2531575932     6.0544363639     7.5402216360
C      10.6568332438     6.0589033258     7.4207226883
H      11.0518632652     5.0191469016     7.3945136756
O      12.6140434210     7.2529804269     8.1693235138
C      11.3200096838     6.8157390566     8.6001486726
H      10.6521751031     7.6748898262     8.8119012180
H      13.0486232787     7.6257851760     8.9635816336
H      12.3657764807     5.3178715265     9.7164635228
C      11.4636182845     5.9496470289     9.8691188367
O      10.3016595378     5.1498905062    10.0321786947
O      12.8009953643     7.7191468434    10.8729154571
C      11.6820080937     6.8290086558    11.1149588396
H      10.2854649315     4.8503842723    10.9649500159
H      10.7572811554     7.4105062622    11.2717083888
H      12.6094392363     8.5749605791    11.2874215728
H      12.9163420393     5.4264640118    12.1887599156
C      12.0109112124     6.0263122450    12.3782372785
O      10.8875294068     5.1848046495    12.7075102451
H      12.2250669156     6.7255368229    13.2047651672
H      11.1560996000     4.5339341238    13.3770255847
24
Step 18 | ATOMIC_POSITIONS (angstrom) | Cartesian Angstrom
O      10.1968551825     7.0681006180     5.3092328853
H      12.1339345696     6.7565724611     5.8644613782
C      11.0540546663     6.6837804297     6.0924492241
H       8.9414627506     6.4781812031     6.7046128042
O       9.2528085310     6.0579346704     7.5388181256
C      10.6557122836     6.0606081051     7.4189778061
H      11.0491871634     5.0209642867     7.3925599504
O      12.6121112023     7.2528717416     8.1685761333
C      11.3190209159     6.8152617964     8.5995518773
H      10.6515613652     7.6734892739     8.8122605371
H      13.0457251775     7.6301760243     8.9617251909
H      12.3618191715     5.3169388654     9.7157281083
C      11.4609652537     5.9491059314     9.8691392342
O      10.2979521567     5.1506950972    10.0318112930
O      12.7960765255     7.7209134096    10.8693059341
C      11.6809553661     6.8284125721    11.1154372847
H      10.2831848289     4.8468045126    10.9631506472
H      10.7554594618     7.4077745979    11.2730566868
H      12.6112418605     8.5710356615    11.3026160318
H      12.9204144851     5.4272939264    12.1843149458
C      12.0143242690     6.0257354756    12.3775741863
O      10.8911078916     5.1845869921    12.7087236292
H      12.2306790995     6.7259024380    13.2033163410
H      11.1585523204     4.5408825090    13.3853636764
24
Step 19 | ATOMIC_POSITIONS (angstrom) | Cartesian Angstrom
O      10.2003963093     7.0676776801     5.3063005164
H      12.1346039695     6.7522893433     5.8650811006
C      11.0549481743     6.6824991632     6.0916226451
H       8.9433897278     6.4771169363     6.7018880512
O       9.2523224347     6.0601203953     7.5371505659
C      10.6548211056     6.0628870832     7.4174797269
H      11.0473355144     5.0242001539     7.3930443938
O      12.6104599237     7.2545979303     8.1675357514
C      11.3186846110     6.8146573514     8.5986743007
H      10.6522683534     7.6717164965     8.8128609004
H      13.0430434513     7.6318184143     8.9604356504
H      12.3592050273     5.3171799290     9.7155764982
C      11.4587520986     5.9487931136     9.8693547523
O      10.2950449167     5.1509773107    10.0315573204
O      12.7921195223     7.7234350085    10.8685314880
C      11.6800431907     6.8276026758    11.1161852801
H      10.2803557866     4.8429728092    10.9613749601
H      10.7536904663     7.4049390158    11.2747518719
H      12.6142022194     8.5670666148    11.3127093943
H      12.9235805118     5.4278532687    12.1810405328
C      12.0166688526     6.0252820624    12.3772726788
O      10.8931760137     5.1855124357    12.7099408977
H      12.2346885372     6.7264830899    13.2020263927
H      11.1613657799     4.5463443172    13.3903682410
24
Step 20 | ATOMIC_POSITIONS (angstrom) | Cartesian Angstrom
O      10.2047733013     7.0642651686     5.3014863684
H      12.1376281982     6.7506725519     5.8666175157
C      11.0571750129     6.6807297990     6.0900850488
H       8.9435839331     6.4801768984     6.6970533000
O       9.2511434221     6.0629173298     7.5341716013
C      10.6535107874     6.0640795079     7.4162003484
H      11.0433403873     5.0247678362     7.3944302006
O      12.6095507114     7.2547879649     8.1662457515
C      11.3181027282     6.8132391703     8.5973784863
H      10.6531393801     7.6699783099     8.8118274539
H      13.0376954462     7.6374998513     8.9589942444
H      12.3558537179     5.3152198986     9.7152506364
C      11.4566008072     5.9480966787     9.8689579455
O      10.2907572815     5.1527580817    10.0325613928
O      12.7871433406     7.7262926399    10.8666551304
C      11.6788154336     6.8269218154    11.1158797797
H      10.2782150170     4.8394121823    10.9608464976
H      10.7504572298     7.4003098018    11.2765770138
H      12.6176281725     8.5633358281    11.3296522254
H      12.9273631811     5.4280165926    12.1761187058
C      12.0201136364     6.0245902563    12.3752127147
O      10.8976516673     5.1851457312    12.7107771761
H      12.2397461410     6.7257773137    13.1995421286
H      11.1651775640     4.5550313906    13.4002422448
24
Step 21 | ATOMIC_POSITIONS (angstrom) | Cartesian Angstrom
O      10.2088983438     7.0622852257     5.2974249492
H      12.1412792894     6.7469494850     5.8662120436
C      11.0599560859     6.6798823217     6.0880647868
H       8.9413986959     6.4812260334     6.6916013067
O       9.2492056231     6.0657450045     7.5301026880
C      10.6523322581     6.0653688169     7.4158033567
H      11.0404854202     5.0257583020     7.3974141838
O      12.6084997570     7.2560740464     8.1648476889
C      11.3172956009     6.8127635511     8.5965657743
H      10.6538950158     7.6691192431     8.8114639364
H      13.0327311016     7.6416161078     8.9582294506
H      12.3534794191     5.3134494305     9.7154836791
C      11.4550630860     5.9473924866     9.8684676537
O      10.2868659955     5.1543783531    10.0331365502
O      12.7824406016     7.7292214919    10.8660832520
C      11.6770697256     6.8267819667    11.1155107872
H      10.2753080192     4.8351182681    10.9594166972
H      10.7464562982     7.3952134225    11.2795558356
H      12.6224520994     8.5590068399    11.3449939944
H      12.9301772063     5.4281855546    12.1719451488
C      12.0233687392     6.0243131092    12.3727142290
O      10.9023274535     5.1853348857    12.7127293431
H      12.2446628830     6.7252400167    13.1967813231
H      11.1695177795     4.5635986360    13.4082152525
24
Step 22 | ATOMIC_POSITIONS (angstrom) | Cartesian Angstrom
O      10.2140716964     7.0599129209     5.2925577211
H      12.1460531925     6.7407127745     5.8656460946
C      11.0633833654     6.6787856111     6.0858919889
H       8.9390878786     6.4818449055     6.6842932464
O       9.2467235384     6.0703462291     7.5251966753
C      10.6509208413     6.0666476223     7.4155008364
H      11.0377978096     5.0260620606     7.3993332118
O      12.6069130426     7.2569634914     8.1644232588
C      11.3152757739     6.8131421360     8.5963960036
H      10.6526153758     7.6700100270     8.8120412889
H      13.0276943828     7.6469183188     8.9568900957
H      12.3504886711     5.3105867088     9.7157029116
C      11.4528693245     5.9470305395     9.8679937507
O      10.2824153562     5.1564000268    10.0326469331
O      12.7762724560     7.7330103320    10.8639259577
C      11.6749272564     6.8263891361    11.1148886317