125
Step 1 | ATOMIC_POSITIONS (angstrom) | Cartesian Angstrom
NI      0.0000000000     0.0000000000     1.1900000730
NI      1.2286496050     2.1280835410     1.1900000730
NI      2.4572992100     4.2561670810     1.1900000730
NI      3.6859488150     6.3842506220     1.1900000730
NI      4.9145984200     8.5123341620     1.1900000730
NI      2.4572992100     0.0000000000     1.1900000730
NI      3.6859488150     2.1280835410     1.1900000730
NI      4.9145984200     4.2561670810     1.1900000730
NI      6.1432480250     6.3842506220     1.1900000730
NI      7.3718976300     8.5123341620     1.1900000730
NI      4.9145984200     0.0000000000     1.1900000730
NI      6.1432480250     2.1280835410     1.1900000730
NI      7.3718976300     4.2561670810     1.1900000730
NI      8.6005472350     6.3842506220     1.1900000730
NI      9.8291968400     8.5123341620     1.1900000730
NI      7.3718976300     0.0000000000     1.1900000730
NI      8.6005472350     2.1280835410     1.1900000730
NI      9.8291968400     4.2561670810     1.1900000730
NI     11.0578464450     6.3842506220     1.1900000730
NI     12.2864960500     8.5123341620     1.1900000730
NI      9.8291968400     0.0000000000     1.1900000730
NI     11.0578464450     2.1280835410     1.1900000730
NI     12.2864960500     4.2561670810     1.1900000730
NI     13.5151456550     6.3842506220     1.1900000730
NI     14.7437952600     8.5123341620     1.1900000730
NI      1.2281483054     0.7071818290     3.1986811867
NI      2.4569332795     2.8359802900     3.2002848817
NI      3.6854910709     4.9628961504     3.1968503981
NI      4.9154147315     7.0926453403     3.1982160026
NI      6.1439329213     9.2202812343     3.1991758093
NI      3.6854706727     0.7077861750     3.2006275411
NI      4.9180485259     2.8385798395     3.2018846564
NI      6.1462280410     4.9626924407     3.2070401681
NI      7.3723552287     7.0871291752     3.2044634527
NI      8.5995615337     9.2184788070     3.2015373168
NI      6.1420499588     0.7087850097     3.1978183314
NI      7.3724155102     2.8397608825     3.2059078656
NI      8.5981498926     4.9627570548     3.2067262115
NI      9.8271181327     7.0918273154     3.1998953688
NI     11.0572495642     9.2198668154     3.2008971042
NI      8.6010905290     0.7088305791     3.1980884411
NI      9.8247148834     2.8393380746     3.2033891063
NI     11.0562369186     4.9634260860     3.2001077018
NI     12.2859970291     7.0919437217     3.2011619745
NI     13.5152342810     9.2203739033     3.2014049866
NI     11.0578661774     0.7082611604     3.2002983663
NI     12.2849727872     2.8361699393     3.2013683743
NI     13.5147358217     4.9640214649     3.2011798872
NI     14.7439686000     7.0918009217     3.2010780713
NI     15.9728275042     9.2204496799     3.2009468161
NI      2.4549405021     1.4156816047     5.2116980918
NI      3.6851541561     3.5432830229     5.2094881636
NI      4.9154596524     5.6753405483     5.2041652831
NI      6.1442461264     7.7983983567     5.2097355616
NI      7.3707627084     9.9282724377     5.2141516059
NI      4.9125030258     1.4170721043     5.2098397307
NI      6.1559572648     3.5524379420     5.2394261365
NI      7.3696336792     5.6554248498     5.2462104604
NI      8.5976455353     7.7977883288     5.2151359174
NI      9.8283307235     9.9281675558     5.2131892751
NI      7.3710982579     1.4154368975     5.2028790747
NI      8.5845610796     3.5542061046     5.2440598638
NI      9.8275973268     5.6734800980     5.2100125568
NI     11.0570824559     7.8006014424     5.2130502574
NI     12.2855742481     9.9294609229     5.2130833768
NI      9.8299832067     1.4181143715     5.2087330020
NI     11.0553317090     3.5433856546     5.2126035497
NI     12.2852132732     5.6720469607     5.2132918754
NI     13.5146081941     7.8011155671     5.2134953260
NI     14.7438438079     9.9299720702     5.2129388629
NI     12.2861937369     1.4163980024     5.2140332357
NI     13.5132959948     3.5437597624     5.2135883915
NI     14.7441455486     5.6719924851     5.2140723844
NI     15.9732129312     7.8009191797     5.2131483341
NI     17.2015786875     9.9285975708     5.2145395844
NI     -0.0008410737    -0.0021437125     7.2266984580
NI      1.2271903034     2.1242862811     7.2243343224
NI      2.4510243365     4.2528742093     7.2286879099
NI      3.6775449189     6.3831578769     7.2278088283
NI      4.9102518981     8.5162354977     7.2266000473
NI      2.4557673130    -0.0027758654     7.2228857825
NI      3.6833545634     2.1241872482     7.2236370506
NI      4.8905238058     4.2536623781     7.1960623155
NI      6.1315477134     6.3924078416     7.2680878332
NI      7.3721467441     8.5138600723     7.2244482620
NI      4.9117382472    -0.0068677620     7.2282747531
NI      6.1359707567     2.1064312002     7.2000423184
NI      7.3735881428     4.2467142789     7.4162491114
NI      8.6113070989     6.3885509285     7.2166197334
NI      9.8300861076     8.5108959080     7.2261960875
NI      7.3715330692    -0.0065751124     7.2276512260
NI      8.6049986301     2.1100913961     7.1998486440
NI      9.8410631583     4.2563375497     7.2101402058
NI     11.0588848442     6.3824164023     7.2282531895
NI     12.2860713293     8.5091949011     7.2225487010
NI      9.8300169592    -0.0049142054     7.2278226336
NI     11.0558665153     2.1252302503     7.2268233950
NI     12.2865499275     4.2529948245     7.2262893722
NI     13.5138271535     6.3818689211     7.2226493418
NI     14.7419644079     8.5098312043     7.2216898403
C       7.8995029761     3.7653380179    10.3103801633
C       7.3106418849     3.4474183872    11.6566086524
C       7.9427989026     4.3482870897    12.7565556029
C       8.0579235360     3.6283308067    14.1157178464
C       8.2591003790     4.6305647039    15.2690902130
C       8.5958209242     3.9556757766    16.6016806840
O       7.1458837399     4.1128440973     9.4018274084
O       5.9078958719     3.5627027786    11.6531477051
O       9.2360035599     4.7524215893    12.3005980776
O       6.8757599462     2.8674217376    14.3321969457
O       9.3662305768     5.4991672907    14.9366047240
O       7.4856274715     3.1334711653    17.0114397092
H       8.9803228590     3.6325021318    10.1379572721
H       7.6024120484     2.3926620763    11.8608751202
H       7.2572732839     5.2093970631    12.8486364191
H       8.9528287708     2.9734160755    14.0533431636
H       7.3232311524     5.2080082016    15.3671517146
H       9.5118318296     3.3556680662    16.4699093752
H       8.7966233570     4.7355132375    17.3577294708
H       5.6480644688     3.8137935677    10.7414062040
H       9.6378344294     5.2541122870    13.0383009031
H       6.8524656776     2.6250214659    15.2803363579
H       9.2709883411     6.3367205168    15.4184593370
H       7.7676830403     2.5684182782    17.7486926007
O       6.1386468794     6.3940440932     9.1458390122
125
Step 2 | ATOMIC_POSITIONS (angstrom) | Cartesian Angstrom
NI      0.0000000000     0.0000000000     1.1900000730
NI      1.2286496050     2.1280835410     1.1900000730
NI      2.4572992100     4.2561670810     1.1900000730
NI      3.6859488150     6.3842506220     1.1900000730
NI      4.9145984200     8.5123341620     1.1900000730
NI      2.4572992100     0.0000000000     1.1900000730
NI      3.6859488150     2.1280835410     1.1900000730
NI      4.9145984200     4.2561670810     1.1900000730
NI      6.1432480250     6.3842506220     1.1900000730
NI      7.3718976300     8.5123341620     1.1900000730
NI      4.9145984200     0.0000000000     1.1900000730
NI      6.1432480250     2.1280835410     1.1900000730
NI      7.3718976300     4.2561670810     1.1900000730
NI      8.6005472350     6.3842506220     1.1900000730
NI      9.8291968400     8.5123341620     1.1900000730
NI      7.3718976300     0.0000000000     1.1900000730
NI      8.6005472350     2.1280835410     1.1900000730
NI      9.8291968400     4.2561670810     1.1900000730
NI     11.0578464450     6.3842506220     1.1900000730
NI     12.2864960500     8.5123341620     1.1900000730
NI      9.8291968400     0.0000000000     1.1900000730
NI     11.0578464450     2.1280835410     1.1900000730
NI     12.2864960500     4.2561670810     1.1900000730
NI     13.5151456550     6.3842506220     1.1900000730
NI     14.7437952600     8.5123341620     1.1900000730
NI      1.2281288329     0.7071051593     3.1989803427
NI      2.4570019495     2.8360857835     3.2005262547
NI      3.6846230638     4.9623635551     3.1957168073
NI      4.9151748100     7.0927910887     3.1983358862
NI      6.1439661701     9.2213527540     3.1978780612
NI      3.6853136812     0.7079328072     3.2008500243
NI      4.9179048249     2.8388657826     3.2018758058
NI      6.1460321535     4.9623312045     3.2071961195
NI      7.3724028475     7.0872375960     3.2049648755
NI      8.5992495142     9.2184864137     3.2014654665
NI      6.1420222227     0.7089100955     3.1980283735
NI      7.3724803292     2.8400335405     3.2060324837
NI      8.5989898327     4.9622942287     3.2057901576
NI      9.8270524981     7.0916165458     3.1999008705
NI     11.0571276083     9.2197455290     3.2010590325
NI      8.6011950413     0.7088849520     3.1982036576
NI      9.8248098580     2.8393762858     3.2034377432
NI     11.0562654347     4.9634386695     3.2003298272
NI     12.2859449659     7.0917743475     3.2013336714
NI     13.5153534769     9.2202714973     3.2015664890
NI     11.0579612419     0.7081087403     3.2006025113
NI     12.2850217565     2.8362171168     3.2015819745
NI     13.5148449324     4.9640326081     3.2014989001
NI     14.7440804281     7.0915360797     3.2010842916
NI     15.9730855282     9.2204505558     3.2008751534
NI      2.4549819081     1.4157580437     5.2116398860
NI      3.6859310377     3.5442604448     5.2101511494
NI      4.9183171359     5.6771242182     5.2050516148
NI      6.1440772694     7.7952860927     5.2102844670
NI      7.3704432192     9.9271548995     5.2147935431
NI      4.9125589637     1.4169807763     5.2095248497
NI      6.1557355364     3.5527643943     5.2394734706
NI      7.3669705063     5.6570541776     5.2467953712
NI      8.5971493081     7.7975283680     5.2152085231
NI      9.8284368126     9.9281490376     5.2129641239
NI      7.3710472059     1.4153816836     5.2027747828
NI      8.5843889309     3.5544528564     5.2443615046
NI      9.8266191242     5.6737742463     5.2107483202
NI     11.0571163477     7.8007848417     5.2128259753
NI     12.2854526214     9.9294487449     5.2132306139
NI      9.8298828941     1.4183220527     5.2087938419
NI     11.0554020900     3.5434116931     5.2123084013
NI     12.2852162288     5.6720263304     5.2132720005
NI     13.5145515767     7.8012101614     5.2132598778
NI     14.7437193643     9.9299257000     5.2125695358
NI     12.2861315785     1.4166230983     5.2138165434
NI     13.5131132898     3.5436677629     5.2134177275
NI     14.7451960327     5.6722431503     5.2149707736
NI     15.9737637823     7.8005711070     5.2134094585
NI     17.2018995121     9.9275842247     5.2154585634
NI     -0.0008326454    -0.0017074274     7.2263796124
NI      1.2272224486     2.1241993356     7.2242074334
NI      2.4508218302     4.2527695626     7.2282886683
NI      3.6734959064     6.3827309303     7.2280227605
NI      4.9082216190     8.5200192221     7.2266701588
NI      2.4558969637    -0.0028336536     7.2230863015
NI      3.6834714492     2.1242130246     7.2236032074
NI      4.8885182018     4.2502166338     7.1962104746
NI      6.1318004228     6.3919286632     7.3357218595
NI      7.3740499882     8.5174379612     7.2246499960
NI      4.9117391282    -0.0068265638     7.2281240061
NI      6.1359067130     2.1063811184     7.2004021689
NI      7.3769190816     4.2418042979     7.4157633343
NI      8.6150623815     6.3881149156     7.2170735612
NI      9.8305536580     8.5111446476     7.2263706617
NI      7.3715441005    -0.0065842802     7.2272870160
NI      8.6046927841     2.1106476038     7.2000844628
NI      9.8409832413     4.2563422339     7.2102946791
NI     11.0588331728     6.3825309479     7.2281724723
NI     12.2860608261     8.5092054989     7.2224334161
NI      9.8297353799    -0.0050026740     7.2278842925
NI     11.0558950560     2.1251565859     7.2266539345
NI     12.2865359001     4.2530785621     7.2263624793
NI     13.5138176218     6.3819800029     7.2228111417
NI     14.7413240317     8.5102084634     7.2218850875
C       7.9048508834     3.7624693320    10.3154034741
C       7.3108018292     3.4478390214    11.6571359877
C       7.9426854005     4.3483466328    12.7563230309
C       8.0578144380     3.6284524239    14.1155942891
C       8.2592207123     4.6305035279    15.2689974715
C       8.5958376793     3.9556967538    16.6016383283
O       7.1446379022     4.1035534615     9.3959755920
O       5.9076964207     3.5612666787    11.6525073286
O       9.2361690008     4.7519856789    12.3006130108
O       6.8757912701     2.8673129706    14.3321409026
O       9.3663681943     5.4991185580    14.9366634797
O       7.4855958799     3.1335014874    17.0115066178
H       8.9803634769     3.6331660802    10.1387576202
H       7.6028259636     2.3932389516    11.8606415389
H       7.2573571629     5.2098356544    12.8482324538
H       8.9528358756     2.9734499375    14.0534180186
H       7.3234037861     5.2079790937    15.3670392800
H       9.5118395922     3.3556787802    16.4698082700
H       8.7968140778     4.7354579758    17.3577602015
H       5.6482598010     3.8163876392    10.7422969311
H       9.6378080820     5.2542349131    13.0383209038
H       6.8524446479     2.6249766116    15.2804443113
H       9.2707665877     6.3368038827    15.4183240130
H       7.7676820181     2.5683752303    17.7487211474
O       6.1335758514     6.4048373466     9.0762237529
