125
Step 1 | ATOMIC_POSITIONS (angstrom) | Cartesian Angstrom
NI      0.0000000000     0.0000000000     1.1900000730
NI      1.2286496050     2.1280835410     1.1900000730
NI      2.4572992100     4.2561670810     1.1900000730
NI      3.6859488150     6.3842506220     1.1900000730
NI      4.9145984200     8.5123341620     1.1900000730
NI      2.4572992100     0.0000000000     1.1900000730
NI      3.6859488150     2.1280835410     1.1900000730
NI      4.9145984200     4.2561670810     1.1900000730
NI      6.1432480250     6.3842506220     1.1900000730
NI      7.3718976300     8.5123341620     1.1900000730
NI      4.9145984200     0.0000000000     1.1900000730
NI      6.1432480250     2.1280835410     1.1900000730
NI      7.3718976300     4.2561670810     1.1900000730
NI      8.6005472350     6.3842506220     1.1900000730
NI      9.8291968400     8.5123341620     1.1900000730
NI      7.3718976300     0.0000000000     1.1900000730
NI      8.6005472350     2.1280835410     1.1900000730
NI      9.8291968400     4.2561670810     1.1900000730
NI     11.0578464450     6.3842506220     1.1900000730
NI     12.2864960500     8.5123341620     1.1900000730
NI      9.8291968400     0.0000000000     1.1900000730
NI     11.0578464450     2.1280835410     1.1900000730
NI     12.2864960500     4.2561670810     1.1900000730
NI     13.5151456550     6.3842506220     1.1900000730
NI     14.7437952600     8.5123341620     1.1900000730
NI      1.2281483054     0.7071818290     3.1986811867
NI      2.4569332795     2.8359802900     3.2002848817
NI      3.6854910709     4.9628961504     3.1968503981
NI      4.9154147315     7.0926453403     3.1982160026
NI      6.1439329213     9.2202812343     3.1991758093
NI      3.6854706727     0.7077861750     3.2006275411
NI      4.9180485259     2.8385798395     3.2018846564
NI      6.1462280410     4.9626924407     3.2070401681
NI      7.3723552287     7.0871291752     3.2044634527
NI      8.5995615337     9.2184788070     3.2015373168
NI      6.1420499588     0.7087850097     3.1978183314
NI      7.3724155102     2.8397608825     3.2059078656
NI      8.5981498926     4.9627570548     3.2067262115
NI      9.8271181327     7.0918273154     3.1998953688
NI     11.0572495642     9.2198668154     3.2008971042
NI      8.6010905290     0.7088305791     3.1980884411
NI      9.8247148834     2.8393380746     3.2033891063
NI     11.0562369186     4.9634260860     3.2001077018
NI     12.2859970291     7.0919437217     3.2011619745
NI     13.5152342810     9.2203739033     3.2014049866
NI     11.0578661774     0.7082611604     3.2002983663
NI     12.2849727872     2.8361699393     3.2013683743
NI     13.5147358217     4.9640214649     3.2011798872
NI     14.7439686000     7.0918009217     3.2010780713
NI     15.9728275042     9.2204496799     3.2009468161
NI      2.4549405021     1.4156816047     5.2116980918
NI      3.6851541561     3.5432830229     5.2094881636
NI      4.9154596524     5.6753405483     5.2041652831
NI      6.1442461264     7.7983983567     5.2097355616
NI      7.3707627084     9.9282724377     5.2141516059
NI      4.9125030258     1.4170721043     5.2098397307
NI      6.1559572648     3.5524379420     5.2394261365
NI      7.3696336792     5.6554248498     5.2462104604
NI      8.5976455353     7.7977883288     5.2151359174
NI      9.8283307235     9.9281675558     5.2131892751
NI      7.3710982579     1.4154368975     5.2028790747
NI      8.5845610796     3.5542061046     5.2440598638
NI      9.8275973268     5.6734800980     5.2100125568
NI     11.0570824559     7.8006014424     5.2130502574
NI     12.2855742481     9.9294609229     5.2130833768
NI      9.8299832067     1.4181143715     5.2087330020
NI     11.0553317090     3.5433856546     5.2126035497
NI     12.2852132732     5.6720469607     5.2132918754
NI     13.5146081941     7.8011155671     5.2134953260
NI     14.7438438079     9.9299720702     5.2129388629
NI     12.2861937369     1.4163980024     5.2140332357
NI     13.5132959948     3.5437597624     5.2135883915
NI     14.7441455486     5.6719924851     5.2140723844
NI     15.9732129312     7.8009191797     5.2131483341
NI     17.2015786875     9.9285975708     5.2145395844
NI     -0.0008410737    -0.0021437125     7.2266984580
NI      1.2271903034     2.1242862811     7.2243343224
NI      2.4510243365     4.2528742093     7.2286879099
NI      3.6775449189     6.3831578769     7.2278088283
NI      4.9102518981     8.5162354977     7.2266000473
NI      2.4557673130    -0.0027758654     7.2228857825
NI      3.6833545634     2.1241872482     7.2236370506
NI      4.8905238058     4.2536623781     7.1960623155
NI      6.1315477134     6.3924078416     7.2680878332
NI      7.3721467441     8.5138600723     7.2244482620
NI      4.9117382472    -0.0068677620     7.2282747531
NI      6.1359707567     2.1064312002     7.2000423184
NI      7.3735881428     4.2467142789     7.4162491114
NI      8.6113070989     6.3885509285     7.2166197334
NI      9.8300861076     8.5108959080     7.2261960875
NI      7.3715330692    -0.0065751124     7.2276512260
NI      8.6049986301     2.1100913961     7.1998486440
NI      9.8410631583     4.2563375497     7.2101402058
NI     11.0588848442     6.3824164023     7.2282531895
NI     12.2860713293     8.5091949011     7.2225487010
NI      9.8300169592    -0.0049142054     7.2278226336
NI     11.0558665153     2.1252302503     7.2268233950
NI     12.2865499275     4.2529948245     7.2262893722
NI     13.5138271535     6.3818689211     7.2226493418
NI     14.7419644079     8.5098312043     7.2216898403
C       7.8995029761     3.7653380179    10.3103801633
C       7.3106418849     3.4474183872    11.6566086524
C       7.9427989026     4.3482870897    12.7565556029
C       8.0579235360     3.6283308067    14.1157178464
C       8.2591003790     4.6305647039    15.2690902130
C       8.5958209242     3.9556757766    16.6016806840
O       7.1458837399     4.1128440973     9.4018274084
O       5.9078958719     3.5627027786    11.6531477051
O       9.2360035599     4.7524215893    12.3005980776
O       6.8757599462     2.8674217376    14.3321969457
O       9.3662305768     5.4991672907    14.9366047240
O       7.4856274715     3.1334711653    17.0114397092
H       8.9803228590     3.6325021318    10.1379572721
H       7.6024120484     2.3926620763    11.8608751202
H       7.2572732839     5.2093970631    12.8486364191
H       8.9528287708     2.9734160755    14.0533431636
H       7.3232311524     5.2080082016    15.3671517146
H       9.5118318296     3.3556680662    16.4699093752
H       8.7966233570     4.7355132375    17.3577294708
H       5.6480644688     3.8137935677    10.7414062040
H       9.6378344294     5.2541122870    13.0383009031
H       6.8524656776     2.6250214659    15.2803363579
H       9.2709883411     6.3367205168    15.4184593370
H       7.7676830403     2.5684182782    17.7486926007
O       6.1386468794     6.3940440932     9.1458390122
