88
Step 1 | ATOMIC_POSITIONS (angstrom) | Cartesian Angstrom
NI      1.2285271350     0.7092904720     2.0000000000
NI      8.6004271350     0.7092904720     2.0000000000
NI      2.4570542700     2.8371618880     2.0000000000
NI      9.8289542700     2.8371618880     2.0000000000
NI      3.6859500000     4.9656717300     2.0000000000
NI     11.0578500000     4.9656717300     2.0000000000
NI      3.6855814050     0.7092904720     2.0000000000
NI     11.0574814050     0.7092904720     2.0000000000
NI      4.9141085400     2.8371618880     2.0000000000
NI     12.2860085400     2.8371618880     2.0000000000
NI      6.1430042700     4.9656717300     2.0000000000
NI     13.5149042700     4.9656717300     2.0000000000
NI      6.1433728650     0.7092904720     2.0000000000
NI     13.5152728650     0.7092904720     2.0000000000
NI      7.3719000000     2.8371618880     2.0000000000
NI     14.7438000000     2.8371618880     2.0000000000
NI      8.6007957300     4.9656717300     2.0000000000
NI     15.9726957300     4.9656717300     2.0000000000
NI      0.0018636849    -0.0009951369     4.0328624108
NI      7.3735567107    -0.0010009178     4.0323772185
NI      1.2303288234     2.1270542118     4.0328667042
NI      8.6023321302     2.1270242887     4.0319960129
NI      2.4590203553     4.2551679709     4.0328787018
NI      9.8310385150     4.2551302351     4.0326502275
NI      2.4586819601    -0.0008565205     4.0325375301
NI      9.8309991449    -0.0013513734     4.0323448097
NI      3.6874605903     2.1269711790     4.0324191883
NI     11.0594946950     2.1272262890     4.0332090133
NI      4.9162601959     4.2550242447     4.0325794640
NI     12.2882756940     4.2553723698     4.0327748286
NI      4.9164579571    -0.0011856301     4.0322960417
NI     12.2887554035    -0.0012698650     4.0326944485
NI      6.1452301977     2.1269881250     4.0328722274
NI     13.5173998209     2.1269917000     4.0326666312
NI      7.3738402591     4.2550803661     4.0326189641
NI     14.7458734309     4.2551094785     4.0331311193
NI      1.2265411203     0.7104841785     6.0690208478
NI      8.5982470537     0.7106416510     6.0689407673
NI      2.4553759969     2.8380902287     6.0699491322
NI      9.8271452968     2.8373551963     6.0705326811
NI      3.6846086960     4.9663740867     6.0702223490
NI     11.0560355386     4.9671994765     6.0699289269
NI      3.6838542640     0.7106597322     6.0694581975
NI     11.0561121330     0.7113400663     6.0693278045
NI      4.9130267059     2.8378201703     6.0701550350
NI     12.2837179135     2.8374258901     6.0692090923
NI      6.1408247952     4.9665641319     6.0690020189
NI     13.5135710563     4.9663946798     6.0698042407
NI      6.1420873092     0.7116756394     6.0703209462
NI     13.5128877326     0.7106598015     6.0689938220
NI      7.3704176138     2.8380296538     6.0685166606
NI     14.7416965089     2.8384633397     6.0693444785
NI      8.5986010202     4.9660919465     6.0706103355
NI     15.9703931097     4.9668535864     6.0693766935
NI      0.0005745631    -0.0003086474     8.0985390788
NI      7.3737663497    -0.0031745478     8.0979513807
NI      1.2289581387     2.1276549334     8.0978039387
NI      8.6000720735     2.1284620394     8.0927564884
NI      2.4573821671     4.2563778558     8.0978607393
NI      9.8270871631     4.2593854178     8.0949446240
NI      2.4576419202    -0.0004319200     8.0982053815
NI      9.8279717855    -0.0048145901     8.0946760407
NI      3.6836211828     2.1279426531     8.0968780740
NI     11.0588233110     2.1272672318     8.1039592921
NI      4.9130103609     4.2581368103     8.0966572828
NI     12.2898263543     4.2601469787     8.0945148026
NI      4.9133906976    -0.0047329490     8.0963330091
NI     12.2900783281    -0.0041610503     8.0940205614
NI      6.1481405795     2.1334282705     8.1402238870
NI     13.5208107064     2.1272004632     8.0937133818
NI      7.3751877118     4.2588401772     8.0967403516
NI     14.7447022526     4.2557577903     8.0989269640
O       6.1795165301     2.1510765371    10.1803514116
H       7.7631560845     2.8832874914    11.3002105772
H       6.2850974639     3.8962636623    11.3030571899
C       6.6430091766     2.8596250831    11.3150246422
O       6.6663889255     0.8005870871    12.5794689299
H       7.6442880097     0.8591506453    12.5790252688
C       6.1894806702     2.1417151247    12.6044836028
H       5.0738000393     2.0652670656    12.6035492353
C       6.6600979489     2.8442921128    13.8694293048
H       6.3169394775     3.8836508645    13.9028127070
H       7.7699062237     2.8317545153    13.9028757580
O       6.1786417433     2.1463662834    15.0213681722
H       6.5225312903     2.6233112055    15.7918676159
O      11.0824701129     2.1338988710    10.0950864865
H      11.8060930021     1.7167724976    10.5959939458
H      10.3605730321     2.5519723697    10.5966470989
88
Step 2 | ATOMIC_POSITIONS (angstrom) | Cartesian Angstrom
NI      1.2285271350     0.7092904720     2.0000000000
NI      8.6004271350     0.7092904720     2.0000000000
NI      2.4570542700     2.8371618880     2.0000000000
NI      9.8289542700     2.8371618880     2.0000000000
NI      3.6859500000     4.9656717300     2.0000000000
NI     11.0578500000     4.9656717300     2.0000000000
NI      3.6855814050     0.7092904720     2.0000000000
NI     11.0574814050     0.7092904720     2.0000000000
NI      4.9141085400     2.8371618880     2.0000000000
NI     12.2860085400     2.8371618880     2.0000000000
NI      6.1430042700     4.9656717300     2.0000000000
NI     13.5149042700     4.9656717300     2.0000000000
NI      6.1433728650     0.7092904720     2.0000000000
NI     13.5152728650     0.7092904720     2.0000000000
NI      7.3719000000     2.8371618880     2.0000000000
NI     14.7438000000     2.8371618880     2.0000000000
NI      8.6007957300     4.9656717300     2.0000000000
NI     15.9726957300     4.9656717300     2.0000000000
NI      0.0039030198    -0.0021375771     4.0317996171
NI      7.3753152990    -0.0021158304     4.0308264872
NI      1.2321974032     2.1259544151     4.0318144915
NI      8.6043276029     2.1258880349     4.0299881148
NI      2.4609228353     4.2540618819     4.0318551168
NI      9.8330716271     4.2539631108     4.0314292253
NI      2.4605001593    -0.0018275800     4.0311395670
NI      9.8329938678    -0.0028054166     4.0307455036
NI      3.6894346099     2.1257907217     4.0309122151
NI     11.0612903432     2.1262857638     4.0325118090
NI      4.9183193607     4.2537173139     4.0312312678
NI     12.2902074212     4.2544719040     4.0316430293
NI      4.9185419392    -0.0024806826     4.0307177567
NI     12.2909341272    -0.0026473999     4.0314229001
NI      6.1473593656     2.1257782986     4.0319824358
NI     13.5195635789     2.1258180281     4.0313513676
NI      7.3759837808     4.2538936257     4.0313002709
NI     14.7478828020     4.2539379256     4.0323404971
NI      1.2243402952     0.7117904649     6.0696458589
NI      8.5958407269     0.7120680859     6.0692630306
NI      2.4535608838     2.8391091951     6.0714717889
NI      9.8253053930     2.8376686391     6.0727633873
NI      3.6830973996     4.9671791382     6.0720129415
NI     11.0539923754     4.9688346931     6.0712660180
NI      3.6819751853     0.7121289742     6.0704813554
NI     11.0545527479     0.7136159832     6.0703672962
NI      4.9123432578     2.8382513245     6.0730031845
NI     12.2811150768     2.8377414819     6.0701234795
NI      6.1384355908     4.9675784123     6.0695527119
NI     13.5121529455     4.9671724788     6.0709968515
NI      6.1406840470     0.7148003210     6.0732243127
NI     13.5103614719     0.7120922702     6.0694581131
NI      7.3682242602     2.8386058931     6.0692299216
NI     14.7394793229     2.8399330153     6.0701675900
NI      8.5962360911     4.9667486591     6.0726831426
NI     15.9678986048     4.9680611280     6.0702048568
NI      0.0012482149    -0.0006401595     8.0948772283
NI      7.3756705723    -0.0062781441     8.0936699923
NI      1.2294042804     2.1271860928     8.0933645159
NI      8.5997607394     2.1287595531     8.0828790057
NI      2.4575095374     4.2564624550     8.0935306523
NI      9.8251424945     4.2625860992     8.0874769669
NI      2.4582348551    -0.0008464215     8.0941508976
NI      9.8269451018    -0.0095794799     8.0868740613
NI      3.6817033535     2.1277204541     8.0914566131
NI     11.0600072339     2.1263899535     8.1054576825
NI      4.9116978794     4.2602192817     8.0909584481
NI     12.2932219227     4.2638793458     8.0865008736
NI      4.9122847030    -0.0091814405     8.0897705352
NI     12.2935737299    -0.0084243852     8.0855828180
NI      6.1530432048     2.1392933738     8.1823303093
NI     13.5263956004     2.1262489633     8.0850105958
NI      7.3784215854     4.2614895627     8.0907798432
NI     14.7455090759     4.2552481082     8.0958064200
O       6.1724924214     2.1454940059    10.1588573296
H       7.7655953199     2.8861816514    11.3047899876
H       6.2850792340     3.9052122124    11.3056017829
C       6.6385898305     2.8567802010    11.2897609118
O       6.6674779635     0.7909485164    12.5822535038
H       7.6406401092     0.8570651662    12.5786735739
C       6.1926825203     2.1352956759    12.6016596228
H       5.0809045878     2.0654264522    12.6033979905
C       6.6614075059     2.8459131002    13.8738076657
H       6.3168589042     3.8917296809    13.8974573842
H       7.7730288891     2.8354762177    13.8958800011
O       6.1728290925     2.1419118294    15.0244411317
H       6.5210022533     2.6219656300    15.7935139959
O      11.0820050651     2.1335629487    10.0928161804
H      11.7995836809     1.7207083714    10.6037015816
H      10.3669541729     2.5491146110    10.6053352117
88
Step 3 | ATOMIC_POSITIONS (angstrom) | Cartesian Angstrom
NI      1.2285271350     0.7092904720     2.0000000000
NI      8.6004271350     0.7092904720     2.0000000000
NI      2.4570542700     2.8371618880     2.0000000000
NI      9.8289542700     2.8371618880     2.0000000000
NI      3.6859500000     4.9656717300     2.0000000000
NI     11.0578500000     4.9656717300     2.0000000000
NI      3.6855814050     0.7092904720     2.0000000000
NI     11.0574814050     0.7092904720     2.0000000000
NI      4.9141085400     2.8371618880     2.0000000000
NI     12.2860085400     2.8371618880     2.0000000000
NI      6.1430042700     4.9656717300     2.0000000000
NI     13.5149042700     4.9656717300     2.0000000000
NI      6.1433728650     0.7092904720     2.0000000000
NI     13.5152728650     0.7092904720     2.0000000000
NI      7.3719000000     2.8371618880     2.0000000000
NI     14.7438000000     2.8371618880     2.0000000000
NI      8.6007957300     4.9656717300     2.0000000000
NI     15.9726957300     4.9656717300     2.0000000000
NI      0.0070522343    -0.0040121759     4.0304559264
NI      7.3779030154    -0.0038418328     4.0288825515
NI      1.2351514809     2.1242991668     4.0305014680
NI      8.6074644979     2.1241884989     4.0272645902
NI      2.4639053615     4.2523365870     4.0306244654
NI      9.8362535595     4.2520935428     4.0299883578
NI      2.4633830839    -0.0034012660     4.0293658073
NI      9.8361223047    -0.0049884313     4.0286135530
NI      3.6926304451     2.1240728993     4.0290468921
NI     11.0640630335     2.1248121903     4.0316709445
NI      4.9214402903     4.2515599741     4.0295639911
NI     12.2931662884     4.2530206654     4.0302275308
NI      4.9219125461    -0.0044436974     4.0288555435
NI     12.2942497725    -0.0047368646     4.0297082179
NI      6.1505691632     2.1238833058     4.0312854462
NI     13.5228306308     2.1240414375     4.0295319843
NI      7.3793344380     4.2520297707     4.0296462912
NI     14.7510096014     4.2521083339     4.0313394768
NI      1.2208988518     0.7138038223     6.0696144379
NI      8.5920976006     0.7141218657     6.0682882374
NI      2.4508411390     2.8407000229     6.0725373590
NI      9.8226950432     2.8383657979     6.0750545943
NI      3.6806731999     4.9684608296     6.0734421993
NI     11.0507191180     4.9713466887     6.0717197467
NI      3.6790908677     0.7143410730     6.0708550146
NI     11.0520126403     0.7171642473     6.0711038095
NI      4.9121306802     2.8384483151     6.0782065130
NI     12.2769393825     2.8382886575     6.0706742181
NI      6.1347565128     4.9692129288     6.0692472541
NI     13.5100641471     4.9683416854     6.0711964702
NI      6.1385539885     0.7204432708     6.0781922658
NI     13.5066460987     0.7141548736     6.0688799678
NI      7.3638620139     2.8388730888     6.0704359316
NI     14.7362425283     2.8423021241     6.0701054766
NI      8.5926589885     4.9681131495     6.0741370089
NI     15.9641146229     4.9697299182     6.0700870494
NI      0.0023680502    -0.0011637819     8.0894391185
NI      7.3783395948    -0.0102171986     8.0874375925
NI      1.2303572660     2.1264876490     8.0868135232
NI      8.5996422035     2.1289622105     8.0682333832
NI      2.4578039858     4.2562665784     8.0872413057
NI      9.8229134222     4.2668423480     8.0764949319
NI      2.4590476690    -0.0013504441     8.0880977544
NI      9.8260159466    -0.0158236871     8.0753169591
NI      3.6794673838     2.1272574025     8.0834254767
NI     11.0620466605     2.1250614732     8.1070567572
NI      4.9100000151     4.2632463410     8.0825276662
NI     12.2979297015     4.2683354744     8.0745698783
NI      4.9110112973    -0.0144476643     8.0789184756
NI     12.2986298806    -0.0143556443     8.0732201751
NI      6.1597518665     2.1481929659     8.2455474711
NI     13.5342540048     2.1248129636     8.0723930524
NI      7.3825944171     4.2648947585     8.0812548396
NI     14.7469164774     4.2543498040     8.0914638251
O       6.1638339274     2.1404814395    10.1334826351
H       7.7637631934     2.8895718750    11.3066012497
H       6.2859871118     3.9107857530    11.3057559167
C       6.6349271737     2.8542979556    11.2646777712
O       6.6645702249     0.7807959848    12.5861931261
H       7.6405154513     0.8522710691    12.5780601646
C       6.1970763002     2.1288069273    12.5926183336
H       5.0898741462     2.0642937147    12.6032453970
C       6.6618340141     2.8478234564    13.8732091689
H       6.3178669733     3.8987886989    13.8899951454
H       7.7760865455     2.8411249099    13.8875037264
O       6.1680273908     2.1408138680    15.0266916839
H       6.5172487260     2.6180123745    15.7953591406
O      11.0806247431     2.1333028372    10.0929983532
H      11.7912431404     1.7258688939    10.6150000950
H      10.3757413345     2.5454127461    10.6176693770
88
Step 4 | ATOMIC_POSITIONS (angstrom) | Cartesian Angstrom
NI      1.2285271350     0.7092904720     2.0000000000
NI      8.6004271350     0.7092904720     2.0000000000
NI      2.4570542700     2.8371618880     2.0000000000
NI      9.8289542700     2.8371618880     2.0000000000
NI      3.6859500000     4.9656717300     2.0000000000
NI     11.0578500000     4.9656717300     2.0000000000
NI      3.6855814050     0.7092904720     2.0000000000
NI     11.0574814050     0.7092904720     2.0000000000
NI      4.9141085400     2.8371618880     2.0000000000
NI     12.2860085400     2.8371618880     2.0000000000
NI      6.1430042700     4.9656717300     2.0000000000
NI     13.5149042700     4.9656717300     2.0000000000
NI      6.1433728650     0.7092904720     2.0000000000
NI     13.5152728650     0.7092904720     2.0000000000
NI      7.3719000000     2.8371618880     2.0000000000
NI     14.7438000000     2.8371618880     2.0000000000
NI      8.6007957300     4.9656717300     2.0000000000
NI     15.9726957300     4.9656717300     2.0000000000
NI      0.0124063573    -0.0073664319     4.0284989541
NI      7.3820270526    -0.0067064662     4.0263080251
NI      1.2402892434     2.1215307840     4.0286271567
NI      8.6128147021     2.1214378741     4.0232735527
NI      2.4690428929     4.2493822134     4.0289500242
NI      9.8417183425     4.2487827347     4.0281082389
NI      2.4684213789    -0.0061998119     4.0268713314
NI      9.8415040980    -0.0085571126     4.0254318304
NI      3.6983698724     2.1213827177     4.0266309627
NI     11.0687888751     2.1222563490     4.0304662883
NI      4.9266361115     4.2475933753     4.0274001850
NI     12.2981489222     4.2504326120     4.0282365549
NI      4.9279555816    -0.0076191037     4.0265949630
NI     12.2997530663    -0.0081742164     4.0270877645
NI      6.1558319813     2.1206334089     4.0311464737
NI     13.5282147267     2.1211061689     4.0266717277
NI      7.3850528105     4.2487451187     4.0274015401
NI     14.7563313780     4.2489724520     4.0297723256
NI      1.2150117849     0.7172127771     6.0678379622
NI      8.5858263234     0.7172167724     6.0639404836
NI      2.4464572505     2.8434365603     6.0719903074
NI      9.8186053370     2.8399929584     6.0767098667
NI      3.6763938884     4.9706439984     6.0734562858
NI     11.0449849382     4.9756499890     6.0695261010
NI      3.6741605235     0.7179992416     6.0691543488
NI     11.0474999706     0.7231668646     6.0707641269
NI      4.9128279733     2.8382505105     6.0878210790
NI     12.2697069799     2.8393350295     6.0700107298
NI      6.1285791995     4.9721234633     6.0665601349
NI     13.5067321619     4.9702230615     6.0685242713
NI      6.1351006296     0.7309081687     6.0868356097
NI     13.5007239320     0.7173951077     6.0655411210
NI      7.3551997609     2.8385221343     6.0722189477
NI     14.7310869734     2.8464846069     6.0675870433
NI      8.5868358995     4.9708697296     6.0730732604
NI     15.9578540120     4.9721713073     6.0673996770
NI      0.0043812067    -0.0021218399     8.0805393974
NI      7.3825503530    -0.0152493029     8.0775744843
NI      1.2325053096     2.1254017707     8.0762348712
NI      8.5999631918     2.1287601189     8.0447941139
NI      2.4585246075     4.2553091015     8.0772487392
NI      9.8205650720     4.2727746057     8.0589158971
NI      2.4601944061    -0.0019299713     8.0782497432
NI      9.8256343494    -0.0242563841     8.0567023161
NI      3.6768762589     2.1263237998     8.0705396586
NI     11.0658117629     2.1228345391     8.1090058082
NI      4.9077073789     4.2680416976     8.0691188969
NI     12.3048852131     4.2734845564     8.0552594600
NI      4.9095402945    -0.0203173175     8.0595328124
NI     12.3065490551    -0.0230892880     8.0536488319
NI      6.1696305479     2.1628045254     8.3402063611
NI     13.5460449047     2.1224228276     8.0526343519
NI      7.3880013292     4.2692847794     8.0649024954
NI     14.7495500220     4.2526381079     8.0848489893
O       6.1532148559     2.1381338658    10.1146045255
H       7.7562158740     2.8935891021    11.3013458204
H       6.2873954365     3.9116023751    11.3002270485
C       6.6311063852     2.8496672299    11.2382990317
O       6.6685859631     0.7697028202    12.5906730225
H       7.6344867573     0.8403693165    12.5770453025
C       6.2007117569     2.1219840590    12.5772061028
H       5.1015429079     2.0610514195    12.6018546886
C       6.6639348886     2.8502557503    13.8656916024
H       6.3202258579     3.9051746608    13.8775120039
H       7.7777643159     2.8504787776    13.8757653043
O       6.1620683470     2.1421764512    15.0195779905
H       6.5117813130     2.6127520992    15.8011190390
O      11.0795921122     2.1317684363    10.0969447610
H      11.7803545268     1.7328978912    10.6335536413
H      10.3861915069     2.5420197053    10.6388638491
88
Step 5 | ATOMIC_POSITIONS (angstrom) | Cartesian Angstrom
NI      1.2285271350     0.7092904720     2.0000000000
NI      8.6004271350     0.7092904720     2.0000000000
NI      2.4570542700     2.8371618880     2.0000000000
NI      9.8289542700     2.8371618880     2.0000000000
NI      3.6859500000     4.9656717300     2.0000000000
NI     11.0578500000     4.9656717300     2.0000000000
NI      3.6855814050     0.7092904720     2.0000000000
NI     11.0574814050     0.7092904720     2.0000000000
NI      4.9141085400     2.8371618880     2.0000000000
NI     12.2860085400     2.8371618880     2.0000000000
NI      6.1430042700     4.9656717300     2.0000000000
NI     13.5149042700     4.9656717300     2.0000000000
NI      6.1433728650     0.7092904720     2.0000000000
NI     13.5152728650     0.7092904720     2.0000000000
NI      7.3719000000     2.8371618880     2.0000000000
NI     14.7438000000     2.8371618880     2.0000000000
NI      8.6007957300     4.9656717300     2.0000000000
NI     15.9726957300     4.9656717300     2.0000000000
NI      0.0141834280    -0.0085973881     4.0279969189
NI      7.3831752229    -0.0075485042     4.0259440101
NI      1.2420849403     2.1206297846     4.0281810522
NI      8.6145641772     2.1206487133     4.0224193845
NI      2.4707889125     4.2483911632     4.0286091740
NI      9.8435458362     4.2475709082     4.0277629096
NI      2.4701961836    -0.0072176409     4.0263937197
NI      9.8433148411    -0.0095846800     4.0246175782
NI      3.7005168927     2.1207151063     4.0264143582
NI     11.0703574711     2.1213478338     4.0301114066
NI      4.9282482003     4.2460298569     4.0272008645
NI     12.2997518570     4.2494753322     4.0277784844
NI      4.9302035728    -0.0084768208     4.0265110355
NI     12.3014389838    -0.0091945534     4.0263525109
NI      6.1573696170     2.1195528570     4.0318045463
NI     13.5298515958     2.1202010277     4.0258200168
NI      7.3869058853     4.2475433146     4.0270267189
NI     14.7580944934     4.2479142267     4.0291672718
NI      1.2130784330     0.7183226656     6.0658227016
NI      8.5839533408     0.7178215551     6.0602340237
NI      2.4452587497     2.8443815255     6.0697659086
NI      9.8175515154     2.8409197767     6.0752651864
NI      3.6748156375     4.9713299010     6.0713787784
NI     11.0429958824     4.9771193723     6.0662841207
NI      3.6724891174     0.7191524111     6.0665207393
NI     11.0458977026     0.7250579253     6.0692944039
NI      4.9135224005     2.8379918774     6.0909520997
NI     12.2673011138     2.8397607664     6.0684187988
NI      6.1266364806     4.9731981406     6.0637888283
NI     13.5058630133     4.9707301522     6.0650908299
NI      6.1341054372     0.7346034277     6.0892659771
NI     13.4991418127     0.7182284460     6.0624198268
NI      7.3516966231     2.8380675161     6.0721591971
NI     14.7297092777     2.8479667320     6.0647125669
NI      8.5852460573     4.9719708968     6.0693764757
NI     15.9559851306     4.9726174987     6.0644576418
NI      0.0050879382    -0.0025061337     8.0778604502
NI      7.3837780518    -0.0154538228     8.0749401824
NI      1.2336626025     2.1251862075     8.0732152604
NI      8.6003559154     2.1281758252     8.0385532598
NI      2.4589699352     4.2544446645     8.0745058541
NI      9.8209871690     4.2736102496     8.0541277123
NI      2.4603663810    -0.0018852890     8.0754429970
NI      9.8265102343    -0.0251209274     8.0515274408
NI      3.6769731997     2.1259619510     8.0670229807
NI     11.0672895084     2.1220907902     8.1091897383
NI      4.9074606757     4.2692744999     8.0656202867
NI     12.3062600168     4.2731156200     8.0498281524
NI      4.9095366088    -0.0195982947     8.0529759556
NI     12.3085481370    -0.0247309217     8.0485417172
NI      6.1718165081     2.1670405635     8.3496093293
NI     13.5484940502     2.1216705921     8.0476139449
NI      7.3882773301     4.2695694702     8.0598906235
NI     14.7505852615     4.2519377289     8.0831988367
O       6.1509743802     2.1394970822    10.1346670360
H       7.7509095978     2.8936571254    11.2936843171
H       6.2869781419     3.9072189175    11.2945338733
C       6.6338715312     2.8485729399    11.2442481944
O       6.6648673597     0.7703412995    12.5902129731
H       7.6389836625     0.8347068864    12.5766182590
C       6.1984621110     2.1216738342    12.5729668187
H       5.1038181350     2.0587305224    12.6004562885
C       6.6664924176     2.8506779647    13.8592062660
H       6.3210621337     3.9042352886    13.8729924879
H       7.7761335529     2.8534023203    13.8733460806
O       6.1635412839     2.1474428443    15.0159301013
H       6.5081684964     2.6088057247    15.7985793872
O      11.0774245831     2.1319877231    10.1031385602
H      11.7797495521     1.7336489137    10.6393437888
H      10.3885577376     2.5418192494    10.6440757496
88
Step 6 | ATOMIC_POSITIONS (angstrom) | Cartesian Angstrom
NI      1.2285271350     0.7092904720     2.0000000000
NI      8.6004271350     0.7092904720     2.0000000000
NI      2.4570542700     2.8371618880     2.0000000000
NI      9.8289542700     2.8371618880     2.0000000000
NI      3.6859500000     4.9656717300     2.0000000000
NI     11.0578500000     4.9656717300     2.0000000000
NI      3.6855814050     0.7092904720     2.0000000000
NI     11.0574814050     0.7092904720     2.0000000000
NI      4.9141085400     2.8371618880     2.0000000000
NI     12.2860085400     2.8371618880     2.0000000000
NI      6.1430042700     4.9656717300     2.0000000000
NI     13.5149042700     4.9656717300     2.0000000000
NI      6.1433728650     0.7092904720     2.0000000000
NI     13.5152728650     0.7092904720     2.0000000000
NI      7.3719000000     2.8371618880     2.0000000000
NI     14.7438000000     2.8371618880     2.0000000000
NI      8.6007957300     4.9656717300     2.0000000000
NI     15.9726957300     4.9656717300     2.0000000000
NI      0.0168819570    -0.0104621115     4.0271172201
NI      7.3848574734    -0.0087551557     4.0253497066
NI      1.2448188195     2.1192449228     4.0273947261
NI      8.6171476272     2.1194925970     4.0211312767
NI      2.4734153803     4.2469030366     4.0279525270
NI      9.8462894046     4.2457238788     4.0270618248
NI      2.4728974274    -0.0087583267     4.0256143510
NI      9.8460305604    -0.0110848279     4.0232816207
NI      3.7038046994     2.1197649663     4.0260946350
NI     11.0727110285     2.1199557894     4.0294427506
NI      4.9306611889     4.2436057231     4.0269112205
NI     12.3021562522     4.2480194992     4.0269521315
NI      4.9336250170    -0.0096793855     4.0263648117
NI     12.3039223748    -0.0107002917     4.0251428017
NI      6.1596280004     2.1179533041     4.0327880876
NI     13.5322783039     2.1188593278     4.0244394827
NI      7.3896274825     4.2456885913     4.0263704713
NI     14.7607409349     4.2463263683     4.0280215487
NI      1.2102105760     0.7199825249     6.0625901707
NI      8.5812803859     0.7186212344     6.0543569853
NI      2.4435681920     2.8457930065     6.0661060348
NI      9.8159396422     2.8423768481     6.0727927681
NI      3.6724212279     4.9723146525     6.0679575395
NI     11.0400423302     4.9793881707     6.0611175005
NI      3.6699251493     0.7208807010     6.0621805755
NI     11.0435099906     0.7278144965     6.0668564738
NI      4.9144166129     2.8377159696     6.0954867345
NI     12.2637817657     2.8404142919     6.0657901643
NI      6.1237550231     4.9748562721     6.0593235595
NI     13.5045898812     4.9714754209     6.0596414645
NI      6.1326358714     0.7398926591     6.0926995197
NI     13.4968631417     0.7194232488     6.0574431046
NI      7.3466405191     2.8375591151     6.0718814800
NI     14.7276904453     2.8501565576     6.0601431329
NI      8.5829336567     4.9735857795     6.0633408635
NI     15.9532530395     4.9732600510     6.0598130231
NI      0.0061222901    -0.0030565695     8.0737383476
NI      7.3855723964    -0.0154289672     8.0711537226
NI      1.2354336368     2.1248869417     8.0686417941
NI      8.6009782569     2.1272093819     8.0295549386
NI      2.4596858852     4.2530826571     8.0703447878
NI      9.8218212108     4.2747192163     8.0469649320
NI      2.4605875002    -0.0017439596     8.0711955528
NI      9.8279841055    -0.0261199322     8.0438317496
NI      3.6773890633     2.1253811114     8.0619887561
NI     11.0695348354     2.1210202391     8.1099177563
NI      4.9072457858     4.2710814991     8.0606357011
NI     12.3081429277     4.2722516038     8.0417625318
NI      4.9096658468    -0.0180555418     8.0433478373
NI     12.3114071497    -0.0269350162     8.0410616611
NI      6.1747998647     2.1728969308     8.3663775452
NI     13.5518563429     2.1205425243     8.0402835836
NI      7.3885123563     4.2698701713     8.0524331294
NI     14.7521296321     4.2509003009     8.0805969472
O       6.1455969908     2.1383730657    10.1562349055
H       7.7466025462     2.8938124798    11.2828524948
H       6.2862897602     3.9016715095    11.2869376060
C       6.6353144967     2.8483446403    11.2549643117
O       6.6662131446     0.7706180217    12.5888301387
H       7.6389402000     0.8257968500    12.5760558809
C       6.1990991254     2.1224310592    12.5701605484
H       5.1048154637     2.0554086805    12.5979271003
C       6.6676293898     2.8517790595    13.8508270955
H       6.3224214982     3.9029197061    13.8655094989
H       7.7754872713     2.8576065833    13.8692120148
O       6.1639076074     2.1524872584    15.0060452694
H       6.5045821229     2.6054477064    15.7975915135
O      11.0772719156     2.1303033195    10.1108759537
H      11.7784484962     1.7350735967    10.6477690530
H      10.3894295323     2.5432475413    10.6540557314
88
Step 7 | ATOMIC_POSITIONS (angstrom) | Cartesian Angstrom
NI      1.2285271350     0.7092904720     2.0000000000
NI      8.6004271350     0.7092904720     2.0000000000
NI      2.4570542700     2.8371618880     2.0000000000
NI      9.8289542700     2.8371618880     2.0000000000
NI      3.6859500000     4.9656717300     2.0000000000
NI     11.0578500000     4.9656717300     2.0000000000
NI      3.6855814050     0.7092904720     2.0000000000
NI     11.0574814050     0.7092904720     2.0000000000
NI      4.9141085400     2.8371618880     2.0000000000