88
Step 1 | ATOMIC_POSITIONS (angstrom) | Cartesian Angstrom
NI      1.2285271350     0.7092904720     2.0000000000
NI      8.6004271350     0.7092904720     2.0000000000
NI      2.4570542700     2.8371618880     2.0000000000
NI      9.8289542700     2.8371618880     2.0000000000
NI      3.6859500000     4.9656717300     2.0000000000
NI     11.0578500000     4.9656717300     2.0000000000
NI      3.6855814050     0.7092904720     2.0000000000
NI     11.0574814050     0.7092904720     2.0000000000
NI      4.9141085400     2.8371618880     2.0000000000
NI     12.2860085400     2.8371618880     2.0000000000
NI      6.1430042700     4.9656717300     2.0000000000
NI     13.5149042700     4.9656717300     2.0000000000
NI      6.1433728650     0.7092904720     2.0000000000
NI     13.5152728650     0.7092904720     2.0000000000
NI      7.3719000000     2.8371618880     2.0000000000
NI     14.7438000000     2.8371618880     2.0000000000
NI      8.6007957300     4.9656717300     2.0000000000
NI     15.9726957300     4.9656717300     2.0000000000
NI      0.0018027677    -0.0009769383     4.0330060763
NI      7.3736559983    -0.0011677783     4.0329180799
NI      1.2304382553     2.1269869575     4.0328979433
NI      8.6025473204     2.1272424275     4.0320427589
NI      2.4591324827     4.2550986071     4.0329105322
NI      9.8309667473     4.2550127051     4.0327049925
NI      2.4587392114    -0.0009744463     4.0324538510
NI      9.8313455129    -0.0011537651     4.0324140536
NI      3.6875615996     2.1268649489     4.0321438982
NI     11.0597368829     2.1270672355     4.0330942070
NI      4.9163707722     4.2550482428     4.0323798627
NI     12.2883819604     4.2549392881     4.0326377404
NI      4.9162672991    -0.0011365556     4.0319480369
NI     12.2885210821    -0.0009899747     4.0330940792
NI      6.1450316391     2.1272078811     4.0323557245
NI     13.5170255072     2.1270608692     4.0330875881
NI      7.3735112188     4.2551638480     4.0325703408
NI     14.7459075843     4.2550985161     4.0329688552
NI      1.2265413688     0.7105034195     6.0690322533
NI      8.5978488445     0.7097795352     6.0691956289
NI      2.4553252638     2.8381321376     6.0702199517
NI      9.8268438224     2.8375213633     6.0708912223
NI      3.6845587398     4.9663711321     6.0701732325
NI     11.0564351355     4.9676310462     6.0696620921
NI      3.6841237872     0.7105921340     6.0701278153
NI     11.0554784587     0.7103936856     6.0694169913
NI      4.9131643879     2.8376746124     6.0707504209
NI     12.2841417742     2.8385128892     6.0694094817
NI      6.1409588542     4.9664615442     6.0689657707
NI     13.5125438318     4.9669591935     6.0690757319
NI      6.1425333737     0.7115484215     6.0712312901
NI     13.5133740934     0.7103836739     6.0689283285
NI      7.3701507986     2.8378768535     6.0684359009
NI     14.7418643846     2.8383003969     6.0690284859
NI      8.5987871586     4.9663749720     6.0699290777
NI     15.9706051771     4.9668117367     6.0690568869
NI      0.0009977608    -0.0005739035     8.0977055259
NI      7.3752465041    -0.0049281753     8.1116429443
NI      1.2294057320     2.1276799203     8.0976283643
NI      8.6068504983     2.1315395428     8.0936523569
NI      2.4575821780     4.2560336270     8.0976890662
NI      9.8277051243     4.2518372926     8.0960474323
NI      2.4580656146    -0.0004965796     8.0982177314
NI      9.8347151441    -0.0006946900     8.0941037771
NI      3.6837203960     2.1277842827     8.0973612332
NI     11.0582454110     2.1275889355     8.0987467861
NI      4.9131457059     4.2580605355     8.0964433434
NI     12.2897145822     4.2521831642     8.0938104840
NI      4.9088940758    -0.0038969110     8.0922526669
NI     12.2870092094    -0.0004720764     8.0979685802
NI      6.1447283935     2.1368864897     8.1341597686
NI     13.5159636400     2.1280379479     8.0978506394
NI      7.3746682152     4.2593938428     8.0963212309
NI     14.7444973426     4.2558831343     8.0984711912
O       6.1705741905     2.1545660046    10.1880119910
H       7.7624777321     2.8830321525    11.3001246904
H       6.2847963333     3.8955898831    11.3035036553
C       6.6438884952     2.8625757183    11.3164724414
O       6.6657881490     0.7971752064    12.5788965480
H       7.6454441315     0.8614229638    12.5827614694
C       6.1862140496     2.1521579212    12.6065578464
H       5.0740202685     2.0647452884    12.6037322783
C       6.6606791045     2.8428507581    13.8697495063
H       6.3168286296     3.8831023892    13.9020841332
H       7.7697513984     2.8318518854    13.9028033927
O       6.1786838537     2.1462824161    15.0212428268
H       6.5225233421     2.6231455000    15.7920217975
O       7.3982205621    -0.0273524747    10.0719509890
H       8.0906122432    -0.4203448108    10.5913783114
H       6.6373129746     0.4376393688    10.6037091995
88
Step 2 | ATOMIC_POSITIONS (angstrom) | Cartesian Angstrom
NI      1.2285271350     0.7092904720     2.0000000000
NI      8.6004271350     0.7092904720     2.0000000000
NI      2.4570542700     2.8371618880     2.0000000000
NI      9.8289542700     2.8371618880     2.0000000000
NI      3.6859500000     4.9656717300     2.0000000000
NI     11.0578500000     4.9656717300     2.0000000000
NI      3.6855814050     0.7092904720     2.0000000000
NI     11.0574814050     0.7092904720     2.0000000000
NI      4.9141085400     2.8371618880     2.0000000000
NI     12.2860085400     2.8371618880     2.0000000000
NI      6.1430042700     4.9656717300     2.0000000000
NI     13.5149042700     4.9656717300     2.0000000000
NI      6.1433728650     0.7092904720     2.0000000000
NI     13.5152728650     0.7092904720     2.0000000000
NI      7.3719000000     2.8371618880     2.0000000000
NI     14.7438000000     2.8371618880     2.0000000000
NI      8.6007957300     4.9656717300     2.0000000000
NI     15.9726957300     4.9656717300     2.0000000000
NI      0.0052922667    -0.0029416383     4.0313377445
NI      7.3770186683    -0.0034340734     4.0312223561
NI      1.2339575443     2.1248822555     4.0310437145
NI      8.6065074097     2.1255337456     4.0285521251
NI      2.4627359483     4.2530079062     4.0311079295
NI      9.8345078584     4.2527207427     4.0305749710
NI      2.4621031548    -0.0029183740     4.0298250801
NI      9.8354468434    -0.0033247500     4.0296093568
NI      3.6912553188     2.1245616436     4.0289714294
NI     11.0633830208     2.1251041714     4.0316587055
NI      4.9202304825     4.2527659861     4.0295799960
NI     12.2919809269     4.2525718652     4.0302379573
NI      4.9196799635    -0.0033200965     4.0284481135
NI     12.2920201269    -0.0029216051     4.0315609489
NI      6.1484894842     2.1253796817     4.0297576137
NI     13.5202162574     2.1250521238     4.0315397031
NI      7.3767310562     4.2532211942     4.0300802213
NI     14.7495644657     4.2529819259     4.0311769722
NI      1.2226426639     0.7128833026     6.0702193517
NI      8.5925662860     0.7106413204     6.0708785808
NI      2.4519701469     2.8400512097     6.0734778684
NI      9.8229130873     2.8383859168     6.0750918961
NI      3.6817544874     4.9677698873     6.0733056272
NI     11.0534671101     4.9716272419     6.0721675205
NI      3.6811761672     0.7131885840     6.0729032425
NI     11.0516548473     0.7125944598     6.0711303163
NI      4.9119541574     2.8382691081     6.0764808001
NI     12.2804400878     2.8410223576     6.0711135427
NI      6.1369447099     4.9680764706     6.0698854159
NI     13.5080217904     4.9694507616     6.0700892726
NI      6.1413085898     0.7165051012     6.0787715690
NI     13.5096754558     0.7124960889     6.0700143996
NI      7.3659636534     2.8386052356     6.0695540104
NI     14.7380833469     2.8405458348     6.0702704180
NI      8.5951073270     4.9679442584     6.0724245860
NI     15.9665277869     4.9690371731     6.0703057122
NI      0.0028011212    -0.0015543555     8.0896721538
NI      7.3824331209    -0.0141500893     8.1261188524
NI      1.2306986896     2.1268952867     8.0894121906
NI      8.6182829842     2.1374123134     8.0773392407
NI      2.4580249314     4.2558309432     8.0896912230
NI      9.8253568307     4.2440655765     8.0844545256
NI      2.4596267931    -0.0012790960     8.0910212928
NI      9.8451748514    -0.0019551995     8.0791162343
NI      3.6802865154     2.1271783064     8.0886293797
NI     11.0594204178     2.1265298513     8.0927645742
NI      4.9109035901     4.2618445248     8.0858983331
NI     12.2958568611     4.2443234663     8.0781357264
NI      4.8990236536    -0.0104797181     8.0731152765
NI     12.2878524577    -0.0013943491     8.0903628701
NI      6.1475673541     2.1533505610     8.1963132742
NI     13.5172642567     2.1277002752     8.0901205434
NI      7.3795693275     4.2651252191     8.0849475117
NI     14.7456058096     4.2551765760     8.0918270317
O       6.1415937214     2.1459207111    10.1651479085
H       7.7668453615     2.8878434363    11.3082794844
H       6.2840699232     3.9129534725    11.3089298604
C       6.6356097111     2.8624834124    11.2753275793
O       6.6659742494     0.7789095086    12.5804132726
H       7.6397221107     0.8623175292    12.5897534171
C       6.1913894396     2.1520816413    12.6047904839
H       5.0846943570     2.0649853548    12.6039289491
C       6.6625240966     2.8458531732    13.8796429790
H       6.3170388756     3.8961228046    13.8914970362
H       7.7759695244     2.8384300127    13.8899227401
O       6.1683343637     2.1376782100    15.0274651113
H       6.5196503484     2.6202492223    15.7948391599
O       7.3847950316    -0.0431357746    10.0418849494
H       8.0953029720    -0.4330036033    10.6100424849
H       6.6640828317     0.4511985232    10.6031253840
