88
Step 1 | ATOMIC_POSITIONS (angstrom) | Cartesian Angstrom
NI      1.2285271350     0.7092904720     2.0000000000
NI      8.6004271350     0.7092904720     2.0000000000
NI      2.4570542700     2.8371618880     2.0000000000
NI      9.8289542700     2.8371618880     2.0000000000
NI      3.6859500000     4.9656717300     2.0000000000
NI     11.0578500000     4.9656717300     2.0000000000
NI      3.6855814050     0.7092904720     2.0000000000
NI     11.0574814050     0.7092904720     2.0000000000
NI      4.9141085400     2.8371618880     2.0000000000
NI     12.2860085400     2.8371618880     2.0000000000
NI      6.1430042700     4.9656717300     2.0000000000
NI     13.5149042700     4.9656717300     2.0000000000
NI      6.1433728650     0.7092904720     2.0000000000
NI     13.5152728650     0.7092904720     2.0000000000
NI      7.3719000000     2.8371618880     2.0000000000
NI     14.7438000000     2.8371618880     2.0000000000
NI      8.6007957300     4.9656717300     2.0000000000
NI     15.9726957300     4.9656717300     2.0000000000
NI      0.0461050422    -0.0301776287     3.9976495748
NI      7.4175857143    -0.0177455570     3.9972837315
NI      1.2739600338     2.0984154950     3.9920035296
NI      8.6421171583     2.1129197444     4.0060850710
NI      2.5042409685     4.2316975414     3.9976646061
NI      9.8701441913     4.2309723592     4.0019736496
NI      2.5028248047    -0.0309052741     4.0065052621
NI      9.8840273112    -0.0172560543     3.9975814529
NI      3.7320451017     2.0921372149     4.0058437661
NI     11.0981630082     2.1054885408     4.0073417922
NI      4.9526256086     4.2211575925     4.0114236332
NI     12.3355018711     4.2291551175     3.9921027759
NI      4.9585157377    -0.0276945091     4.0092014006
NI     12.3241265311    -0.0209604136     4.0027436241
NI      6.1904288399     2.1034151070     4.0102585680
NI     13.5601919938     2.1023465363     3.9950712873
NI      7.4145478898     4.2288020464     3.9977377912
NI     14.7975248003     4.2281177489     3.9851894435
NI      1.2255721054     0.7090775652     6.0131409350
NI      8.6009000053     0.7046549770     6.0140993944
NI      2.4523340213     2.8375557655     5.9925893756
NI      9.8480203282     2.8308658990     6.0324711855
NI      3.6809070152     4.9626083088     6.0133895298
NI     11.0597217776     4.9814099658     5.9898574122
NI      3.6891560794     0.7030811130     6.0483141192
NI     11.0677109164     0.7384804833     6.0621349357
NI      4.9208948238     2.8307439910     6.0413413525
NI     12.2731948855     2.8255803844     6.0168572820
NI      6.1312532567     4.9667707769     6.0115817770
NI     13.5314137251     4.9733893610     5.9783091586
NI      6.1301518982     0.7148610413     6.0147219637
NI     13.5147254256     0.7100204267     5.9989071008
NI      7.3670735429     2.8270212571     6.0358662958
NI     14.7431979767     2.8431455727     5.9938717907
NI      8.5984974153     4.9712410229     6.0103673023
NI     15.9695945646     4.9730415040     6.0033698386
NI      0.0160276932    -0.0171116396     8.0181085134
NI      7.4179653940    -0.0188576701     8.0294883843
NI      1.2480513823     2.1172159347     7.9990067166
NI      8.6573163363     2.1219454163     7.9897169774
NI      2.4756479790     4.2408704972     8.0089580699
NI      9.8457763104     4.2232251699     7.9503291558
NI      2.4526229054    -0.0166354180     8.0338994479
NI      9.8643244486    -0.0338582202     8.0017385848
NI      3.6605122277     2.1364671670     7.9966426392
NI     11.0996081041     2.1221801504     8.2265985224
NI      4.9232301392     4.2502767075     8.0217704473
NI     12.3409338514     4.2416891814     7.9297779594
NI      4.8961529819    -0.0506206311     8.1059631632
NI     12.3370868523    -0.0320522268     8.0089675232
NI      6.1739040712     2.1532494878     8.1232330037
NI     13.5654843185     2.1035338121     7.9803188487
NI      7.3824114376     4.2465070112     8.0054165222
NI     14.7673055238     4.2469783910     7.9976667005
O       6.1727915846     0.6520870279     9.3914997420
H       7.1378039240     1.1252001650    11.1500204195
H       5.3572578690     0.8717611198    11.2686331610
C       6.2923599170     0.4977657522    10.8210042344
O       7.8329648056    -1.4412988437    10.9093396690
H       8.1101917473    -1.0797582674    10.0177355172
C       6.5116896154    -0.9585429292    11.2177731372
H       5.7545139041    -1.5714476364    10.6827442412
C       6.3340570100    -1.1032654986    12.7263507445
H       5.2985644857    -0.8344765356    13.0000424462
H       7.0127322215    -0.3928235230    13.2309212549
O       6.6009697467    -2.4508997903    13.1374583822
H       7.3036903284    -2.4096172863    13.8095569947
O      11.1468753507     2.3094821091    10.2436440627
H      11.8584212834     1.7210870354    10.5569391359
H      11.3779168905     3.2396934381    10.5411779121
88
Step 2 | ATOMIC_POSITIONS (angstrom) | Cartesian Angstrom
NI      1.2285271350     0.7092904720     2.0000000000
NI      8.6004271350     0.7092904720     2.0000000000
NI      2.4570542700     2.8371618880     2.0000000000
NI      9.8289542700     2.8371618880     2.0000000000
NI      3.6859500000     4.9656717300     2.0000000000
NI     11.0578500000     4.9656717300     2.0000000000
NI      3.6855814050     0.7092904720     2.0000000000
NI     11.0574814050     0.7092904720     2.0000000000
NI      4.9141085400     2.8371618880     2.0000000000
NI     12.2860085400     2.8371618880     2.0000000000
NI      6.1430042700     4.9656717300     2.0000000000
NI     13.5149042700     4.9656717300     2.0000000000
NI      6.1433728650     0.7092904720     2.0000000000
NI     13.5152728650     0.7092904720     2.0000000000
NI      7.3719000000     2.8371618880     2.0000000000
NI     14.7438000000     2.8371618880     2.0000000000
NI      8.6007957300     4.9656717300     2.0000000000
NI     15.9726957300     4.9656717300     2.0000000000
NI      0.0449896434    -0.0296464127     3.9962235707
NI      7.4144763731    -0.0167076683     3.9973336285
NI      1.2740916463     2.0997233804     3.9932673266
NI      8.6421040740     2.1129873895     4.0039113651
NI      2.5030494354     4.2315065776     3.9975560000
NI      9.8706510254     4.2320148954     4.0038775231
NI      2.5029164042    -0.0290886405     4.0059014259
NI      9.8816460405    -0.0168982194     3.9960567139
NI      3.7337589873     2.0947370993     4.0065766647
NI     11.0981856475     2.1058591479     4.0070233821
NI      4.9534733072     4.2228347280     4.0108389704
NI     12.3332600999     4.2298630742     3.9926433538
NI      4.9588686749    -0.0263184791     4.0086572577
NI     12.3238708744    -0.0215375797     4.0012019004
NI      6.1906765408     2.1042950551     4.0108648583
NI     13.5613883937     2.1026000652     3.9963035454
NI      7.4156743263     4.2307352905     3.9963363221
NI     14.7944605508     4.2270957444     3.9852562793
NI      1.2245829004     0.7110275993     6.0138165145
NI      8.5991015265     0.7069575142     6.0139821519
NI      2.4518248867     2.8391224208     5.9981159151
NI      9.8483941317     2.8330704777     6.0324130871
NI      3.6813302384     4.9647582810     6.0150776890
NI     11.0577636017     4.9835882217     5.9937861412
NI      3.6874962213     0.7043664695     6.0481095027
NI     11.0656981489     0.7405493782     6.0610890357
NI      4.9184669357     2.8345141845     6.0436941731
NI     12.2735439650     2.8280166694     6.0156684110
NI      6.1333840901     4.9677802825     6.0115450058
NI     13.5293761678     4.9738579328     5.9808804830
NI      6.1302829740     0.7147863271     6.0151210288
NI     13.5154823796     0.7097051921     6.0000862140
NI      7.3679459068     2.8296750489     6.0365883717
NI     14.7422073027     2.8459666701     5.9987902270
NI      8.5992457154     4.9715572731     6.0123929585
NI     15.9674891381     4.9745358216     6.0033039142
NI      0.0136415991    -0.0142417329     8.0199997401
NI      7.4253502776    -0.0198263706     8.0309835583
NI      1.2466112717     2.1174291142     8.0017110117
NI      8.6571032095     2.1250477558     7.9876058321
NI      2.4759292251     4.2434007788     8.0092716107
NI      9.8496412066     4.2241459002     7.9525503078
NI      2.4518786134    -0.0147690749     8.0328728357
NI      9.8663704808    -0.0307514760     7.9960485092
NI      3.6610432374     2.1353773412     7.9976560571
NI     11.1030217369     2.1213183436     8.2294236461
NI      4.9238066402     4.2539303313     8.0234038786
NI     12.3405204571     4.2426107831     7.9296223903
NI      4.8997430570    -0.0475132616     8.1031819369
NI     12.3366991153    -0.0296745004     8.0064818269
NI      6.1742508134     2.1543167046     8.1224367799
NI     13.5663687598     2.1051475543     7.9815365149
NI      7.3799013982     4.2487013615     8.0062610479
NI     14.7683800861     4.2446904188     8.0000158958
O       6.1759591366     0.6522463134     9.3884726554
H       7.1358964299     1.1338800024    11.1467560918
H       5.3518951711     0.8802268838    11.2626010686
C       6.2898440037     0.5059318238    10.8203773892
O       7.8289118496    -1.4353831600    10.9141043789
H       8.1100259064    -1.0779540556    10.0251350857
C       6.5078329524    -0.9487831068    11.2244868611
H       5.7558982892    -1.5676382746    10.6920172685
C       6.3318204228    -1.0880107941    12.7341625077
H       5.2993594042    -0.8097426056    13.0037975193
H       7.0167464126    -0.3816675160    13.2361352262
O       6.5884914528    -2.4342271223    13.1530200674
H       7.2944175466    -2.3970433985    13.8153471616
O      11.1494810928     2.3073627943    10.2479135897
H      11.8637212546     1.7222458890    10.5631691670
H      11.3816357215     3.2395074971    10.5416331590
88
Step 3 | ATOMIC_POSITIONS (angstrom) | Cartesian Angstrom
NI      1.2285271350     0.7092904720     2.0000000000
NI      8.6004271350     0.7092904720     2.0000000000
NI      2.4570542700     2.8371618880     2.0000000000
NI      9.8289542700     2.8371618880     2.0000000000
NI      3.6859500000     4.9656717300     2.0000000000
NI     11.0578500000     4.9656717300     2.0000000000
NI      3.6855814050     0.7092904720     2.0000000000
NI     11.0574814050     0.7092904720     2.0000000000
NI      4.9141085400     2.8371618880     2.0000000000
NI     12.2860085400     2.8371618880     2.0000000000
NI      6.1430042700     4.9656717300     2.0000000000
NI     13.5149042700     4.9656717300     2.0000000000
NI      6.1433728650     0.7092904720     2.0000000000
NI     13.5152728650     0.7092904720     2.0000000000
NI      7.3719000000     2.8371618880     2.0000000000
NI     14.7438000000     2.8371618880     2.0000000000
NI      8.6007957300     4.9656717300     2.0000000000
NI     15.9726957300     4.9656717300     2.0000000000
NI      0.0445109584    -0.0293734779     3.9958952673
NI      7.4146708013    -0.0166722846     3.9971931851
NI      1.2740593815     2.0987106039     3.9938333449
NI      8.6425237460     2.1126132031     4.0032390382
NI      2.5032212950     4.2311989842     3.9967621826
NI      9.8712263829     4.2324624447     4.0030821626
NI      2.5037855425    -0.0278428506     4.0044196589
NI      9.8799200122    -0.0158090042     3.9941172187
NI      3.7354166430     2.0964617125     4.0070073335
NI     11.0977555887     2.1061348987     4.0078010163
NI      4.9551076103     4.2246457351     4.0084510848
NI     12.3321202488     4.2305743033     3.9910832729
NI      4.9597998733    -0.0254728841     4.0089194062
NI     12.3242671889    -0.0209851486     4.0005190762
NI      6.1905470414     2.1051788626     4.0115151503
NI     13.5605658756     2.1032087602     3.9958462971
NI      7.4152229644     4.2320407080     3.9943804244
NI     14.7933208477     4.2275254955     3.9851696833
NI      1.2249608898     0.7110675162     6.0134169811
NI      8.5980273221     0.7080275111     6.0135249753
NI      2.4524405164     2.8393974347     5.9990294310
NI      9.8480694491     2.8334294693     6.0322150662
NI      3.6819937860     4.9656552229     6.0160799303
NI     11.0570590141     4.9852018911     5.9952437295
NI      3.6868941138     0.7037692209     6.0468948039
NI     11.0639457065     0.7410810707     6.0595283173
NI      4.9179310157     2.8355292639     6.0455092310
NI     12.2738635642     2.8286984729     6.0148576082
NI      6.1350101393     4.9680385410     6.0111496771
NI     13.5276202597     4.9743544192     5.9802678847
NI      6.1303895791     0.7162067612     6.0153481189
NI     13.5169659082     0.7093710440     6.0004302469
NI      7.3684045675     2.8310679712     6.0367864970
NI     14.7400988108     2.8472128588     5.9992362520
NI      8.5996093474     4.9724076870     6.0146536513
NI     15.9669057319     4.9750986009     6.0012473267
NI      0.0134994291    -0.0129440775     8.0201367246
NI      7.4279716423    -0.0198116347     8.0324751770
NI      1.2453934318     2.1170084222     8.0017943633
NI      8.6571764815     2.1259783730     7.9864477499
NI      2.4758198419     4.2434866823     8.0078370703
NI      9.8515018596     4.2249742409     7.9514238558
NI      2.4526414434    -0.0139007470     8.0319198380
NI      9.8672485617    -0.0289217522     7.9934909220
NI      3.6612623235     2.1350454093     7.9976880222
NI     11.1063355253     2.1202321187     8.2292825096
NI      4.9242996962     4.2551219693     8.0253701835
NI     12.3409604612     4.2448521060     7.9290724250
NI      4.8998058398    -0.0450200904     8.1031247351
NI     12.3350866336    -0.0290688436     8.0052133346
NI      6.1738842438     2.1545699497     8.1217879071
NI     13.5660435408     2.1062805130     7.9818618349
NI      7.3783408907     4.2493349818     8.0066044580
NI     14.7691074115     4.2436679835     7.9990606175
O       6.1793513559     0.6517666492     9.3886904126
H       7.1442445461     1.1299180852    11.1451636677
H       5.3588891815     0.8861024543    11.2656135541
C       6.2934609214     0.5075291477    10.8202500653
O       7.8239944435    -1.4435615406    10.9192730912
H       8.1133413284    -1.0863008941    10.0339172564
C       6.5041277707    -0.9477765167    11.2286144388
H       5.7524962521    -1.5675404451    10.6965312004
C       6.3263133785    -1.0852247525    12.7390305533
H       5.2954057524    -0.7986281590    13.0053028538
H       7.0175437290    -0.3866904176    13.2395766606
O       6.5682574855    -2.4324049466    13.1622351054
H       7.2918907295    -2.4036003592    13.8097948042
O      11.1513413124     2.3071657128    10.2484401291
H      11.8673601950     1.7248123065    10.5663086185
H      11.3823919076     3.2425745267    10.5398126511
