88
Step 1 | ATOMIC_POSITIONS (angstrom) | Cartesian Angstrom
NI      1.2285271350     0.7092904720     2.0000000000
NI      8.6004271350     0.7092904720     2.0000000000
NI      2.4570542700     2.8371618880     2.0000000000
NI      9.8289542700     2.8371618880     2.0000000000
NI      3.6859500000     4.9656717300     2.0000000000
NI     11.0578500000     4.9656717300     2.0000000000
NI      3.6855814050     0.7092904720     2.0000000000
NI     11.0574814050     0.7092904720     2.0000000000
NI      4.9141085400     2.8371618880     2.0000000000
NI     12.2860085400     2.8371618880     2.0000000000
NI      6.1430042700     4.9656717300     2.0000000000
NI     13.5149042700     4.9656717300     2.0000000000
NI      6.1433728650     0.7092904720     2.0000000000
NI     13.5152728650     0.7092904720     2.0000000000
NI      7.3719000000     2.8371618880     2.0000000000
NI     14.7438000000     2.8371618880     2.0000000000
NI      8.6007957300     4.9656717300     2.0000000000
NI     15.9726957300     4.9656717300     2.0000000000
NI      0.0018636849    -0.0009951369     4.0328624108
NI      7.3735567107    -0.0010009178     4.0323772185
NI      1.2303288234     2.1270542118     4.0328667042
NI      8.6023321302     2.1270242887     4.0319960129
NI      2.4590203553     4.2551679709     4.0328787018
NI      9.8310385150     4.2551302351     4.0326502275
NI      2.4586819601    -0.0008565205     4.0325375301
NI      9.8309991449    -0.0013513734     4.0323448097
NI      3.6874605903     2.1269711790     4.0324191883
NI     11.0594946950     2.1272262890     4.0332090133
NI      4.9162601959     4.2550242447     4.0325794640
NI     12.2882756940     4.2553723698     4.0327748286
NI      4.9164579571    -0.0011856301     4.0322960417
NI     12.2887554035    -0.0012698650     4.0326944485
NI      6.1452301977     2.1269881250     4.0328722274
NI     13.5173998209     2.1269917000     4.0326666312
NI      7.3738402591     4.2550803661     4.0326189641
NI     14.7458734309     4.2551094785     4.0331311193
NI      1.2265411203     0.7104841785     6.0690208478
NI      8.5982470537     0.7106416510     6.0689407673
NI      2.4553759969     2.8380902287     6.0699491322
NI      9.8271452968     2.8373551963     6.0705326811
NI      3.6846086960     4.9663740867     6.0702223490
NI     11.0560355386     4.9671994765     6.0699289269
NI      3.6838542640     0.7106597322     6.0694581975
NI     11.0561121330     0.7113400663     6.0693278045
NI      4.9130267059     2.8378201703     6.0701550350
NI     12.2837179135     2.8374258901     6.0692090923
NI      6.1408247952     4.9665641319     6.0690020189
NI     13.5135710563     4.9663946798     6.0698042407
NI      6.1420873092     0.7116756394     6.0703209462
NI     13.5128877326     0.7106598015     6.0689938220
NI      7.3704176138     2.8380296538     6.0685166606
NI     14.7416965089     2.8384633397     6.0693444785
NI      8.5986010202     4.9660919465     6.0706103355
NI     15.9703931097     4.9668535864     6.0693766935
NI      0.0005745631    -0.0003086474     8.0985390788
NI      7.3737663497    -0.0031745478     8.0979513807
NI      1.2289581387     2.1276549334     8.0978039387
NI      8.6000720735     2.1284620394     8.0927564884
NI      2.4573821671     4.2563778558     8.0978607393
NI      9.8270871631     4.2593854178     8.0949446240
NI      2.4576419202    -0.0004319200     8.0982053815
NI      9.8279717855    -0.0048145901     8.0946760407
NI      3.6836211828     2.1279426531     8.0968780740
NI     11.0588233110     2.1272672318     8.1039592921
NI      4.9130103609     4.2581368103     8.0966572828
NI     12.2898263543     4.2601469787     8.0945148026
NI      4.9133906976    -0.0047329490     8.0963330091
NI     12.2900783281    -0.0041610503     8.0940205614
NI      6.1481405795     2.1334282705     8.1402238870
NI     13.5208107064     2.1272004632     8.0937133818
NI      7.3751877118     4.2588401772     8.0967403516
NI     14.7447022526     4.2557577903     8.0989269640
O       6.1795165301     2.1510765371    10.1803514116
H       7.7631560845     2.8832874914    11.3002105772
H       6.2850974639     3.8962636623    11.3030571899
C       6.6430091766     2.8596250831    11.3150246422
O       6.6663889255     0.8005870871    12.5794689299
H       7.6442880097     0.8591506453    12.5790252688
C       6.1894806702     2.1417151247    12.6044836028
H       5.0738000393     2.0652670656    12.6035492353
C       6.6600979489     2.8442921128    13.8694293048
H       6.3169394775     3.8836508645    13.9028127070
H       7.7699062237     2.8317545153    13.9028757580
O       6.1786417433     2.1463662834    15.0213681722
H       6.5225312903     2.6233112055    15.7918676159
O      11.0824701129     2.1338988710    10.0950864865
H      11.8060930021     1.7167724976    10.5959939458
H      10.3605730321     2.5519723697    10.5966470989
88
Step 2 | ATOMIC_POSITIONS (angstrom) | Cartesian Angstrom
NI      1.2285271350     0.7092904720     2.0000000000
NI      8.6004271350     0.7092904720     2.0000000000
NI      2.4570542700     2.8371618880     2.0000000000
NI      9.8289542700     2.8371618880     2.0000000000
NI      3.6859500000     4.9656717300     2.0000000000
NI     11.0578500000     4.9656717300     2.0000000000
NI      3.6855814050     0.7092904720     2.0000000000
NI     11.0574814050     0.7092904720     2.0000000000
NI      4.9141085400     2.8371618880     2.0000000000
NI     12.2860085400     2.8371618880     2.0000000000
NI      6.1430042700     4.9656717300     2.0000000000
NI     13.5149042700     4.9656717300     2.0000000000
NI      6.1433728650     0.7092904720     2.0000000000
NI     13.5152728650     0.7092904720     2.0000000000
NI      7.3719000000     2.8371618880     2.0000000000
NI     14.7438000000     2.8371618880     2.0000000000
NI      8.6007957300     4.9656717300     2.0000000000
NI     15.9726957300     4.9656717300     2.0000000000
NI      0.0039030198    -0.0021375771     4.0317996171
NI      7.3753152990    -0.0021158304     4.0308264872
NI      1.2321974032     2.1259544151     4.0318144915
NI      8.6043276029     2.1258880349     4.0299881148
NI      2.4609228353     4.2540618819     4.0318551168
NI      9.8330716271     4.2539631108     4.0314292253
NI      2.4605001593    -0.0018275800     4.0311395670
NI      9.8329938678    -0.0028054166     4.0307455036
NI      3.6894346099     2.1257907217     4.0309122151
NI     11.0612903432     2.1262857638     4.0325118090
NI      4.9183193607     4.2537173139     4.0312312678
NI     12.2902074212     4.2544719040     4.0316430293
NI      4.9185419392    -0.0024806826     4.0307177567
NI     12.2909341272    -0.0026473999     4.0314229001
NI      6.1473593656     2.1257782986     4.0319824358
NI     13.5195635789     2.1258180281     4.0313513676
NI      7.3759837808     4.2538936257     4.0313002709
NI     14.7478828020     4.2539379256     4.0323404971
NI      1.2243402952     0.7117904649     6.0696458589
NI      8.5958407269     0.7120680859     6.0692630306
NI      2.4535608838     2.8391091951     6.0714717889
NI      9.8253053930     2.8376686391     6.0727633873
NI      3.6830973996     4.9671791382     6.0720129415
NI     11.0539923754     4.9688346931     6.0712660180
NI      3.6819751853     0.7121289742     6.0704813554
NI     11.0545527479     0.7136159832     6.0703672962
NI      4.9123432578     2.8382513245     6.0730031845
NI     12.2811150768     2.8377414819     6.0701234795
NI      6.1384355908     4.9675784123     6.0695527119
NI     13.5121529455     4.9671724788     6.0709968515
NI      6.1406840470     0.7148003210     6.0732243127
NI     13.5103614719     0.7120922702     6.0694581131
NI      7.3682242602     2.8386058931     6.0692299216
NI     14.7394793229     2.8399330153     6.0701675900
NI      8.5962360911     4.9667486591     6.0726831426
NI     15.9678986048     4.9680611280     6.0702048568
NI      0.0012482149    -0.0006401595     8.0948772283
NI      7.3756705723    -0.0062781441     8.0936699923
NI      1.2294042804     2.1271860928     8.0933645159
NI      8.5997607394     2.1287595531     8.0828790057
NI      2.4575095374     4.2564624550     8.0935306523
NI      9.8251424945     4.2625860992     8.0874769669
NI      2.4582348551    -0.0008464215     8.0941508976
NI      9.8269451018    -0.0095794799     8.0868740613
NI      3.6817033535     2.1277204541     8.0914566131
NI     11.0600072339     2.1263899535     8.1054576825
NI      4.9116978794     4.2602192817     8.0909584481
NI     12.2932219227     4.2638793458     8.0865008736
NI      4.9122847030    -0.0091814405     8.0897705352
NI     12.2935737299    -0.0084243852     8.0855828180
NI      6.1530432048     2.1392933738     8.1823303093
NI     13.5263956004     2.1262489633     8.0850105958
NI      7.3784215854     4.2614895627     8.0907798432
NI     14.7455090759     4.2552481082     8.0958064200
O       6.1724924214     2.1454940059    10.1588573296
H       7.7655953199     2.8861816514    11.3047899876
H       6.2850792340     3.9052122124    11.3056017829
C       6.6385898305     2.8567802010    11.2897609118
O       6.6674779635     0.7909485164    12.5822535038
H       7.6406401092     0.8570651662    12.5786735739
C       6.1926825203     2.1352956759    12.6016596228
H       5.0809045878     2.0654264522    12.6033979905
C       6.6614075059     2.8459131002    13.8738076657
H       6.3168589042     3.8917296809    13.8974573842
H       7.7730288891     2.8354762177    13.8958800011
O       6.1728290925     2.1419118294    15.0244411317
H       6.5210022533     2.6219656300    15.7935139959
O      11.0820050651     2.1335629487    10.0928161804
H      11.7995836809     1.7207083714    10.6037015816
H      10.3669541729     2.5491146110    10.6053352117
88
Step 3 | ATOMIC_POSITIONS (angstrom) | Cartesian Angstrom
NI      1.2285271350     0.7092904720     2.0000000000
NI      8.6004271350     0.7092904720     2.0000000000
NI      2.4570542700     2.8371618880     2.0000000000
NI      9.8289542700     2.8371618880     2.0000000000
NI      3.6859500000     4.9656717300     2.0000000000
NI     11.0578500000     4.9656717300     2.0000000000
NI      3.6855814050     0.7092904720     2.0000000000
NI     11.0574814050     0.7092904720     2.0000000000
NI      4.9141085400     2.8371618880     2.0000000000
NI     12.2860085400     2.8371618880     2.0000000000
NI      6.1430042700     4.9656717300     2.0000000000
NI     13.5149042700     4.9656717300     2.0000000000
NI      6.1433728650     0.7092904720     2.0000000000
NI     13.5152728650     0.7092904720     2.0000000000
NI      7.3719000000     2.8371618880     2.0000000000
NI     14.7438000000     2.8371618880     2.0000000000
NI      8.6007957300     4.9656717300     2.0000000000
NI     15.9726957300     4.9656717300     2.0000000000
NI      0.0070522343    -0.0040121759     4.0304559264
NI      7.3779030154    -0.0038418328     4.0288825515
NI      1.2351514809     2.1242991668     4.0305014680
NI      8.6074644979     2.1241884989     4.0272645902
NI      2.4639053615     4.2523365870     4.0306244654
NI      9.8362535595     4.2520935428     4.0299883578
NI      2.4633830839    -0.0034012660     4.0293658073
NI      9.8361223047    -0.0049884313     4.0286135530
NI      3.6926304451     2.1240728993     4.0290468921
NI     11.0640630335     2.1248121903     4.0316709445
NI      4.9214402903     4.2515599741     4.0295639911
NI     12.2931662884     4.2530206654     4.0302275308
NI      4.9219125461    -0.0044436974     4.0288555435
NI     12.2942497725    -0.0047368646     4.0297082179
NI      6.1505691632     2.1238833058     4.0312854462
NI     13.5228306308     2.1240414375     4.0295319843
NI      7.3793344380     4.2520297707     4.0296462912
NI     14.7510096014     4.2521083339     4.0313394768
NI      1.2208988518     0.7138038223     6.0696144379
NI      8.5920976006     0.7141218657     6.0682882374
NI      2.4508411390     2.8407000229     6.0725373590
NI      9.8226950432     2.8383657979     6.0750545943
NI      3.6806731999     4.9684608296     6.0734421993
NI     11.0507191180     4.9713466887     6.0717197467
NI      3.6790908677     0.7143410730     6.0708550146
NI     11.0520126403     0.7171642473     6.0711038095
NI      4.9121306802     2.8384483151     6.0782065130
NI     12.2769393825     2.8382886575     6.0706742181
NI      6.1347565128     4.9692129288     6.0692472541
NI     13.5100641471     4.9683416854     6.0711964702
NI      6.1385539885     0.7204432708     6.0781922658
NI     13.5066460987     0.7141548736     6.0688799678
NI      7.3638620139     2.8388730888     6.0704359316
NI     14.7362425283     2.8423021241     6.0701054766
NI      8.5926589885     4.9681131495     6.0741370089
NI     15.9641146229     4.9697299182     6.0700870494
NI      0.0023680502    -0.0011637819     8.0894391185
NI      7.3783395948    -0.0102171986     8.0874375925
NI      1.2303572660     2.1264876490     8.0868135232
NI      8.5996422035     2.1289622105     8.0682333832
NI      2.4578039858     4.2562665784     8.0872413057
NI      9.8229134222     4.2668423480     8.0764949319
NI      2.4590476690    -0.0013504441     8.0880977544
NI      9.8260159466    -0.0158236871     8.0753169591
NI      3.6794673838     2.1272574025     8.0834254767
NI     11.0620466605     2.1250614732     8.1070567572
NI      4.9100000151     4.2632463410     8.0825276662
NI     12.2979297015     4.2683354744     8.0745698783
NI      4.9110112973    -0.0144476643     8.0789184756
NI     12.2986298806    -0.0143556443     8.0732201751
NI      6.1597518665     2.1481929659     8.2455474711
NI     13.5342540048     2.1248129636     8.0723930524
NI      7.3825944171     4.2648947585     8.0812548396
NI     14.7469164774     4.2543498040     8.0914638251
O       6.1638339274     2.1404814395    10.1334826351
H       7.7637631934     2.8895718750    11.3066012497
H       6.2859871118     3.9107857530    11.3057559167
C       6.6349271737     2.8542979556    11.2646777712
O       6.6645702249     0.7807959848    12.5861931261
H       7.6405154513     0.8522710691    12.5780601646
C       6.1970763002     2.1288069273    12.5926183336
H       5.0898741462     2.0642937147    12.6032453970
C       6.6618340141     2.8478234564    13.8732091689
H       6.3178669733     3.8987886989    13.8899951454
H       7.7760865455     2.8411249099    13.8875037264
O       6.1680273908     2.1408138680    15.0266916839
H       6.5172487260     2.6180123745    15.7953591406
O      11.0806247431     2.1333028372    10.0929983532
H      11.7912431404     1.7258688939    10.6150000950
H      10.3757413345     2.5454127461    10.6176693770
