88
Step 1 | ATOMIC_POSITIONS (angstrom) | Cartesian Angstrom
NI      1.2285271350     0.7092904720     2.0000000000
NI      8.6004271350     0.7092904720     2.0000000000
NI      2.4570542700     2.8371618880     2.0000000000
NI      9.8289542700     2.8371618880     2.0000000000
NI      3.6859500000     4.9656717300     2.0000000000
NI     11.0578500000     4.9656717300     2.0000000000
NI      3.6855814050     0.7092904720     2.0000000000
NI     11.0574814050     0.7092904720     2.0000000000
NI      4.9141085400     2.8371618880     2.0000000000
NI     12.2860085400     2.8371618880     2.0000000000
NI      6.1430042700     4.9656717300     2.0000000000
NI     13.5149042700     4.9656717300     2.0000000000
NI      6.1433728650     0.7092904720     2.0000000000
NI     13.5152728650     0.7092904720     2.0000000000
NI      7.3719000000     2.8371618880     2.0000000000
NI     14.7438000000     2.8371618880     2.0000000000
NI      8.6007957300     4.9656717300     2.0000000000
NI     15.9726957300     4.9656717300     2.0000000000
NI      0.0461050422    -0.0301776287     3.9976495748
NI      7.4175857143    -0.0177455570     3.9972837315
NI      1.2739600338     2.0984154950     3.9920035296
NI      8.6421171583     2.1129197444     4.0060850710
NI      2.5042409685     4.2316975414     3.9976646061
NI      9.8701441913     4.2309723592     4.0019736496
NI      2.5028248047    -0.0309052741     4.0065052621
NI      9.8840273112    -0.0172560543     3.9975814529
NI      3.7320451017     2.0921372149     4.0058437661
NI     11.0981630082     2.1054885408     4.0073417922
NI      4.9526256086     4.2211575925     4.0114236332
NI     12.3355018711     4.2291551175     3.9921027759
NI      4.9585157377    -0.0276945091     4.0092014006
NI     12.3241265311    -0.0209604136     4.0027436241
NI      6.1904288399     2.1034151070     4.0102585680
NI     13.5601919938     2.1023465363     3.9950712873
NI      7.4145478898     4.2288020464     3.9977377912
NI     14.7975248003     4.2281177489     3.9851894435
NI      1.2255721054     0.7090775652     6.0131409350
NI      8.6009000053     0.7046549770     6.0140993944
NI      2.4523340213     2.8375557655     5.9925893756
NI      9.8480203282     2.8308658990     6.0324711855
NI      3.6809070152     4.9626083088     6.0133895298
NI     11.0597217776     4.9814099658     5.9898574122
NI      3.6891560794     0.7030811130     6.0483141192
NI     11.0677109164     0.7384804833     6.0621349357
NI      4.9208948238     2.8307439910     6.0413413525
NI     12.2731948855     2.8255803844     6.0168572820
NI      6.1312532567     4.9667707769     6.0115817770
NI     13.5314137251     4.9733893610     5.9783091586
NI      6.1301518982     0.7148610413     6.0147219637
NI     13.5147254256     0.7100204267     5.9989071008
NI      7.3670735429     2.8270212571     6.0358662958
NI     14.7431979767     2.8431455727     5.9938717907
NI      8.5984974153     4.9712410229     6.0103673023
NI     15.9695945646     4.9730415040     6.0033698386
NI      0.0160276932    -0.0171116396     8.0181085134
NI      7.4179653940    -0.0188576701     8.0294883843
NI      1.2480513823     2.1172159347     7.9990067166
NI      8.6573163363     2.1219454163     7.9897169774
NI      2.4756479790     4.2408704972     8.0089580699
NI      9.8457763104     4.2232251699     7.9503291558
NI      2.4526229054    -0.0166354180     8.0338994479
NI      9.8643244486    -0.0338582202     8.0017385848
NI      3.6605122277     2.1364671670     7.9966426392
NI     11.0996081041     2.1221801504     8.2265985224
NI      4.9232301392     4.2502767075     8.0217704473
NI     12.3409338514     4.2416891814     7.9297779594
NI      4.8961529819    -0.0506206311     8.1059631632
NI     12.3370868523    -0.0320522268     8.0089675232
NI      6.1739040712     2.1532494878     8.1232330037
NI     13.5654843185     2.1035338121     7.9803188487
NI      7.3824114376     4.2465070112     8.0054165222
NI     14.7673055238     4.2469783910     7.9976667005
O       6.1727915846     0.6520870279     9.3914997420
H       7.1378039240     1.1252001650    11.1500204195
H       5.3572578690     0.8717611198    11.2686331610
C       6.2923599170     0.4977657522    10.8210042344
O       7.8329648056    -1.4412988437    10.9093396690
H       8.1101917473    -1.0797582674    10.0177355172
C       6.5116896154    -0.9585429292    11.2177731372
H       5.7545139041    -1.5714476364    10.6827442412
C       6.3340570100    -1.1032654986    12.7263507445
H       5.2985644857    -0.8344765356    13.0000424462
H       7.0127322215    -0.3928235230    13.2309212549
O       6.6009697467    -2.4508997903    13.1374583822
H       7.3036903284    -2.4096172863    13.8095569947
O      11.1468753507     2.3094821091    10.2436440627
H      11.8584212834     1.7210870354    10.5569391359
H      11.3779168905     3.2396934381    10.5411779121
88
Step 2 | ATOMIC_POSITIONS (angstrom) | Cartesian Angstrom
NI      1.2285271350     0.7092904720     2.0000000000
NI      8.6004271350     0.7092904720     2.0000000000
NI      2.4570542700     2.8371618880     2.0000000000
NI      9.8289542700     2.8371618880     2.0000000000
NI      3.6859500000     4.9656717300     2.0000000000
NI     11.0578500000     4.9656717300     2.0000000000
NI      3.6855814050     0.7092904720     2.0000000000
NI     11.0574814050     0.7092904720     2.0000000000
NI      4.9141085400     2.8371618880     2.0000000000
NI     12.2860085400     2.8371618880     2.0000000000
NI      6.1430042700     4.9656717300     2.0000000000
NI     13.5149042700     4.9656717300     2.0000000000
NI      6.1433728650     0.7092904720     2.0000000000
NI     13.5152728650     0.7092904720     2.0000000000
NI      7.3719000000     2.8371618880     2.0000000000
NI     14.7438000000     2.8371618880     2.0000000000
NI      8.6007957300     4.9656717300     2.0000000000
NI     15.9726957300     4.9656717300     2.0000000000
NI      0.0449896434    -0.0296464127     3.9962235707
NI      7.4144763731    -0.0167076683     3.9973336285
NI      1.2740916463     2.0997233804     3.9932673266
NI      8.6421040740     2.1129873895     4.0039113651
NI      2.5030494354     4.2315065776     3.9975560000
NI      9.8706510254     4.2320148954     4.0038775231
NI      2.5029164042    -0.0290886405     4.0059014259
NI      9.8816460405    -0.0168982194     3.9960567139
NI      3.7337589873     2.0947370993     4.0065766647
NI     11.0981856475     2.1058591479     4.0070233821
NI      4.9534733072     4.2228347280     4.0108389704
NI     12.3332600999     4.2298630742     3.9926433538
NI      4.9588686749    -0.0263184791     4.0086572577
NI     12.3238708744    -0.0215375797     4.0012019004
NI      6.1906765408     2.1042950551     4.0108648583
NI     13.5613883937     2.1026000652     3.9963035454
NI      7.4156743263     4.2307352905     3.9963363221
NI     14.7944605508     4.2270957444     3.9852562793
NI      1.2245829004     0.7110275993     6.0138165145
NI      8.5991015265     0.7069575142     6.0139821519
NI      2.4518248867     2.8391224208     5.9981159151
NI      9.8483941317     2.8330704777     6.0324130871
NI      3.6813302384     4.9647582810     6.0150776890
NI     11.0577636017     4.9835882217     5.9937861412
NI      3.6874962213     0.7043664695     6.0481095027
NI     11.0656981489     0.7405493782     6.0610890357
NI      4.9184669357     2.8345141845     6.0436941731
NI     12.2735439650     2.8280166694     6.0156684110
NI      6.1333840901     4.9677802825     6.0115450058
NI     13.5293761678     4.9738579328     5.9808804830
NI      6.1302829740     0.7147863271     6.0151210288
NI     13.5154823796     0.7097051921     6.0000862140
NI      7.3679459068     2.8296750489     6.0365883717
NI     14.7422073027     2.8459666701     5.9987902270
NI      8.5992457154     4.9715572731     6.0123929585
NI     15.9674891381     4.9745358216     6.0033039142
NI      0.0136415991    -0.0142417329     8.0199997401
NI      7.4253502776    -0.0198263706     8.0309835583
NI      1.2466112717     2.1174291142     8.0017110117
NI      8.6571032095     2.1250477558     7.9876058321
NI      2.4759292251     4.2434007788     8.0092716107
NI      9.8496412066     4.2241459002     7.9525503078
NI      2.4518786134    -0.0147690749     8.0328728357
NI      9.8663704808    -0.0307514760     7.9960485092
NI      3.6610432374     2.1353773412     7.9976560571
NI     11.1030217369     2.1213183436     8.2294236461
NI      4.9238066402     4.2539303313     8.0234038786
NI     12.3405204571     4.2426107831     7.9296223903
NI      4.8997430570    -0.0475132616     8.1031819369
NI     12.3366991153    -0.0296745004     8.0064818269
NI      6.1742508134     2.1543167046     8.1224367799
NI     13.5663687598     2.1051475543     7.9815365149
NI      7.3799013982     4.2487013615     8.0062610479
NI     14.7683800861     4.2446904188     8.0000158958
O       6.1759591366     0.6522463134     9.3884726554
H       7.1358964299     1.1338800024    11.1467560918
H       5.3518951711     0.8802268838    11.2626010686
C       6.2898440037     0.5059318238    10.8203773892
O       7.8289118496    -1.4353831600    10.9141043789
H       8.1100259064    -1.0779540556    10.0251350857
C       6.5078329524    -0.9487831068    11.2244868611
H       5.7558982892    -1.5676382746    10.6920172685
C       6.3318204228    -1.0880107941    12.7341625077
H       5.2993594042    -0.8097426056    13.0037975193
H       7.0167464126    -0.3816675160    13.2361352262
O       6.5884914528    -2.4342271223    13.1530200674
H       7.2944175466    -2.3970433985    13.8153471616
O      11.1494810928     2.3073627943    10.2479135897
H      11.8637212546     1.7222458890    10.5631691670
H      11.3816357215     3.2395074971    10.5416331590
88
Step 3 | ATOMIC_POSITIONS (angstrom) | Cartesian Angstrom
NI      1.2285271350     0.7092904720     2.0000000000
NI      8.6004271350     0.7092904720     2.0000000000
NI      2.4570542700     2.8371618880     2.0000000000
NI      9.8289542700     2.8371618880     2.0000000000
NI      3.6859500000     4.9656717300     2.0000000000
NI     11.0578500000     4.9656717300     2.0000000000
NI      3.6855814050     0.7092904720     2.0000000000
NI     11.0574814050     0.7092904720     2.0000000000
NI      4.9141085400     2.8371618880     2.0000000000
NI     12.2860085400     2.8371618880     2.0000000000
NI      6.1430042700     4.9656717300     2.0000000000
NI     13.5149042700     4.9656717300     2.0000000000
NI      6.1433728650     0.7092904720     2.0000000000
NI     13.5152728650     0.7092904720     2.0000000000
NI      7.3719000000     2.8371618880     2.0000000000
NI     14.7438000000     2.8371618880     2.0000000000
NI      8.6007957300     4.9656717300     2.0000000000
NI     15.9726957300     4.9656717300     2.0000000000
NI      0.0445109584    -0.0293734779     3.9958952673
NI      7.4146708013    -0.0166722846     3.9971931851
NI      1.2740593815     2.0987106039     3.9938333449
NI      8.6425237460     2.1126132031     4.0032390382
NI      2.5032212950     4.2311989842     3.9967621826
NI      9.8712263829     4.2324624447     4.0030821626
NI      2.5037855425    -0.0278428506     4.0044196589
NI      9.8799200122    -0.0158090042     3.9941172187
NI      3.7354166430     2.0964617125     4.0070073335
NI     11.0977555887     2.1061348987     4.0078010163
NI      4.9551076103     4.2246457351     4.0084510848
NI     12.3321202488     4.2305743033     3.9910832729
NI      4.9597998733    -0.0254728841     4.0089194062
NI     12.3242671889    -0.0209851486     4.0005190762
NI      6.1905470414     2.1051788626     4.0115151503
NI     13.5605658756     2.1032087602     3.9958462971
NI      7.4152229644     4.2320407080     3.9943804244
NI     14.7933208477     4.2275254955     3.9851696833
NI      1.2249608898     0.7110675162     6.0134169811
NI      8.5980273221     0.7080275111     6.0135249753
NI      2.4524405164     2.8393974347     5.9990294310
NI      9.8480694491     2.8334294693     6.0322150662
NI      3.6819937860     4.9656552229     6.0160799303
NI     11.0570590141     4.9852018911     5.9952437295
NI      3.6868941138     0.7037692209     6.0468948039
NI     11.0639457065     0.7410810707     6.0595283173
NI      4.9179310157     2.8355292639     6.0455092310
NI     12.2738635642     2.8286984729     6.0148576082
NI      6.1350101393     4.9680385410     6.0111496771
NI     13.5276202597     4.9743544192     5.9802678847
NI      6.1303895791     0.7162067612     6.0153481189
NI     13.5169659082     0.7093710440     6.0004302469
NI      7.3684045675     2.8310679712     6.0367864970
NI     14.7400988108     2.8472128588     5.9992362520
NI      8.5996093474     4.9724076870     6.0146536513
NI     15.9669057319     4.9750986009     6.0012473267
NI      0.0134994291    -0.0129440775     8.0201367246
NI      7.4279716423    -0.0198116347     8.0324751770
NI      1.2453934318     2.1170084222     8.0017943633
NI      8.6571764815     2.1259783730     7.9864477499
NI      2.4758198419     4.2434866823     8.0078370703
NI      9.8515018596     4.2249742409     7.9514238558
NI      2.4526414434    -0.0139007470     8.0319198380
NI      9.8672485617    -0.0289217522     7.9934909220
NI      3.6612623235     2.1350454093     7.9976880222
NI     11.1063355253     2.1202321187     8.2292825096
NI      4.9242996962     4.2551219693     8.0253701835
NI     12.3409604612     4.2448521060     7.9290724250
NI      4.8998058398    -0.0450200904     8.1031247351
NI     12.3350866336    -0.0290688436     8.0052133346
NI      6.1738842438     2.1545699497     8.1217879071
NI     13.5660435408     2.1062805130     7.9818618349
NI      7.3783408907     4.2493349818     8.0066044580
NI     14.7691074115     4.2436679835     7.9990606175
O       6.1793513559     0.6517666492     9.3886904126
H       7.1442445461     1.1299180852    11.1451636677
H       5.3588891815     0.8861024543    11.2656135541
C       6.2934609214     0.5075291477    10.8202500653
O       7.8239944435    -1.4435615406    10.9192730912
H       8.1133413284    -1.0863008941    10.0339172564
C       6.5041277707    -0.9477765167    11.2286144388
H       5.7524962521    -1.5675404451    10.6965312004
C       6.3263133785    -1.0852247525    12.7390305533
H       5.2954057524    -0.7986281590    13.0053028538
H       7.0175437290    -0.3866904176    13.2395766606
O       6.5682574855    -2.4324049466    13.1622351054
H       7.2918907295    -2.4036003592    13.8097948042
O      11.1513413124     2.3071657128    10.2484401291
H      11.8673601950     1.7248123065    10.5663086185
H      11.3823919076     3.2425745267    10.5398126511
88
Step 4 | ATOMIC_POSITIONS (angstrom) | Cartesian Angstrom
NI      1.2285271350     0.7092904720     2.0000000000
NI      8.6004271350     0.7092904720     2.0000000000
NI      2.4570542700     2.8371618880     2.0000000000
NI      9.8289542700     2.8371618880     2.0000000000
NI      3.6859500000     4.9656717300     2.0000000000
NI     11.0578500000     4.9656717300     2.0000000000
NI      3.6855814050     0.7092904720     2.0000000000
NI     11.0574814050     0.7092904720     2.0000000000
NI      4.9141085400     2.8371618880     2.0000000000
NI     12.2860085400     2.8371618880     2.0000000000
NI      6.1430042700     4.9656717300     2.0000000000
NI     13.5149042700     4.9656717300     2.0000000000
NI      6.1433728650     0.7092904720     2.0000000000
NI     13.5152728650     0.7092904720     2.0000000000
NI      7.3719000000     2.8371618880     2.0000000000
NI     14.7438000000     2.8371618880     2.0000000000
NI      8.6007957300     4.9656717300     2.0000000000
NI     15.9726957300     4.9656717300     2.0000000000
NI      0.0442181229    -0.0295335411     3.9960372671
NI      7.4156366578    -0.0179989980     3.9957436183
NI      1.2744045104     2.0968195945     3.9961255505
NI      8.6432376849     2.1113049404     4.0017549144
NI      2.5034036075     4.2308691336     3.9967078659
NI      9.8714009775     4.2316566046     4.0009174644
NI      2.5044679501    -0.0256179544     4.0021823008
NI      9.8771740901    -0.0157114950     3.9913486094
NI      3.7373597424     2.0995762601     4.0080931227
NI     11.0970850216     2.1049679199     4.0082705329
NI      4.9576594857     4.2277893121     4.0042695949
NI     12.3308574136     4.2304749954     3.9888592819
NI      4.9600187647    -0.0250821440     4.0090052990
NI     12.3250293869    -0.0208953941     4.0000774056
NI      6.1896702721     2.1069883889     4.0123667085
NI     13.5591202564     2.1030995925     3.9952590040
NI      7.4135961262     4.2333436893     3.9907828746
NI     14.7919230283     4.2285379464     3.9865890104
NI      1.2258233101     0.7101866227     6.0125285651
NI      8.5970964130     0.7081868212     6.0093939407
NI      2.4539714588     2.8395228122     6.0003735399
NI      9.8482127952     2.8314392531     6.0306805049
NI      3.6834984563     4.9662559145     6.0180100200
NI     11.0566999284     4.9854070812     5.9947219223
NI      3.6869675470     0.7024773340     6.0432194968
NI     11.0624618381     0.7403968303     6.0551805305
NI      4.9189356077     2.8355614312     6.0484403220
NI     12.2749645018     2.8267373114     6.0127872635
NI      6.1374209200     4.9677561679     6.0101095513
NI     13.5257413776     4.9736074619     5.9791982455
NI      6.1305875888     0.7188316487     6.0128991606
NI     13.5191914495     0.7074558595     6.0004973557
NI      7.3690280574     2.8314953358     6.0356031028
NI     14.7368882434     2.8473982709     5.9996659419
NI      8.6001346192     4.9732267488     6.0180879494
NI     15.9662131618     4.9744383616     5.9993129487
NI      0.0148489998    -0.0119930031     8.0208424306
NI      7.4315315690    -0.0209181674     8.0286486552
NI      1.2454742982     2.1144482878     8.0031205588
NI      8.6580630591     2.1250992073     7.9836484800
NI      2.4772413845     4.2419737463     8.0072590323
NI      9.8535501190     4.2236098597     7.9483890258
NI      2.4558842329    -0.0138573649     8.0291951979
NI      9.8696712136    -0.0287254349     7.9889230194
NI      3.6624044602     2.1341841860     7.9974715927
NI     11.1108678943     2.1173001635     8.2274900931
NI      4.9265712155     4.2546816807     8.0298882917
NI     12.3431153961     4.2451581832     7.9281864168
NI      4.9005585364    -0.0440867594     8.1009541205
NI     12.3325272877    -0.0300298382     8.0040337550
NI      6.1743434452     2.1524649037     8.1183712050
NI     13.5655824998     2.1061746464     7.9829844718
NI      7.3772075754     4.2484079385     8.0068691912
NI     14.7718559154     4.2414247013     8.0004152401
O       6.1826396254     0.6501136551     9.3873654836
H       7.1560161115     1.1230567292    11.1377744540
H       5.3702557392     0.8963648497    11.2693879645
C       6.2986029046     0.5089060423    10.8170437503
O       7.8173687882    -1.4561713802    10.9198130162
H       8.1153932793    -1.0913553646    10.0366795562
C       6.5001522951    -0.9472536373    11.2301660416
H       5.7450304239    -1.5655104685    10.6995105665
C       6.3210140207    -1.0855995455    12.7400886907
H       5.2918686130    -0.7930709733    13.0031219341
H       7.0182243194    -0.3964338940    13.2439249521
O       6.5504870307    -2.4337745941    13.1661420576
H       7.2837107844    -2.4198913231    13.8011822188
O      11.1504825961     2.3041309197    10.2475179984
H      11.8677600419     1.7266410649    10.5683596882
H      11.3758774862     3.2445324894    10.5364186395
88
Step 5 | ATOMIC_POSITIONS (angstrom) | Cartesian Angstrom
NI      1.2285271350     0.7092904720     2.0000000000
NI      8.6004271350     0.7092904720     2.0000000000
NI      2.4570542700     2.8371618880     2.0000000000
NI      9.8289542700     2.8371618880     2.0000000000
NI      3.6859500000     4.9656717300     2.0000000000
NI     11.0578500000     4.9656717300     2.0000000000
NI      3.6855814050     0.7092904720     2.0000000000
NI     11.0574814050     0.7092904720     2.0000000000
NI      4.9141085400     2.8371618880     2.0000000000
NI     12.2860085400     2.8371618880     2.0000000000
NI      6.1430042700     4.9656717300     2.0000000000
NI     13.5149042700     4.9656717300     2.0000000000
NI      6.1433728650     0.7092904720     2.0000000000
NI     13.5152728650     0.7092904720     2.0000000000
NI      7.3719000000     2.8371618880     2.0000000000
NI     14.7438000000     2.8371618880     2.0000000000
NI      8.6007957300     4.9656717300     2.0000000000
NI     15.9726957300     4.9656717300     2.0000000000
NI      0.0442094696    -0.0287738203     3.9971498900
NI      7.4161167008    -0.0172096466     3.9959861089
NI      1.2743380302     2.0970586850     3.9977511309
NI      8.6435500731     2.1127484782     4.0018065425
NI      2.5031066462     4.2318754397     3.9977281453
NI      9.8708678807     4.2326771122     4.0002173936
NI      2.5041867786    -0.0235508616     4.0023302595
NI      9.8762088564    -0.0145460161     3.9907710256
NI      3.7368190544     2.1017970591     4.0093695712
NI     11.0965784783     2.1061824900     4.0093320512
NI      4.9579956946     4.2299450702     4.0030831386
NI     12.3307220606     4.2318196604     3.9885925705
NI      4.9593382701    -0.0239694063     4.0100107065
NI     12.3248495305    -0.0195480538     3.9997786120
NI      6.1886684240     2.1093284766     4.0132063072
NI     13.5577698061     2.1039259633     3.9950112998
NI      7.4121376851     4.2346843055     3.9903296200
NI     14.7916473609     4.2303033355     3.9883302897
NI      1.2258316640     0.7113570199     6.0125666914
NI      8.5964897210     0.7104630646     6.0070082306
NI      2.4545904960     2.8412834324     6.0014206120
NI      9.8490811979     2.8321530277     6.0316043156
NI      3.6839063114     4.9678148464     6.0193976068
NI     11.0567137386     4.9874217256     5.9940419227
NI      3.6873682385     0.7035678670     6.0427100309
NI     11.0626075451     0.7427008436     6.0527619278
NI      4.9197029413     2.8361853441     6.0506185789
NI     12.2758068253     2.8278997035     6.0126169774
NI      6.1370567925     4.9692810770     6.0103030632
NI     13.5253401038     4.9761370519     5.9788116210
NI      6.1299143400     0.7224142659     6.0123233856
NI     13.5191289947     0.7088578903     6.0000203408
NI      7.3682178571     2.8329961340     6.0352603171
NI     14.7356643301     2.8488161869     5.9992501529
NI      8.5998991064     4.9752160767     6.0203798830
NI     15.9662351546     4.9758648362     5.9990798381
NI      0.0151137363    -0.0090656414     8.0213028165
NI      7.4322383125    -0.0187528413     8.0287025083
NI      1.2458657644     2.1153540365     8.0045096742
NI      8.6587089901     2.1273595730     7.9831067999
NI      2.4775564347     4.2433383415     8.0079698017
NI      9.8544189207     4.2253967943     7.9488158704
NI      2.4572367448    -0.0116530009     8.0290283707
NI      9.8710573277    -0.0264209021     7.9873385261
NI      3.6619533922     2.1363859401     8.0000146873
NI     11.1127815374     2.1197603989     8.2292040707
NI      4.9268358148     4.2558441609     8.0330275269
NI     12.3443433834     4.2474874549     7.9299317551
NI      4.9005524981    -0.0424221462     8.1013962539
NI     12.3307764923    -0.0281192603     8.0031879413
NI      6.1744379490     2.1526208114     8.1180694694
NI     13.5649648408     2.1087572394     7.9835843791
NI      7.3767356154     4.2502205532     8.0073989974
NI     14.7728012005     4.2436124798     8.0018345519
O       6.1839118213     0.6501659130     9.3883468236
H       7.1553072416     1.1224547556    11.1363334188
H       5.3733833699     0.9017026882    11.2694193107
C       6.2984453503     0.5100742961    10.8174934862
O       7.8144804914    -1.4541049022    10.9289196327
H       8.1166117041    -1.0956141983    10.0477202212
C       6.4978759047    -0.9444069649    11.2367352175
H       5.7411845801    -1.5636089609    10.7104542011
C       6.3164076263    -1.0774763249    12.7487467803
H       5.2890713129    -0.7741562906    13.0104008770
H       7.0200963583    -0.3944834109    13.2512919158
O       6.5303975929    -2.4270648915    13.1816298116
H       7.2806276196    -2.4206410863    13.8015591114
O      11.1556207427     2.3048102018    10.2521985561
H      11.8730764261     1.7285012869    10.5730113808
H      11.3775740736     3.2460817302    10.5425153945
88
Step 6 | ATOMIC_POSITIONS (angstrom) | Cartesian Angstrom
NI      1.2285271350     0.7092904720     2.0000000000
NI      8.6004271350     0.7092904720     2.0000000000
NI      2.4570542700     2.8371618880     2.0000000000
NI      9.8289542700     2.8371618880     2.0000000000
NI      3.6859500000     4.9656717300     2.0000000000
NI     11.0578500000     4.9656717300     2.0000000000
NI      3.6855814050     0.7092904720     2.0000000000
NI     11.0574814050     0.7092904720     2.0000000000
NI      4.9141085400     2.8371618880     2.0000000000
NI     12.2860085400     2.8371618880     2.0000000000
NI      6.1430042700     4.9656717300     2.0000000000
NI     13.5149042700     4.9656717300     2.0000000000
NI      6.1433728650     0.7092904720     2.0000000000
NI     13.5152728650     0.7092904720     2.0000000000
NI      7.3719000000     2.8371618880     2.0000000000
NI     14.7438000000     2.8371618880     2.0000000000
NI      8.6007957300     4.9656717300     2.0000000000
NI     15.9726957300     4.9656717300     2.0000000000
NI      0.0447470720    -0.0278811251     3.9977543511
NI      7.4162788920    -0.0168454451     3.9960023310
NI      1.2746225353     2.0982267028     4.0000305755
NI      8.6436180037     2.1141526310     4.0019782335
NI      2.5028907837     4.2332450331     3.9995631417
NI      9.8700754430     4.2330451475     3.9997631806
NI      2.5039582562    -0.0214011847     4.0032238736
NI      9.8762642948    -0.0144811991     3.9917217118
NI      3.7358089419     2.1041573866     4.0110295147
NI     11.0968818480     2.1065931447     4.0094892801
NI      4.9585575243     4.2318377903     4.0023741518
NI     12.3312044179     4.2325131637     3.9890229813
NI      4.9582608012    -0.0230098167     4.0110030862
NI     12.3247452286    -0.0189603710     4.0000050589
NI      6.1881412566     2.1114534774     4.0141498767
NI     13.5574423150     2.1041119242     3.9947284763
NI      7.4116580755     4.2354778935     3.9910743094
NI     14.7918169700     4.2315822561     3.9913635469
NI      1.2261325664     0.7124526616     6.0125683329
NI      8.5970705676     0.7119515143     6.0041735860
NI      2.4555809411     2.8430867621     6.0023332062
NI      9.8508416936     2.8321536982     6.0315415853
NI      3.6855897608     4.9688003356     6.0195081829
NI     11.0580229727     4.9880674129     5.9920494776
NI      3.6887482619     0.7048396510     6.0423165673
NI     11.0646348237     0.7441517374     6.0498886996
NI      4.9220961460     2.8367444554     6.0514273878
NI     12.2770874365     2.8279248066     6.0122785831
NI      6.1369697469     4.9704018866     6.0108573447
NI     13.5262149362     4.9780777950     5.9800650373
NI      6.1300020103     0.7251450053     6.0113654819
NI     13.5191218982     0.7100088319     5.9995292956
NI      7.3687209798     2.8336268037     6.0345028323
NI     14.7359464724     2.8496477437     5.9997027766
NI      8.5999065887     4.9766067905     6.0216589964
NI     15.9670015810     4.9770039904     6.0006886349
NI      0.0161712647    -0.0067623106     8.0212716178
NI      7.4346188406    -0.0174088841     8.0274526241
NI      1.2489193002     2.1160540860     8.0057866584
NI      8.6606611220     2.1294098748     7.9824208842
NI      2.4797256589     4.2446894009     8.0088813452
NI      9.8556151653     4.2267120496     7.9483845498
NI      2.4596270323    -0.0094732709     8.0289125721
NI      9.8747311986    -0.0251461959     7.9865674003
NI      3.6631315339     2.1383680325     8.0018231777
NI     11.1144004623     2.1219919726     8.2290781132
NI      4.9280493120     4.2566527309     8.0352798650
NI     12.3467121078     4.2477703976     7.9314368727
NI      4.9032512114    -0.0417998263     8.1005520373
NI     12.3304699552    -0.0268807779     8.0035456311
NI      6.1769194869     2.1526728459     8.1155452062
NI     13.5659325949     2.1108244400     7.9833797391
NI      7.3781137653     4.2521317133     8.0085066889
NI     14.7758531449     4.2453023745     8.0060760322
O       6.1852966232     0.6509461081     9.3872205665
H       7.1640855608     1.1192684195    11.1326636659
H       5.3814275603     0.9128536015    11.2676849964
C       6.3020212257     0.5113236678    10.8161228935
O       7.8090071154    -1.4580884329    10.9310955324
H       8.1156678005    -1.0982544326    10.0513407972
C       6.4948677844    -0.9444721969    11.2377634302
H       5.7311157465    -1.5586523552    10.7141052788
C       6.3126996588    -1.0731202064    12.7500343453
H       5.2860459282    -0.7633140789    13.0101605206
H       7.0189939894    -0.3939427274    13.2512189161
O       6.5171248894    -2.4219082469    13.1871420569
H       7.2763971079    -2.4242363543    13.7945656988
O      11.1602077495     2.3050602548    10.2514327390
H      11.8788168696     1.7310028746    10.5733588294
H      11.3745455577     3.2464981120    10.5440787166
88
Step 7 | ATOMIC_POSITIONS (angstrom) | Cartesian Angstrom
NI      1.2285271350     0.7092904720     2.0000000000
NI      8.6004271350     0.7092904720     2.0000000000
NI      2.4570542700     2.8371618880     2.0000000000
NI      9.8289542700     2.8371618880     2.0000000000
NI      3.6859500000     4.9656717300     2.0000000000
NI     11.0578500000     4.9656717300     2.0000000000
NI      3.6855814050     0.7092904720     2.0000000000
NI     11.0574814050     0.7092904720     2.0000000000
NI      4.9141085400     2.8371618880     2.0000000000