88
Step 1 | ATOMIC_POSITIONS (angstrom) | Cartesian Angstrom
NI      1.2285271350     0.7092904720     2.0000000000
NI      8.6004271350     0.7092904720     2.0000000000
NI      2.4570542700     2.8371618880     2.0000000000
NI      9.8289542700     2.8371618880     2.0000000000
NI      3.6859500000     4.9656717300     2.0000000000
NI     11.0578500000     4.9656717300     2.0000000000
NI      3.6855814050     0.7092904720     2.0000000000
NI     11.0574814050     0.7092904720     2.0000000000
NI      4.9141085400     2.8371618880     2.0000000000
NI     12.2860085400     2.8371618880     2.0000000000
NI      6.1430042700     4.9656717300     2.0000000000
NI     13.5149042700     4.9656717300     2.0000000000
NI      6.1433728650     0.7092904720     2.0000000000
NI     13.5152728650     0.7092904720     2.0000000000
NI      7.3719000000     2.8371618880     2.0000000000
NI     14.7438000000     2.8371618880     2.0000000000
NI      8.6007957300     4.9656717300     2.0000000000
NI     15.9726957300     4.9656717300     2.0000000000
NI      0.0018027677    -0.0009769383     4.0330060763
NI      7.3736559983    -0.0011677783     4.0329180799
NI      1.2304382553     2.1269869575     4.0328979433
NI      8.6025473204     2.1272424275     4.0320427589
NI      2.4591324827     4.2550986071     4.0329105322
NI      9.8309667473     4.2550127051     4.0327049925
NI      2.4587392114    -0.0009744463     4.0324538510
NI      9.8313455129    -0.0011537651     4.0324140536
NI      3.6875615996     2.1268649489     4.0321438982
NI     11.0597368829     2.1270672355     4.0330942070
NI      4.9163707722     4.2550482428     4.0323798627
NI     12.2883819604     4.2549392881     4.0326377404
NI      4.9162672991    -0.0011365556     4.0319480369
NI     12.2885210821    -0.0009899747     4.0330940792
NI      6.1450316391     2.1272078811     4.0323557245
NI     13.5170255072     2.1270608692     4.0330875881
NI      7.3735112188     4.2551638480     4.0325703408
NI     14.7459075843     4.2550985161     4.0329688552
NI      1.2265413688     0.7105034195     6.0690322533
NI      8.5978488445     0.7097795352     6.0691956289
NI      2.4553252638     2.8381321376     6.0702199517
NI      9.8268438224     2.8375213633     6.0708912223
NI      3.6845587398     4.9663711321     6.0701732325
NI     11.0564351355     4.9676310462     6.0696620921
NI      3.6841237872     0.7105921340     6.0701278153
NI     11.0554784587     0.7103936856     6.0694169913
NI      4.9131643879     2.8376746124     6.0707504209
NI     12.2841417742     2.8385128892     6.0694094817
NI      6.1409588542     4.9664615442     6.0689657707
NI     13.5125438318     4.9669591935     6.0690757319
NI      6.1425333737     0.7115484215     6.0712312901
NI     13.5133740934     0.7103836739     6.0689283285
NI      7.3701507986     2.8378768535     6.0684359009
NI     14.7418643846     2.8383003969     6.0690284859
NI      8.5987871586     4.9663749720     6.0699290777
NI     15.9706051771     4.9668117367     6.0690568869
NI      0.0009977608    -0.0005739035     8.0977055259
NI      7.3752465041    -0.0049281753     8.1116429443
NI      1.2294057320     2.1276799203     8.0976283643
NI      8.6068504983     2.1315395428     8.0936523569
NI      2.4575821780     4.2560336270     8.0976890662
NI      9.8277051243     4.2518372926     8.0960474323
NI      2.4580656146    -0.0004965796     8.0982177314
NI      9.8347151441    -0.0006946900     8.0941037771
NI      3.6837203960     2.1277842827     8.0973612332
NI     11.0582454110     2.1275889355     8.0987467861
NI      4.9131457059     4.2580605355     8.0964433434
NI     12.2897145822     4.2521831642     8.0938104840
NI      4.9088940758    -0.0038969110     8.0922526669
NI     12.2870092094    -0.0004720764     8.0979685802
NI      6.1447283935     2.1368864897     8.1341597686
NI     13.5159636400     2.1280379479     8.0978506394
NI      7.3746682152     4.2593938428     8.0963212309
NI     14.7444973426     4.2558831343     8.0984711912
O       6.1705741905     2.1545660046    10.1880119910
H       7.7624777321     2.8830321525    11.3001246904
H       6.2847963333     3.8955898831    11.3035036553
C       6.6438884952     2.8625757183    11.3164724414
O       6.6657881490     0.7971752064    12.5788965480
H       7.6454441315     0.8614229638    12.5827614694
C       6.1862140496     2.1521579212    12.6065578464
H       5.0740202685     2.0647452884    12.6037322783
C       6.6606791045     2.8428507581    13.8697495063
H       6.3168286296     3.8831023892    13.9020841332
H       7.7697513984     2.8318518854    13.9028033927
O       6.1786838537     2.1462824161    15.0212428268
H       6.5225233421     2.6231455000    15.7920217975
O       7.3982205621    -0.0273524747    10.0719509890
H       8.0906122432    -0.4203448108    10.5913783114
H       6.6373129746     0.4376393688    10.6037091995
88
Step 2 | ATOMIC_POSITIONS (angstrom) | Cartesian Angstrom
NI      1.2285271350     0.7092904720     2.0000000000
NI      8.6004271350     0.7092904720     2.0000000000
NI      2.4570542700     2.8371618880     2.0000000000
NI      9.8289542700     2.8371618880     2.0000000000
NI      3.6859500000     4.9656717300     2.0000000000
NI     11.0578500000     4.9656717300     2.0000000000
NI      3.6855814050     0.7092904720     2.0000000000
NI     11.0574814050     0.7092904720     2.0000000000
NI      4.9141085400     2.8371618880     2.0000000000
NI     12.2860085400     2.8371618880     2.0000000000
NI      6.1430042700     4.9656717300     2.0000000000
NI     13.5149042700     4.9656717300     2.0000000000
NI      6.1433728650     0.7092904720     2.0000000000
NI     13.5152728650     0.7092904720     2.0000000000
NI      7.3719000000     2.8371618880     2.0000000000
NI     14.7438000000     2.8371618880     2.0000000000
NI      8.6007957300     4.9656717300     2.0000000000
NI     15.9726957300     4.9656717300     2.0000000000
NI      0.0052922667    -0.0029416383     4.0313377445
NI      7.3770186683    -0.0034340734     4.0312223561
NI      1.2339575443     2.1248822555     4.0310437145
NI      8.6065074097     2.1255337456     4.0285521251
NI      2.4627359483     4.2530079062     4.0311079295
NI      9.8345078584     4.2527207427     4.0305749710
NI      2.4621031548    -0.0029183740     4.0298250801
NI      9.8354468434    -0.0033247500     4.0296093568
NI      3.6912553188     2.1245616436     4.0289714294
NI     11.0633830208     2.1251041714     4.0316587055
NI      4.9202304825     4.2527659861     4.0295799960
NI     12.2919809269     4.2525718652     4.0302379573
NI      4.9196799635    -0.0033200965     4.0284481135
NI     12.2920201269    -0.0029216051     4.0315609489
NI      6.1484894842     2.1253796817     4.0297576137
NI     13.5202162574     2.1250521238     4.0315397031
NI      7.3767310562     4.2532211942     4.0300802213
NI     14.7495644657     4.2529819259     4.0311769722
NI      1.2226426639     0.7128833026     6.0702193517
NI      8.5925662860     0.7106413204     6.0708785808
NI      2.4519701469     2.8400512097     6.0734778684
NI      9.8229130873     2.8383859168     6.0750918961
NI      3.6817544874     4.9677698873     6.0733056272
NI     11.0534671101     4.9716272419     6.0721675205
NI      3.6811761672     0.7131885840     6.0729032425
NI     11.0516548473     0.7125944598     6.0711303163
NI      4.9119541574     2.8382691081     6.0764808001
NI     12.2804400878     2.8410223576     6.0711135427
NI      6.1369447099     4.9680764706     6.0698854159
NI     13.5080217904     4.9694507616     6.0700892726
NI      6.1413085898     0.7165051012     6.0787715690
NI     13.5096754558     0.7124960889     6.0700143996
NI      7.3659636534     2.8386052356     6.0695540104
NI     14.7380833469     2.8405458348     6.0702704180
NI      8.5951073270     4.9679442584     6.0724245860
NI     15.9665277869     4.9690371731     6.0703057122
NI      0.0028011212    -0.0015543555     8.0896721538
NI      7.3824331209    -0.0141500893     8.1261188524
NI      1.2306986896     2.1268952867     8.0894121906
NI      8.6182829842     2.1374123134     8.0773392407
NI      2.4580249314     4.2558309432     8.0896912230
NI      9.8253568307     4.2440655765     8.0844545256
NI      2.4596267931    -0.0012790960     8.0910212928
NI      9.8451748514    -0.0019551995     8.0791162343
NI      3.6802865154     2.1271783064     8.0886293797
NI     11.0594204178     2.1265298513     8.0927645742
NI      4.9109035901     4.2618445248     8.0858983331
NI     12.2958568611     4.2443234663     8.0781357264
NI      4.8990236536    -0.0104797181     8.0731152765
NI     12.2878524577    -0.0013943491     8.0903628701
NI      6.1475673541     2.1533505610     8.1963132742
NI     13.5172642567     2.1277002752     8.0901205434
NI      7.3795693275     4.2651252191     8.0849475117
NI     14.7456058096     4.2551765760     8.0918270317
O       6.1415937214     2.1459207111    10.1651479085
H       7.7668453615     2.8878434363    11.3082794844
H       6.2840699232     3.9129534725    11.3089298604
C       6.6356097111     2.8624834124    11.2753275793
O       6.6659742494     0.7789095086    12.5804132726
H       7.6397221107     0.8623175292    12.5897534171
C       6.1913894396     2.1520816413    12.6047904839
H       5.0846943570     2.0649853548    12.6039289491
C       6.6625240966     2.8458531732    13.8796429790
H       6.3170388756     3.8961228046    13.8914970362
H       7.7759695244     2.8384300127    13.8899227401
O       6.1683343637     2.1376782100    15.0274651113
H       6.5196503484     2.6202492223    15.7948391599
O       7.3847950316    -0.0431357746    10.0418849494
H       8.0953029720    -0.4330036033    10.6100424849
H       6.6640828317     0.4511985232    10.6031253840
88
Step 3 | ATOMIC_POSITIONS (angstrom) | Cartesian Angstrom
NI      1.2285271350     0.7092904720     2.0000000000
NI      8.6004271350     0.7092904720     2.0000000000
NI      2.4570542700     2.8371618880     2.0000000000
NI      9.8289542700     2.8371618880     2.0000000000
NI      3.6859500000     4.9656717300     2.0000000000
NI     11.0578500000     4.9656717300     2.0000000000
NI      3.6855814050     0.7092904720     2.0000000000
NI     11.0574814050     0.7092904720     2.0000000000
NI      4.9141085400     2.8371618880     2.0000000000
NI     12.2860085400     2.8371618880     2.0000000000
NI      6.1430042700     4.9656717300     2.0000000000
NI     13.5149042700     4.9656717300     2.0000000000
NI      6.1433728650     0.7092904720     2.0000000000
NI     13.5152728650     0.7092904720     2.0000000000
NI      7.3719000000     2.8371618880     2.0000000000
NI     14.7438000000     2.8371618880     2.0000000000
NI      8.6007957300     4.9656717300     2.0000000000
NI     15.9726957300     4.9656717300     2.0000000000
NI      0.0102015402    -0.0058635638     4.0294925619
NI      7.3815756643    -0.0065568046     4.0296677056
NI      1.2390131138     2.1219770277     4.0289686447
NI      8.6121683622     2.1230149981     4.0243227774
NI      2.4678931922     4.2500295870     4.0291754253
NI      9.8396763466     4.2494017161     4.0283168795
NI      2.4669799892    -0.0057482282     4.0268866767
NI      9.8411404206    -0.0062810940     4.0261757625
NI      3.6966610894     2.1215143308     4.0254359391
NI     11.0684863823     2.1223393343     4.0302370079
NI      4.9255023078     4.2493202526     4.0264016871
NI     12.2970040889     4.2492674786     4.0273119011
NI      4.9249608081    -0.0062772022     4.0246461788
NI     12.2970660268    -0.0057155140     4.0298221862
NI      6.1533616588     2.1224786547     4.0274478834
NI     13.5248208287     2.1221792234     4.0297574099
NI      7.3814937032     4.2504082894     4.0272188282
NI     14.7548123708     4.2499277838     4.0290713643
NI      1.2170810702     0.7162665634     6.0701165734
NI      8.5845527400     0.7115685413     6.0721050968
NI      2.4472650126     2.8428354757     6.0757325502
NI      9.8178798011     2.8398840671     6.0776138784
NI      3.6776262275     4.9697916357     6.0753256143
NI     11.0488236863     4.9777624961     6.0743579389
NI      3.6767719853     0.7169937748     6.0737799169
NI     11.0465596318     0.7159625158     6.0710157856
NI      4.9113290817     2.8384206289     6.0850959989
NI     12.2750422539     2.8440774292     6.0710003885
NI      6.1312465809     4.9705439541     6.0690697227
NI     13.5018621840     4.9729060092     6.0690572579
NI      6.1400961576     0.7245388213     6.0907742745
NI     13.5044812756     0.7154178210     6.0699545180
NI      7.3586581462     2.8384964694     6.0713434787
NI     14.7327436139     2.8437748835     6.0703629457
NI      8.5903280931     4.9704761844     6.0729158732
NI     15.9608071883     4.9721585381     6.0702845417
NI      0.0050396271    -0.0026483595     8.0789206397
NI      7.3925578935    -0.0252594235     8.1371448586
NI      1.2321862188     2.1257982414     8.0783683444
NI      8.6322065263     2.1436509503     8.0547534372
NI      2.4584453207     4.2556412657     8.0791534390
NI      9.8234453276     4.2347207648     8.0681430686
NI      2.4608848299    -0.0019572433     8.0811522806
NI      9.8588595130    -0.0038211180     8.0592128194
NI      3.6764245889     2.1263417997     8.0769577911
NI     11.0619666871     2.1248065378     8.0850294252
NI      4.9080393519     4.2672043960     8.0718463031
NI     12.3043532192     4.2335635302     8.0569353998
NI      4.8877706460    -0.0175015466     8.0460382048
NI     12.2898193098    -0.0026644036     8.0801003369
NI      6.1513642060     2.1755525780     8.2806725618
NI     13.5195089074     2.1266034179     8.0799216665
NI      7.3852106999     4.2716235458     8.0685610128
NI     14.7475587717     4.2539173131     8.0829186969
O       6.1051706172     2.1380302972    10.1443132262
H       7.7608767744     2.8932255431    11.3097034812
H       6.2842190510     3.9271746788    11.3101550776
C       6.6323162063     2.8639906809    11.2440440498
O       6.6651504172     0.7685544870    12.5802089390
H       7.6354581066     0.8599825473    12.6007608329
C       6.1905537355     2.1476933650    12.5913992548
H       5.1004242781     2.0649639440    12.6047738436
C       6.6670905603     2.8487099282    13.8824551759
H       6.3187974996     3.9069805308    13.8788774151
H       7.7795192587     2.8478268992    13.8764208554
O       6.1603669971     2.1350978388    15.0305042562
H       6.5136676598     2.6136013298    15.7993263871
O       7.3838348492    -0.0757927906    10.0519162563
H       8.0751012700    -0.4358370317    10.6085250563
H       6.7096356415     0.4645702260    10.5882073659
88
Step 4 | ATOMIC_POSITIONS (angstrom) | Cartesian Angstrom
NI      1.2285271350     0.7092904720     2.0000000000
NI      8.6004271350     0.7092904720     2.0000000000
NI      2.4570542700     2.8371618880     2.0000000000
NI      9.8289542700     2.8371618880     2.0000000000
NI      3.6859500000     4.9656717300     2.0000000000
NI     11.0578500000     4.9656717300     2.0000000000
NI      3.6855814050     0.7092904720     2.0000000000
NI     11.0574814050     0.7092904720     2.0000000000
NI      4.9141085400     2.8371618880     2.0000000000
NI     12.2860085400     2.8371618880     2.0000000000
NI      6.1430042700     4.9656717300     2.0000000000
NI     13.5149042700     4.9656717300     2.0000000000
NI      6.1433728650     0.7092904720     2.0000000000
NI     13.5152728650     0.7092904720     2.0000000000
NI      7.3719000000     2.8371618880     2.0000000000
NI     14.7438000000     2.8371618880     2.0000000000
NI      8.6007957300     4.9656717300     2.0000000000
NI     15.9726957300     4.9656717300     2.0000000000
NI      0.0131802436    -0.0078325478     4.0288885062
NI      7.3840761521    -0.0083035065     4.0297098976
NI      1.2422063791     2.1202847021     4.0282782952
NI      8.6156016452     2.1213405789     4.0226529796
NI      2.4711002851     4.2481791110     4.0286632663
NI      9.8430656076     4.2472815693     4.0277142156
NI      2.4701429374    -0.0075882297     4.0259720437
NI      9.8444487969    -0.0079549525     4.0246716446
NI      3.7002736631     2.1199988589     4.0244738465
NI     11.0715667944     2.1206329571     4.0298733869
NI      4.9285018523     4.2468351855     4.0254534163
NI     12.3000012212     4.2473375819     4.0260262928
NI      4.9289011969    -0.0078160668     4.0238485905
NI     12.3002869135    -0.0075225291     4.0291461882
NI      6.1562933227     2.1202613104     4.0278452322
NI     13.5277947296     2.1203808221     4.0290095221
NI      7.3846870220     4.2484833454     4.0262967366
NI     14.7581185236     4.2479772526     4.0281913918
NI      1.2136172593     0.7183686172     6.0675277821
NI      8.5792468224     0.7118092599     6.0710202609
NI      2.4444814780     2.8446781090     6.0737749619
NI      9.8156962188     2.8411471228     6.0739437878
NI      3.6748551361     4.9710364255     6.0731084534
NI     11.0453593732     4.9819928081     6.0735560935
NI      3.6736215543     0.7196066409     6.0697456042
NI     11.0439232635     0.7183956136     6.0673056766
NI      4.9120308259     2.8378125984     6.0904223038
NI     12.2715644869     2.8451730847     6.0672761079
NI      6.1278279071     4.9722998346     6.0654725888
NI     13.4985332397     4.9748572397     6.0648589190
NI      6.1400303395     0.7303931304     6.0989691017
NI     13.5013709870     0.7171148083     6.0676373474
NI      7.3526890371     2.8372743151     6.0721893663
NI     14.7294633633     2.8458409757     6.0680905025
NI      8.5880206416     4.9721603795     6.0683588575
NI     15.9573866546     4.9740090838     6.0677902094
NI      0.0058812092    -0.0028947827     8.0731876306
NI      7.3989339811    -0.0294606175     8.1383706005
NI      1.2326337677     2.1252279919     8.0724519145
NI      8.6369937790     2.1441765199     8.0427141164
NI      2.4583928798     4.2556316214     8.0737812321
NI      9.8243824306     4.2317439254     8.0585939837
NI      2.4602602338    -0.0017306241     8.0756022772
NI      9.8654057581    -0.0051249731     8.0491767657
NI      3.6754672679     2.1259480162     8.0708997750
NI     11.0647555589     2.1233948498     8.0812958491
NI      4.9067473422     4.2703650636     8.0647647207
NI     12.3092017509     4.2278128363     8.0456378712
NI      4.8848649819    -0.0184735395     8.0305261648
NI     12.2921755019    -0.0033580950     8.0745434857
NI      6.1535166437     2.1878484228     8.3185995313
NI     13.5214579940     2.1249738581     8.0747331271
NI      7.3865950333     4.2730526463     8.0588110343
NI     14.7492766191     4.2527995587     8.0780883568
O       6.0912811157     2.1399737261    10.1556696381
H       7.7499244826     2.8942178546    11.2985429536
H       6.2858821931     3.9234689670    11.3033351575
C       6.6281223949     2.8668316735    11.2504044719
O       6.6626713690     0.7750620258    12.5771062340
H       7.6367040303     0.8554624542    12.6093521814
C       6.1965296664     2.1454683453    12.5811239319
H       5.1009889270     2.0636397584    12.6046507821
C       6.6653664568     2.8501230992    13.8705052745
H       6.3218636092     3.9048927737    13.8733924359
H       7.7790161976     2.8530759581    13.8726412448
O       6.1621103147     2.1421011531    15.0231470918
H       6.5088185022     2.6081340311    15.8033052343
O       7.3710910006    -0.0912042947    10.0610572693
H       8.0751028083    -0.4440209032    10.6138132212
H       6.7358696599     0.4721279004    10.5757607730
88
Step 5 | ATOMIC_POSITIONS (angstrom) | Cartesian Angstrom
NI      1.2285271350     0.7092904720     2.0000000000
NI      8.6004271350     0.7092904720     2.0000000000
NI      2.4570542700     2.8371618880     2.0000000000
NI      9.8289542700     2.8371618880     2.0000000000
NI      3.6859500000     4.9656717300     2.0000000000
NI     11.0578500000     4.9656717300     2.0000000000
NI      3.6855814050     0.7092904720     2.0000000000
NI     11.0574814050     0.7092904720     2.0000000000
NI      4.9141085400     2.8371618880     2.0000000000
NI     12.2860085400     2.8371618880     2.0000000000
NI      6.1430042700     4.9656717300     2.0000000000
NI     13.5149042700     4.9656717300     2.0000000000
NI      6.1433728650     0.7092904720     2.0000000000
NI     13.5152728650     0.7092904720     2.0000000000
NI      7.3719000000     2.8371618880     2.0000000000
NI     14.7438000000     2.8371618880     2.0000000000
NI      8.6007957300     4.9656717300     2.0000000000
NI     15.9726957300     4.9656717300     2.0000000000
NI      0.0172536496    -0.0106230511     4.0280975902
NI      7.3872229824    -0.0104843901     4.0302275164
NI      1.2466238350     2.1180098545     4.0274344142
NI      8.6200595226     2.1189468648     4.0208702692
NI      2.4754525520     4.2456569820     4.0280734258
NI      9.8478824711     4.2444020644     4.0269497311
NI      2.4745650470    -0.0101842870     4.0250034305
NI      9.8487307771    -0.0101296131     4.0227370430
NI      3.7054518320     2.1182966524     4.0237775762
NI     11.0757527529     2.1182666452     4.0291480497
NI      4.9324487210     4.2430879123     4.0247068621
NI     12.3039948364     4.2448435563     4.0243176950
NI      4.9348458717    -0.0096086941     4.0236374632
NI     12.3047673390    -0.0100711806     4.0281380349
NI      6.1601996033     2.1169716663     4.0294927983
NI     13.5320008370     2.1178921894     4.0278845699
NI      7.3891451665     4.2455708968     4.0253831143
NI     14.7626721221     4.2452774706     4.0269341913
NI      1.2088906189     0.7212243749     6.0622533004
NI      8.5723484358     0.7119630043     6.0680886408
NI      2.4408815998     2.8473203096     6.0688606543
NI      9.8132753512     2.8430585229     6.0653780944
NI      3.6709447737     4.9726330778     6.0677286897
NI     11.0402908279     4.9878324634     6.0708031654
NI      3.6689762192     0.7233408584     6.0610054133
NI     11.0406328320     0.7218691824     6.0598037455
NI      4.9133629282     2.8367487319     6.0974009648
NI     12.2668429714     2.8461522268     6.0596534597
NI      6.1233111188     4.9748780440     6.0583756958
NI     13.4944115991     4.9773320997     6.0567060987
NI      6.1402307587     0.7386645015     6.1100251044
NI     13.4972970664     0.7192997901     6.0628088218
NI      7.3440854088     2.8353042218     6.0728631272
NI     14.7249929241     2.8486918984     6.0633839228
NI      8.5852669738     4.9743149624     6.0585436201
NI     15.9528607127     4.9764600530     6.0627455116
NI      0.0066267764    -0.0029817407     8.0658622615
NI      7.4077177461    -0.0331585006     8.1385661145
NI      1.2330099065     2.1246044543     8.0648857493
NI      8.6407502053     2.1425256193     8.0281313559
NI      2.4581598428     4.2556420160     8.0670634876
NI      9.8270314851     4.2296880269     8.0457473425
NI      2.4585486213    -0.0008764142     8.0681969823
NI      9.8728542448    -0.0070649414     8.0371511975
NI      3.6751707986     2.1254846935     8.0634801538
NI     11.0692594478     2.1212156028     8.0766030241
NI      4.9053285898     4.2746169903     8.0563728301
NI     12.3155374091     4.2208634350     8.0315112163
NI      4.8836616571    -0.0174229072     8.0109250769
NI     12.2961370260    -0.0042765507     8.0673461234
NI      6.1561853582     2.2035174846     8.3595437884
NI     13.5244981302     2.1221093825     8.0682572266
NI      7.3871096205     4.2733951042     8.0459128765
NI     14.7519626417     4.2510745342     8.0717282144
O       6.0755948467     2.1437295244    10.1838168057
H       7.7342515151     2.8947743523    11.2775055250
H       6.2862291359     3.9184420156    11.2921813682
C       6.6238553463     2.8666623615    11.2671778387
O       6.6674090529     0.7862747482    12.5705328689
H       7.6351473924     0.8468758335    12.6227213054
C       6.1928453854     2.1462391015    12.5723545844
H       5.1040249383     2.0619546426    12.6030959126
C       6.6685979685     2.8516965317    13.8539943903
H       6.3252637786     3.9012741826    13.8650467171
H       7.7753900438     2.8602023831    13.8684645343
O       6.1650910173     2.1527798018    15.0078956821
H       6.5023146272     2.6011022350    15.8067136362
O       7.3601621654    -0.1225076426    10.0692416668
H       8.0771167416    -0.4558861052    10.6208966151
H       6.7621767903     0.4909850459    10.5647546534
88
Step 6 | ATOMIC_POSITIONS (angstrom) | Cartesian Angstrom
NI      1.2285271350     0.7092904720     2.0000000000
NI      8.6004271350     0.7092904720     2.0000000000
NI      2.4570542700     2.8371618880     2.0000000000
NI      9.8289542700     2.8371618880     2.0000000000
NI      3.6859500000     4.9656717300     2.0000000000
NI     11.0578500000     4.9656717300     2.0000000000
NI      3.6855814050     0.7092904720     2.0000000000
NI     11.0574814050     0.7092904720     2.0000000000
NI      4.9141085400     2.8371618880     2.0000000000
NI     12.2860085400     2.8371618880     2.0000000000
NI      6.1430042700     4.9656717300     2.0000000000
NI     13.5149042700     4.9656717300     2.0000000000
NI      6.1433728650     0.7092904720     2.0000000000
NI     13.5152728650     0.7092904720     2.0000000000
NI      7.3719000000     2.8371618880     2.0000000000
NI     14.7438000000     2.8371618880     2.0000000000
NI      8.6007957300     4.9656717300     2.0000000000
NI     15.9726957300     4.9656717300     2.0000000000
NI      0.0240916223    -0.0153351892     4.0261055393
NI      7.3920978562    -0.0137062922     4.0310565582
NI      1.2540385780     2.1142157121     4.0255059152
NI      8.6268216755     2.1147820372     4.0180785832
NI      2.4825165496     4.2415159797     4.0264341216
NI      9.8561755113     4.2397847394     4.0246702554
NI      2.4820462220    -0.0146268230     4.0229122289
NI      9.8553625865    -0.0135619498     4.0189987560
NI      3.7144066737     2.1160757618     4.0227279065
NI     11.0826862416     2.1142175623     4.0264478131
NI      4.9389177499     4.2362854186     4.0236479038
NI     12.3104164225     4.2410107516     4.0208734293
NI      4.9454472532    -0.0120212334     4.0236908431
NI     12.3122401023    -0.0144016033     4.0256552664
NI      6.1664935743     2.1113118738     4.0330305531
NI     13.5391967352     2.1137114964     4.0251941087
NI      7.3964709414     4.2401373161     4.0236118157
NI     14.7702153197     4.2408119976     4.0240799858
NI      1.2011147435     0.7259156085     6.0517579801
NI      8.5625178229     0.7121415693     6.0613947919
NI      2.4353458493     2.8518536806     6.0586213866
NI      9.8095853957     2.8463136752     6.0480205717
NI      3.6644160860     4.9749960022     6.0565447149
NI     11.0317439615     4.9970895720     6.0641673882
NI      3.6609827841     0.7295985901     6.0433205174
NI     11.0353650775     0.7275100348     6.0452040207
NI      4.9152428246     2.8352350034     6.1082364516
NI     12.2593211953     2.8473965148     6.0445591431
NI      6.1161827170     4.9793586125     6.0443735104
NI     13.4881922251     4.9811331197     6.0408880061
NI      6.1407310786     0.7518462770     6.1271839650
NI     13.4909201678     0.7226716126     6.0529313656
NI      7.3305634555     2.8326669248     6.0731509282
NI     14.7175981720     2.8533955112     6.0539599676
NI      8.5810725243     4.9773906759     6.0384671388
NI     15.9456220934     4.9804189667     6.0528663889
NI      0.0073835619    -0.0029299251     8.0539473289
NI      7.4228570773    -0.0369529413     8.1399061904
NI      1.2335765429     2.1238987805     8.0525842025
NI      8.6439498763     2.1373973488     8.0066770163
NI      2.4577235179     4.2555767000     8.0561919488
NI      9.8324862945     4.2283274339     8.0240411182
NI      2.4551710291     0.0013433358     8.0555429936
NI      9.8834174689    -0.0104346278     8.0190275998
NI      3.6758197037     2.1246967886     8.0520834753
NI     11.0770541698     2.1173461830     8.0684207806
NI      4.9034301080     4.2816971511     8.0440485793
NI     12.3256902101     4.2107201747     8.0093635828
NI      4.8843307347    -0.0132500780     7.9814557174
NI     12.3032407317    -0.0058379132     8.0554356044
NI      6.1598752246     2.2272539314     8.4177623681
NI     13.5298596843     2.1168245900     8.0577282241
NI      7.3869094431     4.2729067765     8.0250363307
NI     14.7567262020     4.2481062370     8.0608741992
O       6.0491428049     2.1405954634    10.2302392701
H       7.7163719262     2.8944949317    11.2414825955
H       6.2836523829     3.9149772778    11.2760658325
C       6.6119598921     2.8688648452    11.2918043365
O       6.6654299159     0.7975981279    12.5558614031
H       7.6430047656     0.8349779747    12.6484029226
C       6.1964286663     2.1528561265    12.5728826476
H       5.1012426643     2.0582781817    12.5991141746
C       6.6707592004     2.8576454860    13.8338392367
H       6.3297065738     3.8990078006    13.8477877611
H       7.7743824739     2.8714697839    13.8589157596
O       6.1689780861     2.1679247104    14.9867594218
H       6.4904715727     2.5885263800    15.8020780725
O       7.3394569384    -0.1825054080    10.0811421980
H       8.0830718790    -0.4758145531    10.6323006610
H       6.8030502988     0.5288331790    10.5474539892
88
Step 7 | ATOMIC_POSITIONS (angstrom) | Cartesian Angstrom
NI      1.2285271350     0.7092904720     2.0000000000
NI      8.6004271350     0.7092904720     2.0000000000
NI      2.4570542700     2.8371618880     2.0000000000
NI      9.8289542700     2.8371618880     2.0000000000
NI      3.6859500000     4.9656717300     2.0000000000
NI     11.0578500000     4.9656717300     2.0000000000
NI      3.6855814050     0.7092904720     2.0000000000
NI     11.0574814050     0.7092904720     2.0000000000
NI      4.9141085400     2.8371618880     2.0000000000