80
Step 1 | ATOMIC_POSITIONS (crystal) | Cartesian Angstrom
Ni      1.2286502138     0.7093620201    11.2500035815
Ni      2.4573004768     2.8374481654    11.2500035815
Ni      3.6859507398     4.9655343107    11.2500035815
Ni      4.9146010028     7.0936204560    11.2500035815
Ni      3.6859507398     0.7093620201    11.2500035815
Ni      4.9146010028     2.8374481654    11.2500035815
Ni      6.1432512658     4.9655343107    11.2500035815
Ni      7.3719015288     7.0936204560    11.2500035815
Ni      6.1432512658     0.7093620201    11.2500035815
Ni      7.3719015288     2.8374481654    11.2500035815
Ni      8.6005517918     4.9655343107    11.2500035815
Ni      9.8292020548     7.0936204560    11.2500035815
Ni      8.6005517918     0.7093620201    11.2500035815
Ni      9.8292020548     2.8374481654    11.2500035815
Ni     11.0578523178     4.9655343107    11.2500035815
Ni     12.2865025808     7.0936204560    11.2500035815
Ni      4.9051137026     0.0004000802    13.3015555016
Ni      6.1333145745     2.1291442297    13.2996393333
Ni      7.3622370081     4.2552100552    13.3033004593
Ni     13.5046120566     6.3842167254    13.3000501617
Ni      2.4483175690    -0.0003095940    13.3013634210
Ni      3.6762322637     2.1314507346    13.3053770168
Ni      4.9061190403     4.2542416909    13.3051949847
Ni      6.1359102279     6.3823328585    13.3015458396
Ni      4.9054260815     0.0007533425    13.2976613282
Ni      6.1347335741     2.1302427478    13.3020845929
Ni      7.3647049310     4.2553952838    13.3128650688
Ni      8.5923806778     6.3814271450    13.3059582829
Ni      7.3625684557     0.0015792102    13.2980416246
Ni      8.5902742306     2.1342962412    13.3071424579
Ni      9.8149888811     4.2540099849    13.3131634314
Ni     11.0456769834     6.3819372047    13.3016733781
Ni      2.4426018389     1.4179623555    15.3327433989
Ni      3.6778601270     3.5413124877    15.3549590480
Ni      4.8999064931     5.6736519962    15.3278579040
Ni      6.1272422969     7.8015845788    15.3324249393
Ni      4.8996755069     1.4218608391    15.3296449880
Ni      6.1332444009     3.5427402632    15.3433229052
Ni      7.3656285320     5.6686488657    15.3439134468
Ni      8.5872939674     7.8006580101    15.3236332901
Ni      7.3590259621     1.4252956553    15.3349478814
Ni      8.5737593527     3.5483887997    15.3889418565
Ni      9.8038885666     5.6621106189    15.3562560752
Ni     11.0447137216     7.7972004660    15.3204552642
Ni      9.8127933322     1.4205967559    15.3268909308
Ni     11.0418178421     3.5448323422    15.3308307089
Ni     12.2696055926     5.6718110315    15.3286625556
Ni     13.4982043997     7.8012217827    15.3259413492
Ni      1.2104176828     0.7123329134    17.3905748478
Ni      2.4362577769     2.8335829651    17.3904913681
Ni      3.6592678963     4.9732642006    17.3845078832
Ni      4.8899482827     7.1016956066    17.3825441778
Ni      3.6619621298     0.7059229477    17.3790612192
Ni      4.8783443199     2.8379852943    17.4263528564
Ni      6.0993339485     5.0001098370    17.3463170793
Ni      7.3461548185     7.1212559529    17.3673937715
Ni      6.1191848576     0.6651500940    17.3427792405
Ni      7.3406672241     2.7955698986    17.4652930452
Ni      8.5944761654     4.9936659071    17.5044175850
Ni      9.8222596893     7.1056466964    17.3601882365
Ni      8.5957424615     0.6885774283    17.3653264894
Ni      9.8315432233     2.8220948751    17.3708651357
Ni     11.0581005051     4.9615379352    17.3778534688
Ni     12.2700398959     7.0852207297    17.3851235460
O       9.0572569196     3.6957485505    21.7238179248
O       8.2706076912     4.9719052899    19.4267015743
O       8.9563817842     5.3703931660    24.1389166008
C       8.7184882596     5.0932346314    21.7744665281
C       8.9607343023     5.7357498904    20.4093222004
C       9.4373569812     5.8440830099    22.8833498159
H       7.6404127723     5.1027234270    21.9895801915
H      10.0312307868     5.7625177241    20.1684399764
H       8.5838878540     6.7556926339    20.3728817648
H       9.2413970443     6.9233431753    22.7618269462
H      10.5264153241     5.6877550785    22.7865995475
H      10.0201809944     3.6142416594    21.6467356286
H       8.0607059167     3.8581229705    19.7297162712
H       9.4343288989     5.8252136956    24.8496654828
O       6.6758681559     2.7977335664    19.2294757558
H       6.9590965654     2.0527921592    19.6984384369
80
Step 2 | ATOMIC_POSITIONS (crystal) | Cartesian Angstrom
Ni      1.2286502138     0.7093620201    11.2500035815
Ni      2.4573004768     2.8374481654    11.2500035815
Ni      3.6859507398     4.9655343107    11.2500035815
Ni      4.9146010028     7.0936204560    11.2500035815
Ni      3.6859507398     0.7093620201    11.2500035815
Ni      4.9146010028     2.8374481654    11.2500035815
Ni      6.1432512658     4.9655343107    11.2500035815
Ni      7.3719015288     7.0936204560    11.2500035815
Ni      6.1432512658     0.7093620201    11.2500035815
Ni      7.3719015288     2.8374481654    11.2500035815
Ni      8.6005517918     4.9655343107    11.2500035815
Ni      9.8292020548     7.0936204560    11.2500035815
Ni      8.6005517918     0.7093620201    11.2500035815
Ni      9.8292020548     2.8374481654    11.2500035815
Ni     11.0578523178     4.9655343107    11.2500035815
Ni     12.2865025808     7.0936204560    11.2500035815
Ni      4.9128069449    -0.0028323371    13.3370960646
Ni      6.1158439374     2.1074514627    13.2513640424
Ni      7.3713682857     4.2551021170    13.2978324616
Ni     13.5046112368     6.3842103174    13.3000538332
Ni      2.4483116445    -0.0003171861    13.3013668916
Ni      3.6762277658     2.1314420299    13.3053680969
Ni      4.9061223198     4.2542366235    13.3051901846
Ni      6.1359072772     6.3823260656    13.3015491286
Ni      4.9082716267     0.0039676464    13.2621185390
Ni      6.1627471928     2.1519236937    13.3503624732
Ni      7.3661116407     4.2554954477    13.3183318297
Ni      8.5923762664     6.3814214962    13.3059624801
Ni      7.3625636231     0.0015732558    13.2980459841
Ni      8.5902675212     2.1342877799    13.3071461411
Ni      9.8149811996     4.2540048826    13.3131686643
Ni     11.0456746716     6.3819335205    13.3016702553
Ni      2.4425934064     1.4179541650    15.3327418105
Ni      3.6778354695     3.5413152287    15.3549093041
Ni      4.8999022184     5.6736394626    15.3278666926
Ni      6.1272343716     7.8015713268    15.3324298090
Ni      4.8996667151     1.4218443635    15.3296299732
Ni      6.1332448727     3.5427268478    15.3433393035
Ni      7.3656157491     5.6686380414    15.3439148188
Ni      8.5872799288     7.8006479034    15.3236415607
Ni      7.3590134657     1.4252904585    15.3349705060
Ni      8.5737490846     3.5483872990    15.3889449175
Ni      9.8038821501     5.6621053975    15.3562495359
Ni     11.0447046979     7.7971918796    15.3204606092
Ni      9.8127813254     1.4205896915    15.3268857984
Ni     11.0418017861     3.5448249160    15.3308318413
Ni     12.2695937504     5.6718088302    15.3286661769
Ni     13.4981962867     7.8012118131    15.3259402941
Ni      1.2104021964     0.7123163867    17.3905631297
Ni      2.4362438922     2.8335728388    17.3904862240
Ni      3.6592551307     4.9732316962    17.3845109325
Ni      4.8899339739     7.1016693315    17.3825449701
Ni      3.6619477605     0.7059207396    17.3790732503
Ni      4.8783057039     2.8379564017    17.4262245296
Ni      6.0993086634     5.0000531355    17.3463396691
Ni      7.3461310884     7.1212343852    17.3674153912
Ni      6.1191525338     0.6651705501    17.3428091618
Ni      7.3406298093     2.7955216013    17.4653753345
Ni      8.5944708497     4.9936673610    17.5044201435
Ni      9.8222516402     7.1056458571    17.3601860065
Ni      8.5957305141     0.6885526846    17.3653140177
Ni      9.8315302379     2.8220822359    17.3708659241
Ni     11.0580876200     4.9615293717    17.3778521200
Ni     12.2700256140     7.0852147949    17.3851305258
O       9.0571424113     3.6957091145    21.7237088910
O       8.2704785861     4.9721272603    19.4265153836
O       8.9562418744     5.3704486461    24.1387424490
C       8.7184895467     5.0932227047    21.7742794679
C       8.9608397367     5.7357099377    20.4091371962
C       9.4373695375     5.8440330177    22.8831908760
H       7.6404053173     5.1028154957    21.9893494397
H      10.0313435744     5.7621853758    20.1682405836
H       8.5843208918     6.7557850209    20.3728063510
H       9.2415508360     6.9233135540    22.7616168595
H      10.5264153501     5.6875606557    22.7865322111
H      10.0200437920     3.6141405370    21.6464214859
H       8.0597986474     3.8579243187    19.7294793396
H       9.4342445152     5.8251882556    24.8495057467
O       6.6769518859     2.7978009254    19.2300042519
H       6.9608103271     2.0530813661    19.6989321304
80
Step 3 | ATOMIC_POSITIONS (crystal) | Cartesian Angstrom
Ni      1.2286502138     0.7093620201    11.2500035815
Ni      2.4573004768     2.8374481654    11.2500035815
Ni      3.6859507398     4.9655343107    11.2500035815
Ni      4.9146010028     7.0936204560    11.2500035815
Ni      3.6859507398     0.7093620201    11.2500035815
Ni      4.9146010028     2.8374481654    11.2500035815
Ni      6.1432512658     4.9655343107    11.2500035815
Ni      7.3719015288     7.0936204560    11.2500035815
Ni      6.1432512658     0.7093620201    11.2500035815
Ni      7.3719015288     2.8374481654    11.2500035815
Ni      8.6005517918     4.9655343107    11.2500035815
Ni      9.8292020548     7.0936204560    11.2500035815
Ni      8.6005517918     0.7093620201    11.2500035815
Ni      9.8292020548     2.8374481654    11.2500035815
Ni     11.0578523178     4.9655343107    11.2500035815
Ni     12.2865025808     7.0936204560    11.2500035815
Ni      4.9043442171    -0.0035213756    13.3462268734
Ni      6.1052431144     2.1059767654    13.2480676299
Ni      7.3915871073     4.2529143533    13.1838189426
Ni     13.5046119327     6.3842157959    13.3000506873
Ni      2.4483166893    -0.0003106801    13.3013639273
Ni      3.6762315688     2.1314494884    13.3053757144
Ni      4.9061194895     4.2542409690    13.3051942891
Ni      6.1359097890     6.3823318753    13.3015463227
Ni      4.9077303576     0.0048221538    13.2527899877
Ni      6.1643377857     2.1534188070    13.3536761381
Ni      7.3368844999     4.2576882507    13.4323574262
Ni      8.5923800315     6.3814263236    13.3059589013
Ni      7.3625668353     0.0014282156    13.2982418947
Ni      8.5902750641     2.1342846763    13.3071235281
Ni      9.8149919881     4.2540109570    13.3131531742
Ni     11.0456766576     6.3819366608    13.3016729220
Ni      2.4426005891     1.4179611732    15.3327431632
Ni      3.6778565162     3.5413128954    15.3549518092
Ni      4.8999058537     5.6736501839    15.3278591833
Ni      6.1272411356     7.8015826576    15.3324256389
Ni      4.8996742237     1.4218584446    15.3296428121
Ni      6.1332444687     3.5427383088    15.3433253013
Ni      7.3656266689     5.6686472884    15.3439136439
Ni      8.5872919229     7.8006565460    15.3236344920
Ni      7.3590241510     1.4252948951    15.3349511781
Ni      8.5737578670     3.5483885827    15.3889423010
Ni      9.8038876480     5.6621098503    15.3562551322
Ni     11.0447124045     7.7971992062    15.3204560449
Ni      9.8127915993     1.4205957174    15.3268901695
Ni     11.0418155155     3.5448312526    15.3308308558
Ni     12.2696038769     5.6718107003    15.3286630696
Ni     13.4982032359     7.8012203288    15.3259411869
Ni      1.2104154290     0.7123305062    17.3905731395
Ni      2.4362557566     2.8335814899    17.3904906183
Ni      3.6592660406     4.9732594694    17.3845083276
Ni      4.8899462014     7.1016917820    17.3825442937
Ni      3.6619600430     0.7059226260    17.3790629738
Ni      4.8783387025     2.8379810875    17.4263341817
Ni      6.0993302675     5.0001015835    17.3463203682
Ni      7.3461513680     7.1212528127    17.3673969174
Ni      6.1191801534     0.6651530751    17.3427836077
Ni      7.3406617763     2.7955628700    17.4653050261
Ni      8.5944753879     4.9936661216    17.5044179560
Ni      9.8222585138     7.1056465755    17.3601879157
Ni      8.5957407183     0.6885738250    17.3653246807
Ni      9.8315413312     2.8220930381    17.3708652478
Ni     11.0580986307     4.9615366906    17.3778532717
Ni     12.2700378136     7.0852198674    17.3851245663
O       9.0572402409     3.6957428123    21.7238020559
O       8.2705888722     4.9719374836    19.4266744936
O       8.9563614181     5.3704012391    24.1388912555
C       8.7184884498     5.0932328940    21.7744393045
C       8.9607496565     5.7357440578    20.4092952897
C       9.4373588085     5.8440757335    22.8833266812
H       7.6404116851     5.1027368271    21.9895466064
H      10.0312472124     5.7624693501    20.1684109556
H       8.5839508749     6.7557060936    20.3728707888
H       9.2414194289     6.9233388672    22.7617963679
H      10.5264153310     5.6877267800    22.7865897464
H      10.0201610332     3.6142269398    21.6466899041
H       8.0605738653     3.8580941698    19.7296817547
H       9.4343166178     5.8252099936    24.8496422322
O       6.6760258861     2.7977434645    19.2295526344
H       6.9593460291     2.0528341599    19.6985103453
80
Step 4 | ATOMIC_POSITIONS (crystal) | Cartesian Angstrom
Ni      1.2286502138     0.7093620201    11.2500035815
Ni      2.4573004768     2.8374481654    11.2500035815
Ni      3.6859507398     4.9655343107    11.2500035815
Ni      4.9146010028     7.0936204560    11.2500035815
Ni      3.6859507398     0.7093620201    11.2500035815
Ni      4.9146010028     2.8374481654    11.2500035815
Ni      6.1432512658     4.9655343107    11.2500035815
Ni      7.3719015288     7.0936204560    11.2500035815
Ni      6.1432512658     0.7093620201    11.2500035815
Ni      7.3719015288     2.8374481654    11.2500035815
Ni      8.6005517918     4.9655343107    11.2500035815
Ni      9.8292020548     7.0936204560    11.2500035815
Ni      8.6005517918     0.7093620201    11.2500035815
Ni      9.8292020548     2.8374481654    11.2500035815
Ni     11.0578523178     4.9655343107    11.2500035815
Ni     12.2865025808     7.0936204560    11.2500035815
Ni      4.9077298539    -0.0168637888    13.4923971559
Ni      6.0787432253     2.0780635030    13.1860092490
Ni      7.4148904514     4.2517505073    13.1218599837
Ni     13.5046111955     6.3842108451    13.3000533269
Ni      2.4480893979    -0.0001035135    13.3016674495
Ni      3.6763064343     2.1313858850    13.3052229620
Ni      4.9062402334     4.2542631658    13.3050039283
Ni      6.1359067253     6.3823280481    13.3015489276
Ni      4.9126950330     0.0178921243    13.1063736566
Ni      6.1989060560     2.1812486314    13.4156405001
Ni      7.3217058593     4.2588747600    13.4941899095
Ni      8.5923774238     6.3814231893    13.3059623487
Ni      7.3625640900     0.0014661381    13.2981885489
Ni      8.5902546666     2.1344045233    13.3073680580
Ni      9.8148758920     4.2539576518    13.3134692763
Ni     11.0456750412     6.3819337265    13.3016705336
Ni      2.4425934963     1.4179550817    15.3327418067
Ni      3.6778370097     3.5413152576    15.3549134317
Ni      4.8999023953     5.6736406986    15.3278658153
Ni      6.1272347589     7.8015725832    15.3324291211
Ni      4.8996673511     1.4218458140    15.3296315037
Ni      6.1332441832     3.5427274139    15.3433391180
Ni      7.3656167517     5.6686397915    15.3439157656
Ni      8.5872810784     7.8006488423    15.3236407685
Ni      7.3590148015     1.4252909403    15.3349686857
Ni      8.5737508249     3.5483870888    15.3889457870
Ni      9.8038827836     5.6621054511    15.3562501930
Ni     11.0447053437     7.7971924023    15.3204601493
Ni      9.8127826194     1.4205900720    15.3268858061
Ni     11.0418033465     3.5448253289    15.3308312075
Ni     12.2695949348     5.6718087604    15.3286655701
Ni     13.4981973684     7.8012125647    15.3259401473
Ni      1.2104034678     0.7123177087    17.3905640302
Ni      2.4362450516     2.8335736773    17.3904866260
Ni      3.6592562522     4.9732343895    17.3845106890
Ni      4.8899351671     7.1016715158    17.3825448889
Ni      3.6619490579     0.7059209133    17.3790723923
Ni      4.8783090114     2.8379587086    17.4262352814
Ni      6.0993107211     5.0000578334    17.3463378410
Ni      7.3461331584     7.1212362017    17.3674136172
Ni      6.1191552408     0.6651689463    17.3428069550
Ni      7.3406328593     2.7955256361    17.4653685441
Ni      8.5944712100     4.9936672835    17.5044198343
Ni      9.8222522486     7.1056459507    17.3601863350
Ni      8.5957314479     0.6885546765    17.3653151424
Ni      9.8315313226     2.8220832787    17.3708659087
Ni     11.0580887332     4.9615301149    17.3778522398
Ni     12.2700267164     7.0852153644    17.3851300118
O       9.0571515918     3.6957124343    21.7237179501
O       8.2704885971     4.9721059709    19.4265312950
O       8.9562534217     5.3704439728    24.1387569266
C       8.7184895034     5.0932236649    21.7742950315
C       8.9608311898     5.7357128277    20.4091529221
C       9.4373684814     5.8440371607    22.8832040434
H       7.6404058957     5.1028078524    21.9893685859
H      10.0313344613     5.7622129549    20.1682571095
H       8.5842847577     6.7557776816    20.3728125424
H       9.2415380718     6.9233160890    22.7616342820
H      10.5264154371     5.6875767840    22.7865377725
H      10.0200554135     3.6141489055    21.6464475038
H       8.0598740001     3.8579436826    19.7294982076
H       9.4342515485     5.8251903948    24.8495190184
O       6.6768617728     2.7977976992    19.2299592965
H       6.9606687399     2.0530550195    19.6988924196
80
Step 5 | ATOMIC_POSITIONS (crystal) | Cartesian Angstrom
Ni      1.2286502138     0.7093620201    11.2500035815
Ni      2.4573004768     2.8374481654    11.2500035815
Ni      3.6859507398     4.9655343107    11.2500035815
Ni      4.9146010028     7.0936204560    11.2500035815
Ni      3.6859507398     0.7093620201    11.2500035815
Ni      4.9146010028     2.8374481654    11.2500035815
Ni      6.1432512658     4.9655343107    11.2500035815
Ni      7.3719015288     7.0936204560    11.2500035815
Ni      6.1432512658     0.7093620201    11.2500035815
Ni      7.3719015288     2.8374481654    11.2500035815
Ni      8.6005517918     4.9655343107    11.2500035815
Ni      9.8292020548     7.0936204560    11.2500035815
Ni      8.6005517918     0.7093620201    11.2500035815
Ni      9.8292020548     2.8374481654    11.2500035815
Ni     11.0578523178     4.9655343107    11.2500035815
Ni     12.2865025808     7.0936204560    11.2500035815
Ni      4.9086730454    -0.0249162540    13.5802766277
Ni      6.0484470025     2.0502483267    13.1241573683
Ni      7.4377184018     4.2502491953    13.0432293555
Ni     13.5046108697     6.3842091129    13.3000545211
Ni      2.4479026008     0.0000673429    13.3019117281
Ni      3.6763889888     2.1313223881    13.3050550364
Ni      4.9063445964     4.2542876771    13.3048320103
Ni      6.1359030030     6.3823309474    13.3015501682
Ni      4.9150592117     0.0257714450    13.0182192389
Ni      6.2322574823     2.2090672391    13.4775515741
Ni      7.3019685610     4.2603922403    13.5728492996
Ni      8.5923768223     6.3814220946    13.3059636666
Ni      7.3625684866     0.0014390127    13.2982200586
Ni      8.5902526349     2.1344534829    13.3074750318
Ni      9.8148294396     4.2539331286    13.3136118488
Ni     11.0456769200     6.3819281161    13.3016695867
Ni      2.4425899765     1.4179529060    15.3327404192
Ni      3.6778290461     3.5413163046    15.3548981619
Ni      4.8999006418     5.6736374452    15.3278676704
Ni      6.1272318504     7.8015691357    15.3324296931
Ni      4.8996631570     1.4218427053    15.3296325279
Ni      6.1332414934     3.5427238906    15.3433513849
Ni      7.3656129842     5.6686401746    15.3439204227
Ni      8.5872736937     7.8006442457    15.3236468710
Ni      7.3590138201     1.4252881116    15.3349785873
Ni      8.5737505644     3.5483850986    15.3889502509
Ni      9.8038809573     5.6621036192    15.3562479707
Ni     11.0447054729     7.7971879205    15.3204656915
Ni      9.8127796632     1.4205876945    15.3268830737
Ni     11.0417989734     3.5448226560    15.3308299708
Ni     12.2695916415     5.6718074997    15.3286656474
Ni     13.4981956812     7.8012095624    15.3259389492
Ni      1.2103988678     0.7123126932    17.3905604978
Ni      2.4362408825     2.8335706613    17.3904851844
Ni      3.6592525505     4.9732246411    17.3845116243
Ni      4.8899311057     7.1016637066    17.3825452599
Ni      3.6619449906     0.7059201114    17.3790763885
Ni      4.8782977236     2.8379498506    17.4261977156
Ni      6.0993030735     5.0000409509    17.3463447706
Ni      7.3461261580     7.1212298686    17.3674202685
Ni      6.1191455506     0.6651752633    17.3428163464
Ni      7.3406215640     2.7955112732    17.4653926875
Ni      8.5944695778     4.9936676793    17.5044203213
Ni      9.8222497107     7.1056457754    17.3601858674
Ni      8.5957277595     0.6885469975    17.3653119114
Ni      9.8315275968     2.8220793996    17.3708663415
Ni     11.0580849553     4.9615276812    17.3778518959
Ni     12.2700224171     7.0852137590    17.3851325394
O       9.0571165694     3.6957008133    21.7236855090
O       8.2704481273     4.9721639672    19.4264771839
O       8.9562115719     5.3704603029    24.1387051267
C       8.7184900794     5.0932200574    21.7742394402
C       8.9608631352     5.7356996821    20.4090989153
C       9.4373721727     5.8440222428    22.8831566339
H       7.6404035638     5.1028352681    21.9892998466
H      10.0313687617     5.7621139555    20.1681976534
H       8.5844131787     6.7558061358    20.3727898831
H       9.2415838758     6.9233074830    22.7615716645
H      10.5264157015     5.6875188541    22.7865176331
H      10.0200152140     3.6141187224    21.6463537940
H       8.0596039206     3.8578927422    19.7294253870
H       9.4342265027     5.8251828971    24.8494714930
O       6.6771840192     2.7978246459    19.2301135407
H       6.9611809465     2.0531344397    19.6990430386
80
Step 6 | ATOMIC_POSITIONS (crystal) | Cartesian Angstrom
Ni      1.2286502138     0.7093620201    11.2500035815
Ni      2.4573004768     2.8374481654    11.2500035815
Ni      3.6859507398     4.9655343107    11.2500035815
Ni      4.9146010028     7.0936204560    11.2500035815
Ni      3.6859507398     0.7093620201    11.2500035815
Ni      4.9146010028     2.8374481654    11.2500035815
Ni      6.1432512658     4.9655343107    11.2500035815
Ni      7.3719015288     7.0936204560    11.2500035815
Ni      6.1432512658     0.7093620201    11.2500035815
Ni      7.3719015288     2.8374481654    11.2500035815
Ni      8.6005517918     4.9655343107    11.2500035815
Ni      9.8292020548     7.0936204560    11.2500035815
Ni      8.6005517918     0.7093620201    11.2500035815
Ni      9.8292020548     2.8374481654    11.2500035815
Ni     11.0578523178     4.9655343107    11.2500035815
Ni     12.2865025808     7.0936204560    11.2500035815
Ni      4.9087737058    -0.0329506006    13.6682800515
Ni      6.0185602524     2.0234270619    13.0645159682
Ni      7.4601381242     4.2487291961    12.9632853055
Ni     13.5046105473     6.3842078496    13.3000553946
Ni      2.4477422929     0.0002118867    13.3021169413
Ni      3.6764501786     2.1312737911    13.3049194399
Ni      4.9064275190     4.2543113065    13.3046883982
Ni      6.1358984781     6.3823363298    13.3015513972
Ni      4.9174174162     0.0336554321    12.9299776700
Ni      6.2644002948     2.2358788151    13.5372183621
Ni      7.2818467300     4.2619407695    13.6527924645
Ni      8.5923764773     6.3814218307    13.3059646057
Ni      7.3625768842     0.0014090893    13.2982524920
Ni      8.5902559596     2.1345026511    13.3075833158
Ni      9.8147846824     4.2539076392    13.3137563962
Ni     11.0456800280     6.3819207682    13.3016690534
Ni      2.4425865279     1.4179516095    15.3327385873
Ni      3.6778225077     3.5413173329    15.3548862970
Ni      4.8998988086     5.6736353988    15.3278685322
Ni      6.1272291597     7.8015669932    15.3324291752
Ni      4.8996580138     1.4218404231    15.3296364468
Ni      6.1332374954     3.5427230181    15.3433660711
Ni      7.3656105662     5.6686420098    15.3439245619
Ni      8.5872667361     7.8006401997    15.3236517677
Ni      7.3590157830     1.4252840478    15.3349892039
Ni      8.5737511104     3.5483831416    15.3889540307
Ni      9.8038799179     5.6621019415    15.3562460924
Ni     11.0447071768     7.7971837537    15.3204706693
Ni      9.8127779186     1.4205856022    15.3268798311
Ni     11.0417961938     3.5448203730    15.3308275050
Ni     12.2695893454     5.6718060577    15.3286648242
Ni     13.4981949568     7.8012074905    15.3259372177
Ni      1.2103953622     0.7123088431    17.3905577422
Ni      2.4362378591     2.8335684805    17.3904839786
Ni      3.6592498529     4.9732173673    17.3845122659
Ni      4.8899281977     7.1016579956    17.3825456271
Ni      3.6619420875     0.7059193751    17.3790796736
Ni      4.8782897211     2.8379430433    17.4261701132
Ni      6.0992972340     5.0000286284    17.3463499726
Ni      7.3461212680     7.1212250199    17.3674254049
Ni      6.1191383994     0.6651801162    17.3428238905
Ni      7.3406130510     2.7955006311    17.4654105004
Ni      8.5944683025     4.9936680666    17.5044207387
Ni      9.8222476682     7.1056456852    17.3601858635
Ni      8.5957250373     0.6885409631    17.3653097200
Ni      9.8315246363     2.8220766382    17.3708669019
Ni     11.0580822842     4.9615260204    17.3778515712
Ni     12.2700190442     7.0852126822    17.3851348003
O       9.0570898600     3.6956923256    21.7236615240
O       8.2704164537     4.9721998366    19.4264382422
O       8.9561804438     5.3704722219    24.1386668342
C       8.7184906653     5.0932173215    21.7741983844
C       8.9608872713     5.7356888859    20.4090598383
C       9.4373748635     5.8440111827    22.8831214796
H       7.6404017385     5.1028555497    21.9892489510
H      10.0313947565     5.7620406685    20.1681535792
H       8.5845077385     6.7558280125    20.3727729359
H       9.2416177743     6.9233013022    22.7615252791
H      10.5264161193     5.6874759604    22.7865026531
H      10.0199860375     3.6140963307    21.6462843048
H       8.0594041283     3.8578621063    19.7293695367
H       9.4342080410     5.8251774177    24.8494363542
O       6.6774221916     2.7978504996    19.2302250093
H       6.9615616521     2.0531874478    19.6991576299
80
Step 7 | ATOMIC_POSITIONS (crystal) | Cartesian Angstrom
Ni      1.2286502138     0.7093620201    11.2500035815
Ni      2.4573004768     2.8374481654    11.2500035815
Ni      3.6859507398     4.9655343107    11.2500035815
Ni      4.9146010028     7.0936204560    11.2500035815
Ni      3.6859507398     0.7093620201    11.2500035815
Ni      4.9146010028     2.8374481654    11.2500035815
Ni      6.1432512658     4.9655343107    11.2500035815
Ni      7.3719015288     7.0936204560    11.2500035815
Ni      6.1432512658     0.7093620201    11.2500035815
Ni      7.3719015288     2.8374481654    11.2500035815
Ni      8.6005517918     4.9655343107    11.2500035815
Ni      9.8292020548     7.0936204560    11.2500035815
Ni      8.6005517918     0.7093620201    11.2500035815
Ni      9.8292020548     2.8374481654    11.2500035815
Ni     11.0578523178     4.9655343107    11.2500035815
Ni     12.2865025808     7.0936204560    11.2500035815
Ni      4.9092200469    -0.0407124067    13.7531041006
Ni      5.9864415451     1.9943834504    12.9999223590
Ni      7.4809097544     4.2473696164    12.8910139600
Ni     13.5046101020     6.3842066681    13.3000566545
Ni      2.4475898306     0.0003434169    13.3023014778
Ni      3.6764939303     2.1312363844    13.3048000330
Ni      4.9064904038     4.2543372649    13.3045618453
Ni      6.1358904693     6.3823473550    13.3015531634
Ni      4.9196578447     0.0412553819    12.8449508348
Ni      6.2990370564     2.2649104183    13.6018273493
Ni      7.2636420663     4.2633435775    13.7250541248
Ni      8.5923766183     6.3814215524    13.3059659004
Ni      7.3625943536     0.0013844647    13.2982715571
Ni      8.5902683498     2.1345425374    13.3076844383
Ni      9.8147526269     4.2538825678    13.3138891599
Ni     11.0456864848     6.3819069935    13.3016685741
Ni      2.4425812673     1.4179508656    15.3327343862
Ni      3.6778144669     3.5413184319    15.3548720668
Ni      4.8998959405     5.6736335466    15.3278681573
Ni      6.1272256118     7.8015653222    15.3324275867
Ni      4.8996506380     1.4218434569    15.3296494403
Ni      6.1332263486     3.5427220128    15.3433932755
Ni      7.3656082101     5.6686500200    15.3439352288
Ni      8.5872529678     7.8006329157    15.3236635592
Ni      7.3590202636     1.4252768064    15.3350017258
Ni      8.5737560801     3.5483789041    15.3889628772
Ni      9.8038789236     5.6620994090    15.3562430237
Ni     11.0447146097     7.7971757930    15.3204829323
Ni      9.8127768983     1.4205829021    15.3268742890
Ni     11.0417937561     3.5448173136    15.3308223069
Ni     12.2695869343     5.6718034785    15.3286626213
Ni     13.4981950418     7.8012054262    15.3259336119
Ni      1.2103915037     0.7123045707    17.3905544841
Ni      2.4362345171     2.8335660289    17.3904824056
Ni      3.6592471405     4.9732091487    17.3845128920
Ni      4.8899252205     7.1016515688    17.3825457662
Ni      3.6619391432     0.7059184396    17.3790841683
Ni      4.8782813403     2.8379355158    17.4261409764
Ni      6.0992904287     5.0000151695    17.3463560867
Ni      7.3461159357     7.1212198359    17.3674324233
Ni      6.1191307685     0.6651858816    17.3428328453