
     Program NEB v.7.5 starts on 21Jul2026 at 15:41:53 

     This program is part of the open-source Quantum ESPRESSO suite
     for quantum simulation of materials; please cite
         "P. Giannozzi et al., J. Phys.:Condens. Matter 21 395502 (2009);
         "P. Giannozzi et al., J. Phys.:Condens. Matter 29 465901 (2017);
         "P. Giannozzi et al., J. Chem. Phys. 152 154105 (2020);
          URL http://www.quantum-espresso.org", 
     in publications or presentations arising from this work. More details at
     http://www.quantum-espresso.org/quote

     Parallel version (MPI), running on    35 processors

     MPI processes distributed on     1 nodes
     205718 MiB available memory on the printing compute node when the environment starts
 

     Parsing file: input.neb.x
     Reading input from pw_1.in
     file Ni.pbe-n-rrkjus_psl.1.0.0.UPF: wavefunction(s)  3D renormalized
     Reading input from pw_2.in
     file Ni.pbe-n-rrkjus_psl.1.0.0.UPF: wavefunction(s)  3D renormalized
     Reading input from pw_3.in
     file Ni.pbe-n-rrkjus_psl.1.0.0.UPF: wavefunction(s)  3D renormalized
     Reading input from pw_4.in
     file Ni.pbe-n-rrkjus_psl.1.0.0.UPF: wavefunction(s)  3D renormalized
     Reading input from pw_5.in
     file Ni.pbe-n-rrkjus_psl.1.0.0.UPF: wavefunction(s)  3D renormalized

     restart file 'Ni111_4x4_neb.path' not found: 
     starting from scratch

     initial path length           = 21.6821 bohr
     initial inter-image distance  =  5.4205 bohr
 
     string_method                 =    neb
     restart_mode                  =    from_scratch
     opt_scheme                    =    broyden
     num_of_images                 =    5
     nstep_path                    =    300
     CI_scheme                     =    no-CI
     first_last_opt                =    F
     use_freezing                  =    F
     ds                            =    2.0000 a.u.
     k_max                         =    0.1542 a.u.
     k_min                         =    0.1028 a.u.
     suggested k_max               =    0.1542 a.u.
     suggested k_min               =    0.1028 a.u.
     path_thr                      =    0.2000 eV / A

     ------------------------------ iteration   1 ------------------------------

     tcpu =      0.9    self-consistency for image   1
     tcpu =    656.4    self-consistency for image   2
     tcpu =   1342.9    self-consistency for image   3
     tcpu =   1959.4    self-consistency for image   4
     tcpu =   2603.7    self-consistency for image   5

     activation energy (->) =   5.589945 eV
     activation energy (<-) =   5.767041 eV

     image        energy (eV)        error (eV/A)        frozen

         1     -89990.7548136            0.057880            T
         2     -89986.2567329            3.925827            F
         3     -89985.1648688            4.505475            F
         4     -89986.4945944            3.795970            F
         5     -89990.9319094            0.606797            T

     path length          = 21.682 bohr
     inter-image distance =  5.421 bohr

     ------------------------------ iteration   2 ------------------------------

     tcpu =   3258.0    self-consistency for image   2
     tcpu =   3880.7    self-consistency for image   3
     tcpu =   4585.4    self-consistency for image   4

     activation energy (->) =   4.485529 eV
     activation energy (<-) =   4.662624 eV

     image        energy (eV)        error (eV/A)        frozen

         1     -89990.7548136            0.057880            T
         2     -89986.9186468            2.044835            F
         3     -89986.2692850            2.025072            F
         4     -89986.9767243            1.799638            F
         5     -89990.9319094            0.606797            T

     path length          = 21.766 bohr
     inter-image distance =  5.442 bohr

     ------------------------------ iteration   3 ------------------------------

     tcpu =   5163.2    self-consistency for image   2
     tcpu =   5860.3    self-consistency for image   3
     tcpu =   6593.6    self-consistency for image   4

     activation energy (->) =   4.124464 eV
     activation energy (<-) =   4.301559 eV

     image        energy (eV)        error (eV/A)        frozen

         1     -89990.7548136            0.057880            T
         2     -89987.2115766            2.638050            F
         3     -89986.6303501            3.056846            F
         4     -89987.1843029            2.728064            F
         5     -89990.9319094            0.606797            T

     path length          = 21.912 bohr
     inter-image distance =  5.478 bohr

     ------------------------------ iteration   4 ------------------------------

     tcpu =   7311.8    self-consistency for image   2
     tcpu =   7907.4    self-consistency for image   3
     tcpu =   8591.1    self-consistency for image   4

     activation energy (->) =   3.615682 eV
     activation energy (<-) =   3.792777 eV

     image        energy (eV)        error (eV/A)        frozen

         1     -89990.7548136            0.057880            T
         2     -89987.5833507            1.511452            F
         3     -89987.1391319            1.612486            F
         4     -89987.6365582            1.551571            F
         5     -89990.9319094            0.606797            T

     path length          = 22.055 bohr
     inter-image distance =  5.514 bohr

     ------------------------------ iteration   5 ------------------------------

     tcpu =   9307.5    self-consistency for image   2
     tcpu =   9941.4    self-consistency for image   3
     tcpu =  10625.5    self-consistency for image   4

     activation energy (->) =   3.355667 eV
     activation energy (<-) =   3.532762 eV

     image        energy (eV)        error (eV/A)        frozen

         1     -89990.7548136            0.057880            T
         2     -89987.7662947            3.063356            F
         3     -89987.3991470            2.765273            F
         4     -89987.8542733            2.470544            F
         5     -89990.9319094            0.606797            T

     path length          = 22.113 bohr
     inter-image distance =  5.528 bohr

     ------------------------------ iteration   6 ------------------------------

     tcpu =  11285.6    self-consistency for image   2
     tcpu =  11826.0    self-consistency for image   3
     tcpu =  12521.3    self-consistency for image   4

     activation energy (->) =   3.471643 eV
     activation energy (<-) =   3.648738 eV

     image        energy (eV)        error (eV/A)        frozen

         1     -89990.7548136            0.057880            T
         2     -89987.6204412            3.691420            F
         3     -89987.2831710            3.292852            F
         4     -89987.6498565            5.908318            F
         5     -89990.9319094            0.606797            T

     path length          = 22.144 bohr
     inter-image distance =  5.536 bohr

     ------------------------------ iteration   7 ------------------------------

     tcpu =  13250.6    self-consistency for image   2
     tcpu =  13942.2    self-consistency for image   3
     tcpu =  14551.4    self-consistency for image   4
