
     Program NEB v.7.5 starts on 16Jul2026 at 20:36:29 

     This program is part of the open-source Quantum ESPRESSO suite
     for quantum simulation of materials; please cite
         "P. Giannozzi et al., J. Phys.:Condens. Matter 21 395502 (2009);
         "P. Giannozzi et al., J. Phys.:Condens. Matter 29 465901 (2017);
         "P. Giannozzi et al., J. Chem. Phys. 152 154105 (2020);
          URL http://www.quantum-espresso.org", 
     in publications or presentations arising from this work. More details at
     http://www.quantum-espresso.org/quote

     Parallel version (MPI), running on    35 processors

     MPI processes distributed on     1 nodes
     228698 MiB available memory on the printing compute node when the environment starts
 

     Parsing file: input.neb.x
     Reading input from pw_1.in
     file Ni.pbe-n-rrkjus_psl.1.0.0.UPF: wavefunction(s)  3D renormalized
     Reading input from pw_2.in
     file Ni.pbe-n-rrkjus_psl.1.0.0.UPF: wavefunction(s)  3D renormalized
     Reading input from pw_3.in
     file Ni.pbe-n-rrkjus_psl.1.0.0.UPF: wavefunction(s)  3D renormalized
     Reading input from pw_4.in
     file Ni.pbe-n-rrkjus_psl.1.0.0.UPF: wavefunction(s)  3D renormalized
     Reading input from pw_5.in
     file Ni.pbe-n-rrkjus_psl.1.0.0.UPF: wavefunction(s)  3D renormalized

     reading file 'Ni111_4x4_neb.path'

 
     string_method                 =    neb
     restart_mode                  =    restart
     opt_scheme                    =    broyden
     num_of_images                 =    5
     nstep_path                    =    120
     CI_scheme                     =    auto
     first_last_opt                =    F
     use_freezing                  =    F
     ds                            =    2.0000 a.u.
     k_max                         =    0.1542 a.u.
     k_min                         =    0.1028 a.u.
     suggested k_max               =    0.1542 a.u.
     suggested k_min               =    0.1028 a.u.
     path_thr                      =    0.0600 eV / A

     ------------------------------ iteration  81 ------------------------------

     tcpu =      0.9    self-consistency for image   2
     tcpu =    523.5    self-consistency for image   3
     tcpu =   1129.9    self-consistency for image   4

     activation energy (->) =   0.032935 eV
     activation energy (<-) =   0.149719 eV

     image        energy (eV)        error (eV/A)        frozen

         1     -89990.8440792            0.040224            T
         2     -89990.8111443            0.429512            F
         3     -89990.8402843            0.385307            F
         4     -89990.9278053            0.218597            F
         5     -89990.9608631            0.107170            T

     climbing image =  2

     path length          =  5.730 bohr
     inter-image distance =  1.433 bohr

     ------------------------------ iteration  82 ------------------------------

     tcpu =   1746.6    self-consistency for image   2
     tcpu =   2060.1    self-consistency for image   3
