
     Program NEB v.7.5 starts on 15Jul2026 at 22:37: 0 

     This program is part of the open-source Quantum ESPRESSO suite
     for quantum simulation of materials; please cite
         "P. Giannozzi et al., J. Phys.:Condens. Matter 21 395502 (2009);
         "P. Giannozzi et al., J. Phys.:Condens. Matter 29 465901 (2017);
         "P. Giannozzi et al., J. Chem. Phys. 152 154105 (2020);
          URL http://www.quantum-espresso.org", 
     in publications or presentations arising from this work. More details at
     http://www.quantum-espresso.org/quote

     Parallel version (MPI), running on    35 processors

     MPI processes distributed on     1 nodes
     234309 MiB available memory on the printing compute node when the environment starts
 

     Parsing file: input.neb.x
     Reading input from pw_1.in
     file Ni.pbe-n-rrkjus_psl.1.0.0.UPF: wavefunction(s)  3D renormalized
     Reading input from pw_2.in
     file Ni.pbe-n-rrkjus_psl.1.0.0.UPF: wavefunction(s)  3D renormalized
     Reading input from pw_3.in
     file Ni.pbe-n-rrkjus_psl.1.0.0.UPF: wavefunction(s)  3D renormalized
     Reading input from pw_4.in
     file Ni.pbe-n-rrkjus_psl.1.0.0.UPF: wavefunction(s)  3D renormalized
     Reading input from pw_5.in
     file Ni.pbe-n-rrkjus_psl.1.0.0.UPF: wavefunction(s)  3D renormalized

     initial path length           =  4.7644 bohr
     initial inter-image distance  =  1.1911 bohr
 
     string_method                 =    neb
     restart_mode                  =    from_scratch
     opt_scheme                    =    broyden
     num_of_images                 =    5
     nstep_path                    =    80
     CI_scheme                     =    no-CI
     first_last_opt                =    F
     use_freezing                  =    F
     ds                            =    2.0000 a.u.
     k_max                         =    0.1542 a.u.
     k_min                         =    0.1028 a.u.
     suggested k_max               =    0.1542 a.u.
     suggested k_min               =    0.1028 a.u.
     path_thr                      =    0.2000 eV / A

     ------------------------------ iteration   1 ------------------------------

     tcpu =      0.9    self-consistency for image   1
     tcpu =    668.4    self-consistency for image   2
     tcpu =   1262.2    self-consistency for image   3
     tcpu =   1851.7    self-consistency for image   4
     tcpu =   2465.0    self-consistency for image   5

     activation energy (->) =   0.607578 eV
     activation energy (<-) =   0.724362 eV

     image        energy (eV)        error (eV/A)        frozen

         1     -89990.8440792            0.040224            T
         2     -89990.5572412            2.660053            F
         3     -89990.2365008            2.804507            F
         4     -89990.4943064            2.712354            F
         5     -89990.9608631            0.107170            T

     path length          =  4.764 bohr
     inter-image distance =  1.191 bohr

     ------------------------------ iteration   2 ------------------------------

     tcpu =   3109.2    self-consistency for image   2
     tcpu =   3794.4    self-consistency for image   3
     tcpu =   4459.4    self-consistency for image   4
