
     Program NEB v.7.5 starts on 16Jul2026 at 20:33:41 

     This program is part of the open-source Quantum ESPRESSO suite
     for quantum simulation of materials; please cite
         "P. Giannozzi et al., J. Phys.:Condens. Matter 21 395502 (2009);
         "P. Giannozzi et al., J. Phys.:Condens. Matter 29 465901 (2017);
         "P. Giannozzi et al., J. Chem. Phys. 152 154105 (2020);
          URL http://www.quantum-espresso.org", 
     in publications or presentations arising from this work. More details at
     http://www.quantum-espresso.org/quote

     Parallel version (MPI), running on    35 processors

     MPI processes distributed on     1 nodes
     228643 MiB available memory on the printing compute node when the environment starts
 

     Parsing file: input.neb.x
     Reading input from pw_1.in
     file Ni.pbe-n-rrkjus_psl.1.0.0.UPF: wavefunction(s)  3D renormalized
     Reading input from pw_2.in
     file Ni.pbe-n-rrkjus_psl.1.0.0.UPF: wavefunction(s)  3D renormalized
     Reading input from pw_3.in
     file Ni.pbe-n-rrkjus_psl.1.0.0.UPF: wavefunction(s)  3D renormalized
     Reading input from pw_4.in
     file Ni.pbe-n-rrkjus_psl.1.0.0.UPF: wavefunction(s)  3D renormalized
     Reading input from pw_5.in
     file Ni.pbe-n-rrkjus_psl.1.0.0.UPF: wavefunction(s)  3D renormalized

     reading file 'Ni111_4x4_neb.path'

 
     string_method                 =    neb
     restart_mode                  =    restart
     opt_scheme                    =    broyden
     num_of_images                 =    5
     nstep_path                    =    80
     CI_scheme                     =    auto
     first_last_opt                =    F
     use_freezing                  =    F
     ds                            =    2.0000 a.u.
     k_max                         =    0.1542 a.u.
     k_min                         =    0.1028 a.u.
     suggested k_max               =    0.1542 a.u.
     suggested k_min               =    0.1028 a.u.
     path_thr                      =    0.0700 eV / A
 laxlib_end: laxlib was not initialized 
 laxlib_end: laxlib was not initialized 
 laxlib_end: laxlib was not initialized 
 laxlib_end: laxlib was not initialized 
 laxlib_end: laxlib was not initialized 
 laxlib_end: laxlib was not initialized 
 laxlib_end: laxlib was not initialized 
 laxlib_end: laxlib was not initialized 
 laxlib_end: laxlib was not initialized 
 laxlib_end: laxlib was not initialized 
 laxlib_end: laxlib was not initialized 
 laxlib_end: laxlib was not initialized 
 laxlib_end: laxlib was not initialized 
 laxlib_end: laxlib was not initialized 
 laxlib_end: laxlib was not initialized 
 laxlib_end: laxlib was not initialized 
 laxlib_end: laxlib was not initialized 
 laxlib_end: laxlib was not initialized 
 laxlib_end: laxlib was not initialized 
 laxlib_end: laxlib was not initialized 
 laxlib_end: laxlib was not initialized 
 laxlib_end: laxlib was not initialized 
 laxlib_end: laxlib was not initialized 
 laxlib_end: laxlib was not initialized 
 laxlib_end: laxlib was not initialized 
 laxlib_end: laxlib was not initialized 
 laxlib_end: laxlib was not initialized 
 laxlib_end: laxlib was not initialized 
 laxlib_end: laxlib was not initialized 
 laxlib_end: laxlib was not initialized 
 laxlib_end: laxlib was not initialized 
 laxlib_end: laxlib was not initialized 
 laxlib_end: laxlib was not initialized 
 laxlib_end: laxlib was not initialized 

     activation energy (->) =   0.000000 eV
     activation energy (<-) =   0.116784 eV

     image        energy (eV)        error (eV/A)        frozen

         1     -89990.8440792            0.000000            F
         2     -89990.8111484            0.000000            F
         3     -89990.8402828            0.000000            F
         4     -89990.9278066            0.000000            F
         5     -89990.9608631            0.000000            F

     climbing image =  2

     path length          =  5.730 bohr
     inter-image distance =  1.433 bohr
 laxlib_end: laxlib was not initialized 
 
     NEB          :      0.92s CPU      0.97s WALL

 
   This run was terminated on:  20:33:42  16Jul2026            

=------------------------------------------------------------------------------=
   JOB DONE.
=------------------------------------------------------------------------------=
