
     Program NEB v.7.5 starts on 22Jul2026 at 15:25:24 

     This program is part of the open-source Quantum ESPRESSO suite
     for quantum simulation of materials; please cite
         "P. Giannozzi et al., J. Phys.:Condens. Matter 21 395502 (2009);
         "P. Giannozzi et al., J. Phys.:Condens. Matter 29 465901 (2017);
         "P. Giannozzi et al., J. Chem. Phys. 152 154105 (2020);
          URL http://www.quantum-espresso.org", 
     in publications or presentations arising from this work. More details at
     http://www.quantum-espresso.org/quote

     Parallel version (MPI), running on    35 processors

     MPI processes distributed on     1 nodes
     200802 MiB available memory on the printing compute node when the environment starts
 

     Parsing file: input.neb.x
     Reading input from pw_1.in
     file Ni.pbe-n-rrkjus_psl.1.0.0.UPF: wavefunction(s)  3D renormalized
     Reading input from pw_2.in
     file Ni.pbe-n-rrkjus_psl.1.0.0.UPF: wavefunction(s)  3D renormalized
     Reading input from pw_3.in
     file Ni.pbe-n-rrkjus_psl.1.0.0.UPF: wavefunction(s)  3D renormalized
     Reading input from pw_4.in
     file Ni.pbe-n-rrkjus_psl.1.0.0.UPF: wavefunction(s)  3D renormalized
     Reading input from pw_5.in
     file Ni.pbe-n-rrkjus_psl.1.0.0.UPF: wavefunction(s)  3D renormalized

     reading file 'Ni111_4x4_neb.path'

 
     string_method                 =    neb
     restart_mode                  =    restart
     opt_scheme                    =    broyden
     num_of_images                 =    5
     nstep_path                    =    300
     CI_scheme                     =    auto
     first_last_opt                =    F
     use_freezing                  =    F
     ds                            =    2.0000 a.u.
     k_max                         =    0.1542 a.u.
     k_min                         =    0.1028 a.u.
     suggested k_max               =    0.1542 a.u.
     suggested k_min               =    0.1028 a.u.
     path_thr                      =    0.0500 eV / A

     ------------------------------ iteration  55 ------------------------------

     tcpu =      1.0    self-consistency for image   2
     tcpu =    700.5    self-consistency for image   3
     tcpu =   1660.0    self-consistency for image   4

     activation energy (->) =   0.411591 eV
     activation energy (<-) =   0.588687 eV

     image        energy (eV)        error (eV/A)        frozen

         1     -89990.7548136            0.057880            T
         2     -89990.3432222            0.103317            F
         3     -89990.4952630            0.166191            F
         4     -89990.9282399            0.154950            F
         5     -89990.9319094            0.606797            T

     climbing image =  2

     path length          = 25.463 bohr
     inter-image distance =  6.366 bohr

     ------------------------------ iteration  56 ------------------------------

     tcpu =   2556.9    self-consistency for image   2
     tcpu =   3032.9    self-consistency for image   3
     tcpu =   3597.3    self-consistency for image   4

     activation energy (->) =   0.423114 eV
     activation energy (<-) =   0.600210 eV

     image        energy (eV)        error (eV/A)        frozen

         1     -89990.7548136            0.057880            T
         2     -89990.3316997            0.775606            F
         3     -89990.4833758            0.816445            F
         4     -89990.9003116            0.993363            F
         5     -89990.9319094            0.606797            T

     climbing image =  2

     path length          = 25.572 bohr
     inter-image distance =  6.393 bohr

     ------------------------------ iteration  57 ------------------------------

     tcpu =   4142.4    self-consistency for image   2
     tcpu =   4760.0    self-consistency for image   3
     tcpu =   5415.7    self-consistency for image   4

     activation energy (->) =   0.496794 eV
     activation energy (<-) =   0.673890 eV

     image        energy (eV)        error (eV/A)        frozen

         1     -89990.7548136            0.057880            T
         2     -89990.2580198            1.720142            F
         3     -89990.3761144            3.737379            F
         4     -89990.6364372            4.455328            F
         5     -89990.9319094            0.606797            T

     climbing image =  2

     path length          = 25.956 bohr
     inter-image distance =  6.489 bohr

     ------------------------------ iteration  58 ------------------------------

     tcpu =   6184.9    self-consistency for image   2
     tcpu =   6714.9    self-consistency for image   3
     tcpu =   7297.1    self-consistency for image   4

     activation energy (->) =   0.556033 eV
     activation energy (<-) =   0.733128 eV

     image        energy (eV)        error (eV/A)        frozen

         1     -89990.7548136            0.057880            T
         2     -89990.2945362            1.892556            F
         3     -89990.1987810            3.750011            F
         4     -89990.4670442            4.556833            F
         5     -89990.9319094            0.606797            T

     climbing image =  3

     path length          = 25.993 bohr
     inter-image distance =  6.498 bohr

     ------------------------------ iteration  59 ------------------------------

     tcpu =   7836.4    self-consistency for image   2
     tcpu =   8388.9    self-consistency for image   3
     tcpu =   9000.1    self-consistency for image   4

     activation energy (->) =   0.415707 eV
     activation energy (<-) =   0.592803 eV

     image        energy (eV)        error (eV/A)        frozen

         1     -89990.7548136            0.057880            T
         2     -89990.3391062            0.820918            F
         3     -89990.5423302            0.553119            F
         4     -89990.9326099            1.038938            F
         5     -89990.9319094            0.606797            T

     climbing image =  2

     path length          = 25.829 bohr
     inter-image distance =  6.457 bohr

     ------------------------------ iteration  60 ------------------------------

     tcpu =   9768.4    self-consistency for image   2
     tcpu =  10304.1    self-consistency for image   3
     tcpu =  10797.2    self-consistency for image   4

     activation energy (->) =   0.514188 eV
     activation energy (<-) =   0.691284 eV

     image        energy (eV)        error (eV/A)        frozen

         1     -89990.7548136            0.057880            T
         2     -89990.2406253            2.373741            F
         3     -89990.5271552            0.673061            F
         4     -89990.8188967            3.153210            F
         5     -89990.9319094            0.606797            T

     climbing image =  2

     path length          = 25.814 bohr
     inter-image distance =  6.453 bohr

     ------------------------------ iteration  61 ------------------------------

     tcpu =  11382.3    self-consistency for image   2
     tcpu =  11935.9    self-consistency for image   3
     tcpu =  12336.3    self-consistency for image   4

     activation energy (->) =   0.402482 eV
     activation energy (<-) =   0.579578 eV

     image        energy (eV)        error (eV/A)        frozen

         1     -89990.7548136            0.057880            T
         2     -89990.3523315            0.712885            F
         3     -89990.5493570            0.343887            F
         4     -89990.9400276            0.920996            F
         5     -89990.9319094            0.606797            T

     climbing image =  2

     path length          = 25.819 bohr
     inter-image distance =  6.455 bohr

     ------------------------------ iteration  62 ------------------------------

     tcpu =  12755.6    self-consistency for image   2
     tcpu =  13080.7    self-consistency for image   3
     tcpu =  13352.0    self-consistency for image   4

     activation energy (->) =   0.406648 eV
     activation energy (<-) =   0.583744 eV

     image        energy (eV)        error (eV/A)        frozen

         1     -89990.7548136            0.057880            T
         2     -89990.3481651            0.745405            F
         3     -89990.5503342            0.302994            F
         4     -89990.9545339            0.812559            F
         5     -89990.9319094            0.606797            T

     climbing image =  2

     path length          = 25.834 bohr
     inter-image distance =  6.458 bohr

     ------------------------------ iteration  63 ------------------------------

     tcpu =  13818.4    self-consistency for image   2
     tcpu =  14097.5    self-consistency for image   3
     tcpu =  14286.2    self-consistency for image   4

     activation energy (->) =   0.398240 eV
     activation energy (<-) =   0.575335 eV

     image        energy (eV)        error (eV/A)        frozen

         1     -89990.7548136            0.057880            T
         2     -89990.3565740            0.525635            F
         3     -89990.5545368            0.128145            F
         4     -89990.9622683            0.391394            F
         5     -89990.9319094            0.606797            T

     climbing image =  2

     path length          = 25.846 bohr
     inter-image distance =  6.462 bohr

     ------------------------------ iteration  64 ------------------------------

     tcpu =  14605.7    self-consistency for image   2
     tcpu =  14865.2    self-consistency for image   3
     tcpu =  15085.5    self-consistency for image   4

     activation energy (->) =   0.394177 eV
     activation energy (<-) =   0.571273 eV

     image        energy (eV)        error (eV/A)        frozen

         1     -89990.7548136            0.057880            T
         2     -89990.3606363            0.340856            F
         3     -89990.5559520            0.154225            F
         4     -89990.9646927            0.241297            F
         5     -89990.9319094            0.606797            T

     climbing image =  2

     path length          = 25.853 bohr
     inter-image distance =  6.463 bohr

     ------------------------------ iteration  65 ------------------------------

     tcpu =  15301.7    self-consistency for image   2
     tcpu =  15493.0    self-consistency for image   3
     tcpu =  15727.6    self-consistency for image   4
