80
Step 1 | NEB Image 1 | Cartesian Angstrom
Ni      1.2286497520     0.7093615510    11.2500000000
Ni      2.4572990100     2.8374462050    11.2500000000
Ni      3.6859482670     4.9655308580    11.2500000000
Ni      4.9145975240     7.0936155120    11.2500000000
Ni      3.6859497520     0.7093615510    11.2500000000
Ni      4.9145990100     2.8374462050    11.2500000000
Ni      6.1432482670     4.9655308580    11.2500000000
Ni      7.3718975240     7.0936155120    11.2500000000
Ni      6.1432497520     0.7093615510    11.2500000000
Ni      7.3718990100     2.8374462050    11.2500000000
Ni      8.6005482670     4.9655308580    11.2500000000
Ni      9.8291975240     7.0936155120    11.2500000000
Ni      8.6005497520     0.7093615510    11.2500000000
Ni      9.8291990100     2.8374462050    11.2500000000
Ni     11.0578482670     4.9655308580    11.2500000000
Ni     12.2864975240     7.0936155120    11.2500000000
Ni      9.8231926171     0.0024995243    13.3023445018
Ni     11.0518089828     2.1302240239    13.3047084143
Ni     12.2800508463     4.2570722555    13.3044621731
Ni     13.5092872810     6.3850384707    13.3032135992
Ni      2.4517697468     0.0021660604    13.3026623602
Ni      3.6803279060     2.1303359400    13.3041136817
Ni      4.9088074779     4.2579363993    13.3054287219
Ni      6.1372745399     6.3857876859    13.3032783461
Ni      4.9086517489     0.0018312679    13.3024059973
Ni      6.1374036900     2.1309748259    13.3056096279
Ni      7.3661494965     4.2582451225    13.3069521294
Ni      8.5943412642     6.3854189356    13.3048452032
Ni      7.3652045598     0.0023769347    13.3020218594
Ni      8.5942385870     2.1304695640    13.3043867892
Ni      9.8231946460     4.2572739586    13.3057508082
Ni     11.0517679487     6.3857120742    13.3033345673
Ni      2.4490340007     1.4222228898    15.3362210296
Ni      3.6772966341     3.5494520402    15.3385526486
Ni      4.9062018309     5.6779299863    15.3378107865
Ni      6.1346571371     7.8070605965    15.3335997660
Ni      4.9058225440     1.4219700119    15.3362205140
Ni      6.1346426161     3.5508505239    15.3401416952
Ni      7.3625330181     5.6784279340    15.3395242275
Ni      8.5915701699     7.8062468637    15.3354849978
Ni      7.3627070876     1.4224398614    15.3370387851
Ni      8.5913286878     3.5492678034    15.3408173342
Ni      9.8201850892     5.6778143966    15.3377748313
Ni     11.0486432903     7.8070022870    15.3347461742
Ni      9.8200953687     1.4222882767    15.3366655971
Ni     11.0486075170     3.5492992344    15.3407266613
Ni     12.2774144290     5.6772885475    15.3359640395
Ni     13.5061541408     7.8063455598    15.3319300907
Ni      1.2187910907     0.7145173253    17.3879335108
Ni      2.4472474042     2.8420654675    17.3934583506
Ni      3.6755426414     4.9714604155    17.3911200986
Ni      4.9045370414     7.0991000162    17.3858411419
Ni      3.6755273378     0.7130852300    17.3897672756
Ni      4.9036999828     2.8423805674    17.3934479204
Ni      6.1319552592     4.9726957523    17.3963329095
Ni      7.3614524683     7.0997442315    17.3897409244
Ni      6.1332850858     0.7119051778    17.3902533166
Ni      7.3623531396     2.8409773511    17.3961535169
Ni      8.5911690575     4.9716069245    17.3936889093
Ni      9.8197669708     7.1000576725    17.3889506802
Ni      8.5911411739     0.7131642406    17.3880086894
Ni      9.8198330202     2.8408219279    17.3957136835
Ni     11.0487030817     4.9704125327    17.3927697587
Ni     12.2763266391     7.0989938258    17.3852102912
O       8.9251371547     3.7718626191    21.8184268850
O       8.2856391285     4.9229512085    19.4555245639
O       9.2075287665     5.5577213861    24.1208549146
C       8.7890586869     5.2052027711    21.7895113295
C       9.0784439890     5.7020940863    20.3779856090
C       9.6515589376     5.9211725815    22.8141432585
H       7.7293756442     5.3817804057    22.0278442606
H      10.1474804590     5.6000307635    20.1164095999
H       8.7838187357     6.7504084847    20.2283688646
H       9.5590105667     7.0098663540    22.6449898105
H      10.7134083106     5.6461089342    22.6557665352
H       9.8741227664     3.5482534744    21.8035304548
H       8.2322125213     4.0045331414    19.8060067960
H       9.6829651335     6.0990185004    24.7711400704
O       6.1653810439     2.8377880350    18.9516314119
H       6.1530320207     2.0167345793    19.4830847610
80
Step 2 | NEB Image 2 | Cartesian Angstrom
Ni      1.2286497520     0.7093615510    11.2500000000
Ni      2.4572990100     2.8374462050    11.2500000000
Ni      3.6859482670     4.9655308580    11.2500000000
Ni      4.9145975240     7.0936155120    11.2500000000
Ni      3.6859497520     0.7093615510    11.2500000000
Ni      4.9145990100     2.8374462050    11.2500000000
Ni      6.1432482670     4.9655308580    11.2500000000
Ni      7.3718975240     7.0936155120    11.2500000000
Ni      6.1432497520     0.7093615510    11.2500000000
Ni      7.3718990100     2.8374462050    11.2500000000
Ni      8.6005482670     4.9655308580    11.2500000000
Ni      9.8291975240     7.0936155120    11.2500000000
Ni      8.6005497520     0.7093615510    11.2500000000
Ni      9.8291990100     2.8374462050    11.2500000000
Ni     11.0578482670     4.9655308580    11.2500000000
Ni     12.2864975240     7.0936155120    11.2500000000
Ni      9.8231926171     0.0024995243    13.3023445018
Ni     11.0518089828     2.1302240239    13.3047084143
Ni     12.2800508463     4.2570722555    13.3044621731
Ni     13.5092872810     6.3850384707    13.3032135992
Ni      2.4517697468     0.0021660604    13.3026623602
Ni      3.6803279060     2.1303359400    13.3041136817
Ni      4.9088074779     4.2579363993    13.3054287219
Ni      6.1372745399     6.3857876859    13.3032783461
Ni      4.9086517489     0.0018312679    13.3024059973
Ni      6.1374036900     2.1309748259    13.3056096279
Ni      7.3661494965     4.2582451225    13.3069521294
Ni      8.5943412642     6.3854189356    13.3048452032
Ni      7.3652045598     0.0023769347    13.3020218594
Ni      8.5942385870     2.1304695640    13.3043867892
Ni      9.8231946460     4.2572739586    13.3057508082
Ni     11.0517679487     6.3857120742    13.3033345673
Ni      2.4490340007     1.4222228898    15.3362210296
Ni      3.6772966341     3.5494520402    15.3385526486
Ni      4.9062018309     5.6779299863    15.3378107865
Ni      6.1346571371     7.8070605965    15.3335997660
Ni      4.9058225440     1.4219700119    15.3362205140
Ni      6.1346426161     3.5508505239    15.3401416952
Ni      7.3625330181     5.6784279340    15.3395242275
Ni      8.5915701699     7.8062468637    15.3354849978
Ni      7.3627070876     1.4224398614    15.3370387851
Ni      8.5913286878     3.5492678034    15.3408173342
Ni      9.8201850892     5.6778143966    15.3377748313
Ni     11.0486432903     7.8070022870    15.3347461742
Ni      9.8200953687     1.4222882767    15.3366655971
Ni     11.0486075170     3.5492992344    15.3407266613
Ni     12.2774144290     5.6772885475    15.3359640395
Ni     13.5061541408     7.8063455598    15.3319300907
Ni      1.2187910907     0.7145173253    17.3879335108
Ni      2.4472474042     2.8420654675    17.3934583506
Ni      3.6755426414     4.9714604155    17.3911200986
Ni      4.9045370414     7.0991000162    17.3858411419
Ni      3.6755273378     0.7130852300    17.3897672756
Ni      4.9036999828     2.8423805674    17.3934479204
Ni      6.1319552592     4.9726957523    17.3963329095
Ni      7.3614524683     7.0997442315    17.3897409244
Ni      6.1332850858     0.7119051778    17.3902533166
Ni      7.3623531396     2.8409773511    17.3961535169
Ni      8.5911690575     4.9716069245    17.3936889093
Ni      9.8197669708     7.1000576725    17.3889506802
Ni      8.5911411739     0.7131642406    17.3880086894
Ni      9.8198330202     2.8408219279    17.3957136835
Ni     11.0487030817     4.9704125327    17.3927697587
Ni     12.2763266391     7.0989938258    17.3852102912
O       8.9572928419     3.7038124812    21.8010240976
O       8.2092821809     5.0023139868    19.4009270306
O       9.1921612539     5.5009347884    24.0896373031
C       8.7947988061     5.1277967882    21.7605301706
C       9.0722920276     5.6450374339    20.3575414311
C       9.6414031483     5.8708834565    22.7870593390
H       7.7340463086     5.2890206634    22.0077309607
H      10.1230713344     5.4605364241    20.0669206756
H       8.8818224161     6.7257638431    20.2685693707
H       9.5274186106     6.9580107432    22.6169656118
H      10.7092302272     5.6172633603    22.6388088697
H       9.8891232410     3.4957517619    21.6047612303
H       7.8174459119     4.1402507687    19.7065357765
H       9.7273058311     5.9748198026    24.7475775882
O       6.4800855391     2.9577441801    19.0962470612
H       6.4888554512     2.1018108808    19.5675006300
80
Step 3 | NEB Image 3 | Cartesian Angstrom
Ni      1.2286497520     0.7093615510    11.2500000000
Ni      2.4572990100     2.8374462050    11.2500000000
Ni      3.6859482670     4.9655308580    11.2500000000
Ni      4.9145975240     7.0936155120    11.2500000000
Ni      3.6859497520     0.7093615510    11.2500000000
Ni      4.9145990100     2.8374462050    11.2500000000
Ni      6.1432482670     4.9655308580    11.2500000000
Ni      7.3718975240     7.0936155120    11.2500000000
Ni      6.1432497520     0.7093615510    11.2500000000
Ni      7.3718990100     2.8374462050    11.2500000000
Ni      8.6005482670     4.9655308580    11.2500000000
Ni      9.8291975240     7.0936155120    11.2500000000
Ni      8.6005497520     0.7093615510    11.2500000000
Ni      9.8291990100     2.8374462050    11.2500000000
Ni     11.0578482670     4.9655308580    11.2500000000
Ni     12.2864975240     7.0936155120    11.2500000000
Ni      9.8231926171     0.0024995243    13.3023445018
Ni     11.0518089828     2.1302240239    13.3047084143
Ni     12.2800508463     4.2570722555    13.3044621731
Ni     13.5092872810     6.3850384707    13.3032135992
Ni      2.4517697468     0.0021660604    13.3026623602
Ni      3.6803279060     2.1303359400    13.3041136817
Ni      4.9088074779     4.2579363993    13.3054287219
Ni      6.1372745399     6.3857876859    13.3032783461
Ni      4.9086517489     0.0018312679    13.3024059973
Ni      6.1374036900     2.1309748259    13.3056096279
Ni      7.3661494965     4.2582451225    13.3069521294
Ni      8.5943412642     6.3854189356    13.3048452032
Ni      7.3652045598     0.0023769347    13.3020218594
Ni      8.5942385870     2.1304695640    13.3043867892
Ni      9.8231946460     4.2572739586    13.3057508082
Ni     11.0517679487     6.3857120742    13.3033345673
Ni      2.4490340007     1.4222228898    15.3362210296
Ni      3.6772966341     3.5494520402    15.3385526486
Ni      4.9062018309     5.6779299863    15.3378107865
Ni      6.1346571371     7.8070605965    15.3335997660
Ni      4.9058225440     1.4219700119    15.3362205140
Ni      6.1346426161     3.5508505239    15.3401416952
Ni      7.3625330181     5.6784279340    15.3395242275
Ni      8.5915701699     7.8062468637    15.3354849978
Ni      7.3627070876     1.4224398614    15.3370387851
Ni      8.5913286878     3.5492678034    15.3408173342
Ni      9.8201850892     5.6778143966    15.3377748313
Ni     11.0486432903     7.8070022870    15.3347461742
Ni      9.8200953687     1.4222882767    15.3366655971
Ni     11.0486075170     3.5492992344    15.3407266613
Ni     12.2774144290     5.6772885475    15.3359640395
Ni     13.5061541408     7.8063455598    15.3319300907
Ni      1.2187910907     0.7145173253    17.3879335108
Ni      2.4472474042     2.8420654675    17.3934583506
Ni      3.6755426414     4.9714604155    17.3911200986
Ni      4.9045370414     7.0991000162    17.3858411419
Ni      3.6755273378     0.7130852300    17.3897672756
Ni      4.9036999828     2.8423805674    17.3934479204
Ni      6.1319552592     4.9726957523    17.3963329095
Ni      7.3614524683     7.0997442315    17.3897409244
Ni      6.1332850858     0.7119051778    17.3902533166
Ni      7.3623531396     2.8409773511    17.3961535169
Ni      8.5911690575     4.9716069245    17.3936889093
Ni      9.8197669708     7.1000576725    17.3889506802
Ni      8.5911411739     0.7131642406    17.3880086894
Ni      9.8198330202     2.8408219279    17.3957136835
Ni     11.0487030817     4.9704125327    17.3927697587
Ni     12.2763266391     7.0989938258    17.3852102912
O       9.0134321648     3.6931714281    21.7871047998
O       8.2578203668     5.0103532583    19.3660576788
O       9.1763732979     5.4941316530    24.0731822032
C       8.8115208798     5.1106095063    21.7370169730
C       9.0950388923     5.6453564066    20.3392862735
C       9.6282028854     5.8747668178    22.7737114939
H       7.7438959850     5.2445746796    21.9709508594
H      10.1543290830     5.4782502444    20.0660449387
H       8.8995613338     6.7282050619    20.2740177871
H       9.4920932743     6.9592316418    22.6047915122
H      10.7028254945     5.6444029924    22.6361782807
H       9.9508522616     3.5106661908    21.5948812345
H       7.8120738449     4.1074445815    19.6179294544
H       9.7022196544     5.9711944078    24.7344968715
O       6.8574042812     2.9785220093    19.2304317175
H       6.9134911156     2.1205524679    19.6880598160
80
Step 4 | NEB Image 4 | Cartesian Angstrom
Ni      1.2286497520     0.7093615510    11.2500000000
Ni      2.4572990100     2.8374462050    11.2500000000
Ni      3.6859482670     4.9655308580    11.2500000000
Ni      4.9145975240     7.0936155120    11.2500000000
Ni      3.6859497520     0.7093615510    11.2500000000
Ni      4.9145990100     2.8374462050    11.2500000000
Ni      6.1432482670     4.9655308580    11.2500000000
Ni      7.3718975240     7.0936155120    11.2500000000
Ni      6.1432497520     0.7093615510    11.2500000000
Ni      7.3718990100     2.8374462050    11.2500000000
Ni      8.6005482670     4.9655308580    11.2500000000
Ni      9.8291975240     7.0936155120    11.2500000000
Ni      8.6005497520     0.7093615510    11.2500000000
Ni      9.8291990100     2.8374462050    11.2500000000
Ni     11.0578482670     4.9655308580    11.2500000000
Ni     12.2864975240     7.0936155120    11.2500000000
Ni      9.8231926171     0.0024995243    13.3023445018
Ni     11.0518089828     2.1302240239    13.3047084143
Ni     12.2800508463     4.2570722555    13.3044621731
Ni     13.5092872810     6.3850384707    13.3032135992
Ni      2.4517697468     0.0021660604    13.3026623602
Ni      3.6803279060     2.1303359400    13.3041136817
Ni      4.9088074779     4.2579363993    13.3054287219
Ni      6.1372745399     6.3857876859    13.3032783461
Ni      4.9086517489     0.0018312679    13.3024059973
Ni      6.1374036900     2.1309748259    13.3056096279
Ni      7.3661494965     4.2582451225    13.3069521294
Ni      8.5943412642     6.3854189356    13.3048452032
Ni      7.3652045598     0.0023769347    13.3020218594
Ni      8.5942385870     2.1304695640    13.3043867892
Ni      9.8231946460     4.2572739586    13.3057508082
Ni     11.0517679487     6.3857120742    13.3033345673
Ni      2.4490340007     1.4222228898    15.3362210296
Ni      3.6772966341     3.5494520402    15.3385526486
Ni      4.9062018309     5.6779299863    15.3378107865
Ni      6.1346571371     7.8070605965    15.3335997660
Ni      4.9058225440     1.4219700119    15.3362205140
Ni      6.1346426161     3.5508505239    15.3401416952
Ni      7.3625330181     5.6784279340    15.3395242275
Ni      8.5915701699     7.8062468637    15.3354849978
Ni      7.3627070876     1.4224398614    15.3370387851
Ni      8.5913286878     3.5492678034    15.3408173342
Ni      9.8201850892     5.6778143966    15.3377748313
Ni     11.0486432903     7.8070022870    15.3347461742
Ni      9.8200953687     1.4222882767    15.3366655971
Ni     11.0486075170     3.5492992344    15.3407266613
Ni     12.2774144290     5.6772885475    15.3359640395
Ni     13.5061541408     7.8063455598    15.3319300907
Ni      1.2187910907     0.7145173253    17.3879335108
Ni      2.4472474042     2.8420654675    17.3934583506
Ni      3.6755426414     4.9714604155    17.3911200986
Ni      4.9045370414     7.0991000162    17.3858411419
Ni      3.6755273378     0.7130852300    17.3897672756
Ni      4.9036999828     2.8423805674    17.3934479204
Ni      6.1319552592     4.9726957523    17.3963329095
Ni      7.3614524683     7.0997442315    17.3897409244
Ni      6.1332850858     0.7119051778    17.3902533166
Ni      7.3623531396     2.8409773511    17.3961535169
Ni      8.5911690575     4.9716069245    17.3936889093
Ni      9.8197669708     7.1000576725    17.3889506802
Ni      8.5911411739     0.7131642406    17.3880086894
Ni      9.8198330202     2.8408219279    17.3957136835
Ni     11.0487030817     4.9704125327    17.3927697587
Ni     12.2763266391     7.0989938258    17.3852102912
O       9.0634292964     3.7006409603    21.6842447741
O       8.3028150629     5.0250793570    19.2863963485
O       9.1501176630     5.4657767280    23.9981467210
C       8.8283231176     5.1164352890    21.6447914554
C       9.1092523545     5.6847862267    20.2478617611
C       9.6136243822     5.8748008926    22.7098622187
H       7.7548185315     5.2204136280    21.8672828091
H      10.1845815199     5.5518945267    20.0047227340
H       8.9025316347     6.7716766364    20.2302412774
H       9.4627376130     6.9596430532    22.5586026281
H      10.6944170740     5.6645943261    22.5877099457
H      10.0115826956     3.5465818580    21.5239250530
H       7.6514689787     3.8033972225    19.5674275153
H       9.6587612471     5.9442018618    24.6743602739
O       7.0372382876     2.9498126137    19.3770959597
H       7.3847060528     2.1862295386    19.8683608144
80
Step 5 | NEB Image 5 | Cartesian Angstrom
Ni      1.2286497520     0.7093615510    11.2500000000
Ni      2.4572990100     2.8374462050    11.2500000000
Ni      3.6859482670     4.9655308580    11.2500000000
Ni      4.9145975240     7.0936155120    11.2500000000
Ni      3.6859497520     0.7093615510    11.2500000000
Ni      4.9145990100     2.8374462050    11.2500000000
Ni      6.1432482670     4.9655308580    11.2500000000
Ni      7.3718975240     7.0936155120    11.2500000000
Ni      6.1432497520     0.7093615510    11.2500000000
Ni      7.3718990100     2.8374462050    11.2500000000
Ni      8.6005482670     4.9655308580    11.2500000000
Ni      9.8291975240     7.0936155120    11.2500000000
Ni      8.6005497520     0.7093615510    11.2500000000
Ni      9.8291990100     2.8374462050    11.2500000000
Ni     11.0578482670     4.9655308580    11.2500000000
Ni     12.2864975240     7.0936155120    11.2500000000
Ni      9.8231926171     0.0024995243    13.3023445018
Ni     11.0518089828     2.1302240239    13.3047084143
Ni     12.2800508463     4.2570722555    13.3044621731
Ni     13.5092872810     6.3850384707    13.3032135992
Ni      2.4517697468     0.0021660604    13.3026623602
Ni      3.6803279060     2.1303359400    13.3041136817
Ni      4.9088074779     4.2579363993    13.3054287219
Ni      6.1372745399     6.3857876859    13.3032783461
Ni      4.9086517489     0.0018312679    13.3024059973
Ni      6.1374036900     2.1309748259    13.3056096279
Ni      7.3661494965     4.2582451225    13.3069521294
Ni      8.5943412642     6.3854189356    13.3048452032
Ni      7.3652045598     0.0023769347    13.3020218594
Ni      8.5942385870     2.1304695640    13.3043867892
Ni      9.8231946460     4.2572739586    13.3057508082
Ni     11.0517679487     6.3857120742    13.3033345673
Ni      2.4490340007     1.4222228898    15.3362210296
Ni      3.6772966341     3.5494520402    15.3385526486
Ni      4.9062018309     5.6779299863    15.3378107865
Ni      6.1346571371     7.8070605965    15.3335997660
Ni      4.9058225440     1.4219700119    15.3362205140
Ni      6.1346426161     3.5508505239    15.3401416952
Ni      7.3625330181     5.6784279340    15.3395242275
Ni      8.5915701699     7.8062468637    15.3354849978
Ni      7.3627070876     1.4224398614    15.3370387851
Ni      8.5913286878     3.5492678034    15.3408173342
Ni      9.8201850892     5.6778143966    15.3377748313
Ni     11.0486432903     7.8070022870    15.3347461742
Ni      9.8200953687     1.4222882767    15.3366655971
Ni     11.0486075170     3.5492992344    15.3407266613
Ni     12.2774144290     5.6772885475    15.3359640395
Ni     13.5061541408     7.8063455598    15.3319300907
Ni      1.2187910907     0.7145173253    17.3879335108
Ni      2.4472474042     2.8420654675    17.3934583506
Ni      3.6755426414     4.9714604155    17.3911200986
Ni      4.9045370414     7.0991000162    17.3858411419
Ni      3.6755273378     0.7130852300    17.3897672756
Ni      4.9036999828     2.8423805674    17.3934479204
Ni      6.1319552592     4.9726957523    17.3963329095
Ni      7.3614524683     7.0997442315    17.3897409244
Ni      6.1332850858     0.7119051778    17.3902533166
Ni      7.3623531396     2.8409773511    17.3961535169
Ni      8.5911690575     4.9716069245    17.3936889093
Ni      9.8197669708     7.1000576725    17.3889506802
Ni      8.5911411739     0.7131642406    17.3880086894
Ni      9.8198330202     2.8408219279    17.3957136835
Ni     11.0487030817     4.9704125327    17.3927697587
Ni     12.2763266391     7.0989938258    17.3852102912
O       9.3045527771     3.7133575323    21.5014801328
O       8.2676799813     5.1067567422    19.2490910386
O       9.1290199374     5.3031558564    23.9330297823
C       8.8881682347     5.0877601593    21.5636972024
C       9.0744650723     5.7741455547    20.2108696172
C       9.5605972026     5.8609600029    22.6899133488
H       7.8101129966     5.0363799002    21.7823565066
H      10.1427716634     5.7393274690    19.9134421831
H       8.7891110085     6.8405022187    20.2658700948
H       9.2748252532     6.9256750790    22.6069801659
H      10.6607265066     5.7971487966    22.5795174168
H      10.2555622390     3.6921116131    21.2897718573
H       7.7255009436     3.7818408526    19.5489249549
H       9.5087506460     5.8278663638    24.6556475781
O       7.2643301131     2.8500978930    19.4130110797
H       7.8626355014     2.1992220207    19.8252374204
