80
Step 1 | NEB Image 1 | Cartesian Angstrom
Ni      1.2286497034     0.7093615225    11.2499999440
Ni      2.4572989609     2.8374461750    11.2499999440
Ni      3.6859482184     4.9655308275    11.2499999440
Ni      4.9145974759     7.0936154800    11.2499999440
Ni      3.6859497034     0.7093615225    11.2499999440
Ni      4.9145989609     2.8374461750    11.2499999440
Ni      6.1432482184     4.9655308275    11.2499999440
Ni      7.3718974759     7.0936154800    11.2499999440
Ni      6.1432497034     0.7093615225    11.2499999440
Ni      7.3718989609     2.8374461750    11.2499999440
Ni      8.6005482184     4.9655308275    11.2499999440
Ni      9.8291974759     7.0936154800    11.2499999440
Ni      8.6005497034     0.7093615225    11.2499999440
Ni      9.8291989609     2.8374461750    11.2499999440
Ni     11.0578482184     4.9655308275    11.2499999440
Ni     12.2864974759     7.0936154800    11.2499999440
Ni      9.8231926870     0.0024995631    13.3023446442
Ni     11.0518089676     2.1302240586    13.3047083557
Ni     12.2800508544     4.2570722939    13.3044621680
Ni     13.5092873083     6.3850384546    13.3032134512
Ni      2.4517696982     0.0021660497    13.3026623307
Ni      3.6803278881     2.1303359107    13.3041135630
Ni      4.9088074938     4.2579363814    13.3054287544
Ni      6.1372745671     6.3857877107    13.3032783798
Ni      4.9086517115     0.0018312594    13.3024060945
Ni      6.1374036838     2.1309748468    13.3056096270
Ni      7.3661495135     4.2582451239    13.3069522585
Ni      8.5943413203     6.3854189562    13.3048451696
Ni      7.3652044956     0.0023769003    13.3020219334
Ni      8.5942385662     2.1304695544    13.3043868044
Ni      9.8231946918     4.2572739512    13.3057506922
Ni     11.0517679695     6.3857120360    13.3033344194
Ni      2.4490339821     1.4222228929    15.3362210124
Ni      3.6772966574     3.5494520554    15.3385526461
Ni      4.9062018672     5.6779299780    15.3378106046
Ni      6.1346571942     7.8070606266    15.3335999053
Ni      4.9058225197     1.4219699914    15.3362206260
Ni      6.1346426084     3.5508505475    15.3401418518
Ni      7.3625330027     5.6784279498    15.3395242568
Ni      8.5915701206     7.8062468470    15.3354851546
Ni      7.3627071376     1.4224398724    15.3370388041
Ni      8.5913286772     3.5492677633    15.3408174188
Ni      9.8201850849     5.6778143804    15.3377746619
Ni     11.0486433115     7.8070023171    15.3347462049
Ni      9.8200953547     1.4222882677    15.3366654644
Ni     11.0486075444     3.5492992589    15.3407265960
Ni     12.2774144623     5.6772885732    15.3359640033
Ni     13.5061541972     7.8063455902    15.3319299253
Ni      1.2187910631     0.7145173608    17.3879334314
Ni      2.4472474227     2.8420654806    17.3934581627
Ni      3.6755426811     4.9714604374    17.3911199588
Ni      4.9045369929     7.0990999797    17.3858410289
Ni      3.6755273590     0.7130852450    17.3897672789
Ni      4.9037000473     2.8423806074    17.3934481142
Ni      6.1319553005     4.9726957480    17.3963328007
Ni      7.3614524743     7.0997441935    17.3897409983
Ni      6.1332850561     0.7119051795    17.3902534707
Ni      7.3623531846     2.8409773484    17.3961534740
Ni      8.5911690953     4.9716069348    17.3936888912
Ni      9.8197669951     7.1000577029    17.3889506467
Ni      8.5911411426     0.7131642395    17.3880087950
Ni      9.8198330590     2.8408219131    17.3957136598
Ni     11.0487030798     4.9704125685    17.3927698418
Ni     12.2763266601     7.0989938309    17.3852102935
O       8.1853233808     3.4574048182    21.7117206478
O       8.5869329741     5.0599815235    19.5762271001
O      10.2109211163     3.6451020548    23.8826602062
C       9.3606393600     4.2890487236    21.7367471584
C       9.7574736302     4.6321502783    20.3055951979
C      10.5272793641     3.6720453941    22.4918474794
H       9.0423459569     5.1976070563    22.2680419510
H      10.2036708160     3.7499198429    19.8025973096
H      10.4835571337     5.4542343167    20.2475656164
H      11.4351836342     4.2717022800    22.2942344717
H      10.7115000118     2.6514065461    22.0984614952
H       8.4384371395     2.5707271966    21.3925898339
H       7.8511829079     4.4818016084    19.8831003151
H      11.0040911060     3.3843978098    24.3788521822
O       2.4676593393     1.4045078651    18.8058894197
H       2.5804189712     1.3115658959    19.7657035449
80
Step 2 | NEB Image 2 | Cartesian Angstrom
Ni      1.2285406715     0.7093151962    11.2498286722
Ni      2.4571518662     2.8374305236    11.2497210059
Ni      3.6857904723     4.9655779748    11.2496485908
Ni      4.9144770708     7.0937247909    11.2496702567
Ni      3.6858458647     0.7092706508    11.2496858860
Ni      4.9144756373     2.8374033025    11.2495329608
Ni      6.1431446290     4.9655832408    11.2494762613
Ni      7.3718450072     7.0937434274    11.2495768156
Ni      6.1432030326     0.7092314197    11.2495997446
Ni      7.3718697382     2.8373789957    11.2494531556
Ni      8.6005562254     4.9655721795    11.2494573127
Ni      9.8292343552     7.0937256707    11.2496100720
Ni      8.6005796447     0.7092309395    11.2496304005
Ni      9.8292657085     2.8373830923    11.2495529615
Ni     11.0579373580     4.9655573598    11.2496036106
Ni     12.2865808465     7.0936884032    11.2497430973
Ni      9.8233296129     0.0021688614    13.3017663565
Ni     11.0520610947     2.1299882388    13.3039035645
Ni     12.2803607835     4.2570575523    13.3037038798
Ni     13.5095355413     6.3851537625    13.3027657284
Ni      2.4515436130     0.0019396480    13.3021396158
Ni      3.6799781326     2.1302129056    13.3031835427
Ni      4.9083320868     4.2580205206    13.3041601222
Ni      6.1369390594     6.3861537824    13.3021187599
Ni      4.9085251889     0.0014539623    13.3016163852
Ni      6.1371844782     2.1306592962    13.3042092581
Ni      7.3659747124     4.2582796134    13.3052200997
Ni      8.5943005170     6.3857794734    13.3035073186
Ni      7.3652114247     0.0019231731    13.3012141922
Ni      8.5943451896     2.1301009193    13.3030538098
Ni      9.8233984060     4.2572514371    13.3043221992
Ni     11.0520067207     6.3859579592    13.3023528577
Ni      2.4480460060     1.4220907879    15.3340305504
Ni      3.6757356706     3.5496532351    15.3359723571
Ni      4.9041644386     5.6791672013    15.3343782142
Ni      6.1338372112     7.8082980312    15.3318242329
Ni      4.9055723952     1.4211181367    15.3326474413
Ni      6.1327622727     3.5504470552    15.3337517970
Ni      7.3613621651     5.6800503183    15.3337657307
Ni      8.5911643279     7.8077932514    15.3327650847
Ni      7.3626001867     1.4199935645    15.3327520994
Ni      8.5917895461     3.5483501535    15.3342495218
Ni      9.8207527845     5.6790018279    15.3324551148
Ni     11.0492696516     7.8081752633    15.3325941335
Ni      9.8207098173     1.4209355701    15.3342192345
Ni     11.0496420615     3.5486706146    15.3372258480
Ni     12.2786530546     5.6779374605    15.3335242253
Ni     13.5066818391     7.8067869069    15.3311762303
Ni      1.2141584842     0.7128624256    17.3837902767
Ni      2.4438774278     2.8460529099    17.3882958875
Ni      3.6691528953     4.9736322889    17.3865211562
Ni      4.9012845725     7.1026630735    17.3829463811
Ni      3.6925938112     0.6990575034    17.3589376077
Ni      4.8921836920     2.8367226367    17.3776200872
Ni      6.1171162511     4.9884915665    17.3583865186
Ni      7.3569822063     7.1067770614    17.3812095891
Ni      6.1321371984     0.7058729629    17.3852911031
Ni      7.3672817493     2.8201375402    17.3435415919
Ni      8.5846785873     4.9739597922    17.3454783518
Ni      9.8206148668     7.1097325050    17.3720109240
Ni      8.5922950774     0.7074945038    17.3827328516
Ni      9.8212532464     2.8314652192    17.3783504684
Ni     11.0600989198     4.9774614799    17.3638325141
Ni     12.2792091410     7.1019501334    17.3813581994
O       8.0617425791     3.2904286118    21.2571813617
O       8.5115817047     5.2249925605    19.1772493688
O       9.6952577475     3.7796700330    23.6578071076
C       8.9954309899     4.3535978527    21.4221217808
C       9.5436145433     4.8887166211    20.0817116666
C      10.1705250929     3.9636386682    22.3227707237
H       8.4243622802     5.1519513648    21.9246036883
H      10.2157667556     4.1034362706    19.6511259039
H      10.1830372952     5.7702804734    20.2830689677
H      10.9453431023     4.7521427183    22.2839385596
H      10.6191366088     3.0291279593    21.9282134646
H       8.4843341445     2.5846850641    20.7262617385
H       6.1244107187     3.5364430538    18.3024698702
H      10.4460196416     3.5286668055    24.2206040503
O       2.5195064219     1.4326984746    18.7901468842
H       2.6521618360     1.4390835973    19.7506026425
80
Step 3 | NEB Image 3 | Cartesian Angstrom
Ni      1.2285132372     0.7093102580    11.2497925065
Ni      2.4571145375     2.8374331500    11.2496540038
Ni      3.6857543692     4.9655937406    11.2495608988
Ni      4.9144483508     7.0937511442    11.2495805416
Ni      3.6858105765     0.7092507746    11.2495832945
Ni      4.9144416754     2.8373983904    11.2493825191
Ni      6.1431187379     4.9655979812    11.2493066423
Ni      7.3718341002     7.0937805610    11.2494199173
Ni      6.1431900564     0.7091908666    11.2494367472
Ni      7.3718695013     2.8373561946    11.2492430843
Ni      8.6005725149     4.9655774312    11.2492351632
Ni      9.8292660749     7.0937634523    11.2494318646
Ni      8.6006016458     0.7091768045    11.2494558275
Ni      9.8293093022     2.8373487179    11.2493484006
Ni     11.0579968534     4.9655564292    11.2494104728
Ni     12.2866387779     7.0937168928    11.2496070257
Ni      9.8234321457     0.0020029442    13.3014336103
Ni     11.0522332823     2.1298597630    13.3035103757
Ni     12.2805692573     4.2569998566    13.3033198040
Ni     13.5097182303     6.3851897898    13.3025023911
Ni      2.4514537663     0.0019021842    13.3019960644
Ni      3.6798422006     2.1302036655    13.3028623895
Ni      4.9082281593     4.2580809050    13.3037801640
Ni      6.1368424944     6.3862395870    13.3017376310
Ni      4.9084755542     0.0013239026    13.3012517447
Ni      6.1371605360     2.1305951231    13.3036636133
Ni      7.3659555827     4.2582646493    13.3045793582
Ni      8.5943373912     6.3858815163    13.3028893111
Ni      7.3652437126     0.0017439381    13.3008014811
Ni      8.5944429743     2.1299574354    13.3024843605
Ni      9.8235677129     4.2571741441    13.3036754104
Ni     11.0522029486     6.3860295065    13.3018412172
Ni      2.4474806339     1.4221830020    15.3337050016
Ni      3.6748898221     3.5500391637    15.3347300063
Ni      4.9039174226     5.6794180630    15.3337610309
Ni      6.1334794412     7.8086561644    15.3309672147
Ni      4.9054535047     1.4207451131    15.3305602675
Ni      6.1328196552     3.5507341043    15.3318373614
Ni      7.3608399479     5.6802975389    15.3313028154
Ni      8.5912685218     7.8085015757    15.3310948013
Ni      7.3628917766     1.4195314263    15.3309668795
Ni      8.5923172447     3.5475212536    15.3315455642
Ni      9.8217145569     5.6792144872    15.3295519369
Ni     11.0499098043     7.8087362030    15.3313154100
Ni      9.8212308983     1.4204555706    15.3330472717
Ni     11.0503580203     3.5481085980    15.3359435191
Ni     12.2795154678     5.6779872869    15.3322778649
Ni     13.5071169629     7.8070062535    15.3307055753
Ni      1.2157543724     0.7138947080    17.3856538370
Ni      2.4431643114     2.8433286496    17.3902496018
Ni      3.6680897936     4.9753278508    17.3848164363
Ni      4.9006859055     7.1029966290    17.3822490515
Ni      3.6895673487     0.6998081575    17.3447071808
Ni      4.8840279373     2.8394088448    17.3532657454
Ni      6.1162312223     4.9857857083    17.3591065818
Ni      7.3544273201     7.1118659909    17.3714051156
Ni      6.1333465789     0.6998844535    17.3760731752
Ni      7.3733394908     2.8260994362    17.3358847807
Ni      8.5919521918     4.9636825235    17.3162368146
Ni      9.8244127102     7.1162821146    17.3610000338
Ni      8.5938571602     0.7038150386    17.3774020371
Ni      9.8250948644     2.8312527892    17.3755113740
Ni     11.0677673101     4.9706649226    17.3531308726
Ni     12.2824008728     7.1036674123    17.3785312826
O       8.6122400631     3.0682059012    20.4976975305
O       8.2434980110     5.5396535519    19.0455190896
O       9.2769581085     3.4293805178    23.2926023310
C       8.7555027185     4.3399041076    21.1421158917
C       9.1802952130     5.3724580769    20.1008182265
C       9.8020518995     4.2675663459    22.2487968130
H       7.7912506759     4.6461180984    21.5904370705
H      10.1670254268     5.0609617118    19.6965752291
H       9.3141271028     6.3450568683    20.6046817059
H      10.0266709936     5.2790239422    22.6288997525
H      10.7266226667     3.8315635429    21.8295587493
H       8.5684428128     2.3912957753    21.1963704652
H       6.1011609258     3.4504323844    18.2939057179
H       9.9562423370     3.3278491847    23.9777666310
O       2.5094330162     0.6000594885    18.8969115846
H       2.5819717167     1.3832372468    19.4801012386
80
Step 4 | NEB Image 4 | Cartesian Angstrom
Ni      1.2285551832     0.7093240975    11.2498512292
Ni      2.4571668755     2.8374384325    11.2497295747
Ni      3.6858149438     4.9655858581    11.2496539682
Ni      4.9144989023     7.0937215046    11.2496760414
Ni      3.6858465202     0.7092757774    11.2496797759
Ni      4.9144911389     2.8374109310    11.2495049897
Ni      6.1431683682     4.9655839211    11.2494470369
Ni      7.3718650943     7.0937416795    11.2495331127
Ni      6.1432099799     0.7092254112    11.2495434273
Ni      7.3718942385     2.8373726493    11.2493845341
Ni      8.6005894994     4.9655602339    11.2493743422
Ni      9.8292732295     7.0937283804    11.2495267949
Ni      8.6006021296     0.7092071958    11.2495418348
Ni      9.8293062141     2.8373601339    11.2494526494
Ni     11.0579912658     4.9655434444    11.2495034328
Ni     12.2866321647     7.0936939550    11.2496634198
Ni      9.8234196609     0.0020669116    13.3015435960
Ni     11.0522100071     2.1299070966    13.3036749703
Ni     12.2805301106     4.2569938014    13.3035154677
Ni     13.5096831479     6.3851418355    13.3026112817
Ni      2.4515409200     0.0019774179    13.3022034473
Ni      3.6799517617     2.1302244651    13.3030822530
Ni      4.9084351514     4.2580898620    13.3040706248
Ni      6.1369950906     6.3861306773    13.3020478477
Ni      4.9085062496     0.0014276379    13.3014796136
Ni      6.1372869804     2.1306915204    13.3040074335
Ni      7.3660865941     4.2582380135    13.3050470334
Ni      8.5944182520     6.3857463870    13.3032201831
Ni      7.3652675747     0.0018651280    13.3009868016
Ni      8.5944575362     2.1300546878    13.3028277051
Ni      9.8235763520     4.2571529539    13.3040508005
Ni     11.0522021999     6.3859267193    13.3020911593
Ni      2.4478802729     1.4220827660    15.3345310431
Ni      3.6751660552     3.5503091751    15.3346787285
Ni      4.9047790308     5.6791627758    15.3347299360
Ni      6.1337835448     7.8082850506    15.3313295344
Ni      4.9053335222     1.4207676874    15.3312060704
Ni      6.1341612307     3.5510643966    15.3334126400
Ni      7.3614805430     5.6795473820    15.3327736810
Ni      8.5916150939     7.8080745982    15.3314968614
Ni      7.3633162001     1.4205757623    15.3321585514
Ni      8.5922712045     3.5475435774    15.3335454529
Ni      9.8220456463     5.6785732437    15.3310487745
Ni     11.0500030001     7.8083436162    15.3317077403
Ni      9.8211414158     1.4207307882    15.3335337340
Ni     11.0503051438     3.5483729917    15.3369957909
Ni     12.2791648673     5.6776066924    15.3332493675
Ni     13.5070587723     7.8068382907    15.3308749897
Ni      1.2177295308     0.7142527535    17.3870908794
Ni      2.4432890404     2.8430710122    17.3888335179
Ni      3.6705069240     4.9760673115    17.3856491560
Ni      4.9020014590     7.1017463546    17.3829396160
Ni      3.6783526854     0.7075181807    17.3641174021
Ni      4.8898366951     2.8505318720    17.3411411938
Ni      6.1209663364     4.9772114477    17.3723941142
Ni      7.3565115655     7.1111070042    17.3698328901
Ni      6.1377526985     0.6985429320    17.3692403775
Ni      7.3713097245     2.8352163305    17.3617460040
Ni      8.6034385069     4.9565607744    17.3281944417
Ni      9.8273608245     7.1129673134    17.3616484200
Ni      8.5940355783     0.7057095290    17.3791326167
Ni      9.8257397725     2.8330951466    17.3772183122
Ni     11.0617118688     4.9679483629    17.3707285532
Ni     12.2820910093     7.1019283342    17.3796040519
O       9.1689036341     3.4109786106    20.1112868854
O       7.7735738268     5.6777015478    18.8805758036
O       8.9590204932     3.2896748825    22.9229309933
C       8.4614526501     4.4004881495    20.8763456829
C       8.4802325749     5.7286904467    20.1244041381
C       9.1137647006     4.5492795074    22.2476812060
H       7.4124594673     4.0810999100    21.0146590081
H       9.5300812384     6.0213236583    19.9347564144
H       8.0074248542     6.5017098762    20.7508295111
H       8.6304585168     5.3632711330    22.8158683406
H      10.1821153959     4.7912358329    22.1115720161
H       9.1734595646     2.5897368397    20.6347525650
H       6.1209978535     2.1457999085    18.2953184601
H       9.4920894050     3.3040390795    23.7362752577
O       2.5305588143     0.5979080872    18.9293747199
H       2.6592705888     1.3955667635    19.4815595719
80
Step 5 | NEB Image 5 | Cartesian Angstrom
Ni      1.2286497034     0.7093615225    11.2499999440
Ni      2.4572989609     2.8374461750    11.2499999440
Ni      3.6859482184     4.9655308275    11.2499999440
Ni      4.9145974759     7.0936154800    11.2499999440
Ni      3.6859497034     0.7093615225    11.2499999440
Ni      4.9145989609     2.8374461750    11.2499999440
Ni      6.1432482184     4.9655308275    11.2499999440
Ni      7.3718974759     7.0936154800    11.2499999440
Ni      6.1432497034     0.7093615225    11.2499999440
Ni      7.3718989609     2.8374461750    11.2499999440
Ni      8.6005482184     4.9655308275    11.2499999440
Ni      9.8291974759     7.0936154800    11.2499999440
Ni      8.6005497034     0.7093615225    11.2499999440
Ni      9.8291989609     2.8374461750    11.2499999440
Ni     11.0578482184     4.9655308275    11.2499999440
Ni     12.2864974759     7.0936154800    11.2499999440
Ni      9.8231926870     0.0024995631    13.3023446442
Ni     11.0518089676     2.1302240586    13.3047083557
Ni     12.2800508544     4.2570722939    13.3044621680
Ni     13.5092873083     6.3850384546    13.3032134512
Ni      2.4517696982     0.0021660497    13.3026623307
Ni      3.6803278881     2.1303359107    13.3041135630
Ni      4.9088074938     4.2579363814    13.3054287544
Ni      6.1372745671     6.3857877107    13.3032783798
Ni      4.9086517115     0.0018312594    13.3024060945
Ni      6.1374036838     2.1309748468    13.3056096270
Ni      7.3661495135     4.2582451239    13.3069522585
Ni      8.5943413203     6.3854189562    13.3048451696
Ni      7.3652044956     0.0023769003    13.3020219334
Ni      8.5942385662     2.1304695544    13.3043868044
Ni      9.8231946918     4.2572739512    13.3057506922
Ni     11.0517679695     6.3857120360    13.3033344194
Ni      2.4490339821     1.4222228929    15.3362210124
Ni      3.6772966574     3.5494520554    15.3385526461
Ni      4.9062018672     5.6779299780    15.3378106046
Ni      6.1346571942     7.8070606266    15.3335999053
Ni      4.9058225197     1.4219699914    15.3362206260
Ni      6.1346426084     3.5508505475    15.3401418518
Ni      7.3625330027     5.6784279498    15.3395242568
Ni      8.5915701206     7.8062468470    15.3354851546
Ni      7.3627071376     1.4224398724    15.3370388041
Ni      8.5913286772     3.5492677633    15.3408174188
Ni      9.8201850849     5.6778143804    15.3377746619
Ni     11.0486433115     7.8070023171    15.3347462049
Ni      9.8200953547     1.4222882677    15.3366654644
Ni     11.0486075444     3.5492992589    15.3407265960
Ni     12.2774144623     5.6772885732    15.3359640033
Ni     13.5061541972     7.8063455902    15.3319299253
Ni      1.2187910631     0.7145173608    17.3879334314
Ni      2.4472474227     2.8420654806    17.3934581627
Ni      3.6755426811     4.9714604374    17.3911199588
Ni      4.9045369929     7.0990999797    17.3858410289
Ni      3.6755273590     0.7130852450    17.3897672789
Ni      4.9037000473     2.8423806074    17.3934481142
Ni      6.1319553005     4.9726957480    17.3963328007
Ni      7.3614524743     7.0997441935    17.3897409983
Ni      6.1332850561     0.7119051795    17.3902534707
Ni      7.3623531846     2.8409773484    17.3961534740
Ni      8.5911690953     4.9716069348    17.3936888912
Ni      9.8197669951     7.1000577029    17.3889506467
Ni      8.5911411426     0.7131642395    17.3880087950
Ni      9.8198330590     2.8408219131    17.3957136598
Ni     11.0487030798     4.9704125685    17.3927698418
Ni     12.2763266601     7.0989938309    17.3852102935
O       9.3819344244     4.1358166692    20.0930362367
O       7.4403591999     5.7710500252    18.8010456662
O       8.6054614657     3.3490556865    22.7703843692
C       8.1664603160     4.5686069475    20.7700096311
C       7.7641571257     5.9228005922    20.1887078083
C       8.3912004598     4.6889035721    22.2787219386
H       7.3485584428     3.8274455412    20.5710354409
H       8.5939941550     6.6612606078    20.2727262356
H       6.8675792875     6.3118286823    20.7285291220
H       7.5127131407     5.1500412147    22.7730789076
H       9.2780443246     5.3384479547    22.4478370724
H       9.6348023466     3.2728259917    20.4951539629
H       4.4134518168     1.3599542848    19.7391102444
H       8.7500633813     3.3953291848    23.7317250903
O       3.5190441201     1.0401590876    20.0091886335
H       2.9303167551     1.7729858078    19.7218291788
