80
Step 1 | NEB Image 1 | Cartesian Angstrom
Ni      1.2286497034     0.7093615225    11.2499999440
Ni      2.4572989609     2.8374461750    11.2499999440
Ni      3.6859482184     4.9655308275    11.2499999440
Ni      4.9145974759     7.0936154800    11.2499999440
Ni      3.6859497034     0.7093615225    11.2499999440
Ni      4.9145989609     2.8374461750    11.2499999440
Ni      6.1432482184     4.9655308275    11.2499999440
Ni      7.3718974759     7.0936154800    11.2499999440
Ni      6.1432497034     0.7093615225    11.2499999440
Ni      7.3718989609     2.8374461750    11.2499999440
Ni      8.6005482184     4.9655308275    11.2499999440
Ni      9.8291974759     7.0936154800    11.2499999440
Ni      8.6005497034     0.7093615225    11.2499999440
Ni      9.8291989609     2.8374461750    11.2499999440
Ni     11.0578482184     4.9655308275    11.2499999440
Ni     12.2864974759     7.0936154800    11.2499999440
Ni      9.8231926870     0.0024995631    13.3023446442
Ni     11.0518089676     2.1302240586    13.3047083557
Ni     12.2800508544     4.2570722939    13.3044621680
Ni     13.5092873083     6.3850384546    13.3032134512
Ni      2.4517696982     0.0021660497    13.3026623307
Ni      3.6803278881     2.1303359107    13.3041135630
Ni      4.9088074938     4.2579363814    13.3054287544
Ni      6.1372745671     6.3857877107    13.3032783798
Ni      4.9086517115     0.0018312594    13.3024060945
Ni      6.1374036838     2.1309748468    13.3056096270
Ni      7.3661495135     4.2582451239    13.3069522585
Ni      8.5943413203     6.3854189562    13.3048451696
Ni      7.3652044956     0.0023769003    13.3020219334
Ni      8.5942385662     2.1304695544    13.3043868044
Ni      9.8231946918     4.2572739512    13.3057506922
Ni     11.0517679695     6.3857120360    13.3033344194
Ni      2.4490339821     1.4222228929    15.3362210124
Ni      3.6772966574     3.5494520554    15.3385526461
Ni      4.9062018672     5.6779299780    15.3378106046
Ni      6.1346571942     7.8070606266    15.3335999053
Ni      4.9058225197     1.4219699914    15.3362206260
Ni      6.1346426084     3.5508505475    15.3401418518
Ni      7.3625330027     5.6784279498    15.3395242568
Ni      8.5915701206     7.8062468470    15.3354851546
Ni      7.3627071376     1.4224398724    15.3370388041
Ni      8.5913286772     3.5492677633    15.3408174188
Ni      9.8201850849     5.6778143804    15.3377746619
Ni     11.0486433115     7.8070023171    15.3347462049
Ni      9.8200953547     1.4222882677    15.3366654644
Ni     11.0486075444     3.5492992589    15.3407265960
Ni     12.2774144623     5.6772885732    15.3359640033
Ni     13.5061541972     7.8063455902    15.3319299253
Ni      1.2187910631     0.7145173608    17.3879334314
Ni      2.4472474227     2.8420654806    17.3934581627
Ni      3.6755426811     4.9714604374    17.3911199588
Ni      4.9045369929     7.0990999797    17.3858410289
Ni      3.6755273590     0.7130852450    17.3897672789
Ni      4.9037000473     2.8423806074    17.3934481142
Ni      6.1319553005     4.9726957480    17.3963328007
Ni      7.3614524743     7.0997441935    17.3897409983
Ni      6.1332850561     0.7119051795    17.3902534707
Ni      7.3623531846     2.8409773484    17.3961534740
Ni      8.5911690953     4.9716069348    17.3936888912
Ni      9.8197669951     7.1000577029    17.3889506467
Ni      8.5911411426     0.7131642395    17.3880087950
Ni      9.8198330590     2.8408219131    17.3957136598
Ni     11.0487030798     4.9704125685    17.3927698418
Ni     12.2763266601     7.0989938309    17.3852102935
O       8.1853233808     3.4574048182    21.7117206478
O       8.5869329741     5.0599815235    19.5762271001
O      10.2109211163     3.6451020548    23.8826602062
C       9.3606393600     4.2890487236    21.7367471584
C       9.7574736302     4.6321502783    20.3055951979
C      10.5272793641     3.6720453941    22.4918474794
H       9.0423459569     5.1976070563    22.2680419510
H      10.2036708160     3.7499198429    19.8025973096
H      10.4835571337     5.4542343167    20.2475656164
H      11.4351836342     4.2717022800    22.2942344717
H      10.7115000118     2.6514065461    22.0984614952
H       8.4384371395     2.5707271966    21.3925898339
H       7.8511829079     4.4818016084    19.8831003151
H      11.0040911060     3.3843978098    24.3788521822
O       2.4676593393     1.4045078651    18.8058894197
H       2.5804189712     1.3115658959    19.7657035449
80
Step 2 | NEB Image 2 | Cartesian Angstrom
Ni      1.2285395673     0.7093148125    11.2498270259
Ni      2.4571503725     2.8374304486    11.2497182216
Ni      3.6857889204     4.9655785019    11.2496450417
Ni      4.9144758714     7.0937258833    11.2496668319
Ni      3.6858446966     0.7092697686    11.2496824055
Ni      4.9144743510     2.8374029430    11.2495278125
Ni      6.1431435821     4.9655837914    11.2494704763
Ni      7.3718445050     7.0937447861    11.2495718888
Ni      6.1432025442     0.7092300027    11.2495948990
Ni      7.3718695327     2.8373782403    11.2494466958
Ni      8.6005564880     4.9655725328    11.2494507280
Ni      9.8292350141     7.0937269146    11.2496051044
Ni      8.6005801320     0.7092293463    11.2496256199
Ni      9.8292667255     2.8373822181    11.2495472630
Ni     11.0579387324     4.9655575317    11.2495984083
Ni     12.2865821610     7.0936892707    11.2497395871
Ni      9.8233318658     0.0021644600    13.3017581177
Ni     11.0520650317     2.1299849709    13.3038929880
Ni     12.2803655825     4.2570567161    13.3036937412
Ni     13.5095395849     6.3851550195    13.3027592769
Ni      2.4515409039     0.0019376033    13.3021341689
Ni      3.6799739807     2.1302119362    13.3031730156
Ni      4.9083274717     4.2580218716    13.3041465019
Ni      6.1369355069     6.3861574095    13.3021058794
Ni      4.9085236811     0.0014496944    13.3016062761
Ni      6.1371826553     2.1306562942    13.3041926171
Ni      7.3659732582     4.2582796619    13.3051999507
Ni      8.5943007034     6.3857832687    13.3034901896
Ni      7.3652118835     0.0019177502    13.3012033468
Ni      8.5943471721     2.1300965406    13.3030373323
Ni      9.8234019709     4.2572502977    13.3043040762
Ni     11.0520108708     6.3859605729    13.3023395496
Ni      2.4480319691     1.4220910469    15.3340112375
Ni      3.6757140975     3.5496595381    15.3359386819
Ni      4.9041471845     5.6791789612    15.3343465902
Ni      6.1338269797     7.8083111579    15.3318010309
Ni      4.9055691509     1.4211074915    15.3325961381
Ni      6.1327499779     3.5504479128    15.3336831837
Ni      7.3613474103     5.6800647007    15.3336945113
Ni      8.5911628426     7.8078129741    15.3327249945
Ni      7.3626031551     1.4199707410    15.3326996959
Ni      8.5917994524     3.5483332519    15.3341696289
Ni      9.8207689526     5.6790127586    15.3323813326
Ni     11.0492821341     7.8081905244    15.3325629589
Ni      9.8207207030     1.4209200947    15.3341873812
Ni     11.0496583355     3.5486591091    15.3371852865
Ni     12.2786726064     5.6779425890    15.3334914682
Ni     13.5066910298     7.8067927545    15.3311650219
Ni      1.2141467074     0.7128641009    17.3837852969
Ni      2.4438450184     2.8460458546    17.3882850090
Ni      3.6690951140     4.9736689004    17.3864676174
Ni      4.9012544290     7.1026919943    17.3829174618
Ni      3.6926735138     0.6989698952    17.3585429811
Ni      4.8920001465     2.8367175996    17.3772006278
Ni      6.1170022223     4.9885665407    17.3581328827
Ni      7.3569187344     7.1068905179    17.3810257600
Ni      6.1321446231     0.7057549959    17.3851394705
Ni      7.3673929680     2.8200690713    17.3430797651
Ni      8.5847261586     4.9738453328    17.3447723883
Ni      9.8206690539     7.1098828516    17.3717535138
Ni      8.5923229443     0.7074084170    17.3826284788
Ni      9.8213119621     2.8313977213    17.3781941080
Ni     11.0602754300     4.9774238124    17.3634959011
Ni     12.2792697158     7.1019924624    17.3812955501
O       8.0669200594     3.2825034612    21.2614962860
O       8.5057204367     5.2129314766    19.1793567829
O       9.6882142977     3.7746420880    23.6558863343
C       8.9936066419     4.3504048908    21.4304703268
C       9.5359714227     4.8928211379    20.0911571710
C      10.1618389873     3.9674017051    22.3338381674
H       8.4137433129     5.1502897947    21.9371293398
H      10.2208733279     4.1171404240    19.6678494964
H      10.1614700985     5.7818767328    20.2960341340
H      10.9364554174     4.7596796365    22.2970227575
H      10.6218303227     3.0372258061    21.9321149504
H       8.4828466297     2.5850866199    20.7548101215
H       6.1179432042     3.5335869556    18.2979218216
H      10.4552558380     3.5182384100    24.2317585621
O       2.5196070696     1.4274959219    18.7867525715
H       2.6544297765     1.4400401875    19.7517871634
80
Step 3 | NEB Image 3 | Cartesian Angstrom
Ni      1.2285122335     0.7093100802    11.2497911880
Ni      2.4571131742     2.8374332471    11.2496515708
Ni      3.6857530488     4.9655943119    11.2495577145
Ni      4.9144472978     7.0937521012    11.2495772765
Ni      3.6858092869     0.7092500534    11.2495795527
Ni      4.9144404315     2.8373982135    11.2493770445
Ni      6.1431177851     4.9655985172    11.2493004677
Ni      7.3718336952     7.0937819141    11.2494142005
Ni      6.1431895804     0.7091893910    11.2494308048
Ni      7.3718694857     2.8373553652    11.2492354310
Ni      8.6005731008     4.9655776236    11.2492270671
Ni      9.8292672254     7.0937648313    11.2494253684
Ni      8.6006024453     0.7091748332    11.2494494647
Ni      9.8293108868     2.8373474658    11.2493409463
Ni     11.0579990173     4.9655563960    11.2494034317
Ni     12.2866408864     7.0937179332    11.2496020648
Ni      9.8234358806     0.0019969021    13.3014214827
Ni     11.0522395504     2.1298550807    13.3034960549
Ni     12.2805768514     4.2569977473    13.3033057885
Ni     13.5097248912     6.3851911106    13.3024927783
Ni      2.4514504759     0.0019008222    13.3019908078
Ni      3.6798372371     2.1302033446    13.3028507100
Ni      4.9082243448     4.2580830945    13.3037663695
Ni      6.1368389470     6.3862427075    13.3017237559
Ni      4.9084737468     0.0013191645    13.3012384315
Ni      6.1371596391     2.1305927909    13.3036437429
Ni      7.3659548490     4.2582641072    13.3045560097
Ni      8.5943387078     6.3858852486    13.3028667786
Ni      7.3652448817     0.0017374048    13.3007864331
Ni      8.5944465270     2.1299522064    13.3024636009
Ni      9.8235738689     4.2571713265    13.3036518189
Ni     11.0522100889     6.3860321297    13.3018225458
Ni      2.4474599081     1.4221864735    15.3336931222
Ni      3.6748590174     3.5500531177    15.3346850908
Ni      4.9039083664     5.6794271098    15.3337386741
Ni      6.1334663440     7.8086692118    15.3309360034
Ni      4.9054492726     1.4207316241    15.3304842079
Ni      6.1328214538     3.5507445437    15.3317677931
Ni      7.3608207125     5.6803066399    15.3312130345
Ni      8.5912722453     7.8085274252    15.3310339652
Ni      7.3629022572     1.4195144746    15.3309017587
Ni      8.5923365155     3.5474910587    15.3314468374
Ni      9.8217495097     5.6792223641    15.3294458856
Ni     11.0499330808     7.8087567174    15.3312688043
Ni      9.8212499138     1.4204381355    15.3330046000
Ni     11.0503840614     3.5480879850    15.3358967334
Ni     12.2795470007     5.6779891735    15.3322321871
Ni     13.5071328287     7.8070142877    15.3306883978
Ni      1.2158129125     0.7139327711    17.3857223827
Ni      2.4431389003     2.8432279002    17.3903233230
Ni      3.6680509746     4.9753890984    17.3847545481
Ni      4.9006639872     7.1030087102    17.3822237826
Ni      3.6894585680     0.6998347139    17.3441816443
Ni      4.8837282695     2.8395024290    17.3523831357
Ni      6.1161996677     4.9856874954    17.3591346492
Ni      7.3543335045     7.1120513827    17.3710484417
Ni      6.1333887146     0.6996670153    17.3757401400
Ni      7.3735616522     2.8263179989    17.3356019891
Ni      8.5922140414     4.9633090201    17.3151691085
Ni      9.8245501376     7.1165218970    17.3605998853
Ni      8.5939140775     0.7036803713    17.3772067944
Ni      9.8252350675     2.8312462200    17.3754104758
Ni     11.0680492703     4.9704154522    17.3527353461
Ni     12.2825174253     7.1037306747    17.3784279135
O       8.6109301455     3.0542704059    20.5070563249
O       8.2225079167     5.5243626979    19.0462289265
O       9.2664731164     3.4226687030    23.3059123472
C       8.7461880582     4.3297840533    21.1446466327
C       9.1628584570     5.3690938879    20.1034244248
C       9.7944407782     4.2786058247    22.2455716349
H       7.7693936482     4.6287564150    21.6017865734
H      10.1481414757     5.0755557375    19.7101835588
H       9.2744223985     6.3521061486    20.6114322182
H      10.0096843573     5.2834590459    22.6334392441
H      10.7179308947     3.8388865623    21.8335303408
H       8.5961697959     2.3833302580    21.2137873000
H       6.1031209632     3.3989591987    18.3050684251
H       9.9518667231     3.3349568351    23.9911453473
O       2.5175504353     0.6173177540    18.9014036613
H       2.6003658420     1.4189110004    19.4683512835
80
Step 4 | NEB Image 4 | Cartesian Angstrom
Ni      1.2285552628     0.7093241270    11.2498513494
Ni      2.4571669826     2.8374384400    11.2497297735
Ni      3.6858150568     4.9655858223    11.2496542204
Ni      4.9144989896     7.0937214266    11.2496762832
Ni      3.6858466010     0.7092758410    11.2496800168
Ni      4.9144912308     2.8374109585    11.2495053447
Ni      6.1431684446     4.9655838825    11.2494474358
Ni      7.3718651323     7.0937415841    11.2495334466
Ni      6.1432100149     0.7092255093    11.2495437518
Ni      7.3718942568     2.8373727010    11.2493849695
Ni      8.6005894870     4.9655602067    11.2493747822
Ni      9.8292731914     7.0937282947    11.2495271216
Ni      8.6006021004     0.7092073018    11.2495421473
Ni      9.8293061516     2.8373601897    11.2494530236
Ni     11.0579911816     4.9655434292    11.2495037716
Ni     12.2866320844     7.0936938963    11.2496636454
Ni      9.8234195246     0.0020671958    13.3015441179
Ni     11.0522097659     2.1299073055    13.3036756566
Ni     12.2805298150     4.2569938429    13.3035161261
Ni     13.5096829015     6.3851417469    13.3026116913
Ni      2.4515411044     0.0019775706    13.3022038365
Ni      3.6799520429     2.1302245397    13.3030829704
Ni      4.9084354913     4.2580897813    13.3040715685
Ni      6.1369953447     6.3861304167    13.3020487342
Ni      4.9085063508     0.0014279301    13.3014802806
Ni      6.1372871258     2.1306917395    13.3040085514
Ni      7.3660867128     4.2582380010    13.3050484000
Ni      8.5944182600     6.3857461176    13.3032213082
Ni      7.3652675541     0.0018654926    13.3009875029
Ni      8.5944574217     2.1300549826    13.3028288002
Ni      9.8235761418     4.2571530097    13.3040519961
Ni     11.0522019539     6.3859265334    13.3020920196
Ni      2.4478811819     1.4220827749    15.3345325076
Ni      3.6751674313     3.5503088626    15.3346808657
Ni      4.9047803686     5.6791619284    15.3347322642
Ni      6.1337842312     7.8082841296    15.3313310423
Ni      4.9053337180     1.4207683748    15.3312093105
Ni      6.1341623471     3.5510644785    15.3334174037
Ni      7.3614815485     5.6795462812    15.3327784122
Ni      8.5916152860     7.8080732972    15.3314993677
Ni      7.3633161257     1.4205774668    15.3321620538
Ni      8.5922706380     3.5475445687    15.3335508165
Ni      9.8220448003     5.6785724111    15.3310535267
Ni     11.0500022896     7.8083426092    15.3317097048
Ni      9.8211407652     1.4207318353    15.3335358051
Ni     11.0503041522     3.5483736899    15.3369985550
Ni     12.2791636510     5.6776062736    15.3332515229
Ni     13.5070582226     7.8068379052    15.3308756941
Ni      1.2177313057     0.7142530844    17.3870921805
Ni      2.4432913144     2.8430704092    17.3888350649
Ni      3.6705112633     4.9760651938    17.3856527492
Ni      4.9020037093     7.1017440961    17.3829416719
Ni      3.6783441126     0.7075261115    17.3641443910
Ni      4.8898483156     2.8505343959    17.3411630703
Ni      6.1209754029     4.9772036208    17.3724156522
Ni      7.3565157016     7.1111000967    17.3698431781
Ni      6.1377530147     0.6985496306    17.3692478916
Ni      7.3713032834     2.8352250516    17.3617816283
Ni      8.6034388223     4.9565648837    17.3282390874
Ni      9.8273583953     7.1129578704    17.3616642180
Ni      8.5940340450     0.7057149652    17.3791387934
Ni      9.8257367957     2.8331005567    17.3772296338
Ni     11.0617005783     4.9679482564    17.3707522683
Ni     12.2820875281     7.1019255500    17.3796079181
O       9.1701289958     3.3977490165    20.1149638568
O       7.7768485038     5.6694900818    18.8847972316
O       8.9531895049     3.2862651851    22.9308109353
C       8.4647135332     4.3990117302    20.8933172405
C       8.4875457158     5.7224127889    20.1283841115
C       9.1236157548     4.5511322740    22.2518137898
H       7.4104585897     4.0743379066    21.0312078938
H       9.5315726983     6.0082926911    19.9423959058
H       8.0116547102     6.4953556898    20.7569941230
H       8.6439742869     5.3646312630    22.8223794031
H      10.1866673420     4.7791290434    22.1169939844
H       9.1852956185     2.5756896483    20.6635024261
H       6.1163956864     2.1507747603    18.3008313281
H       9.4994256999     3.3071355896    23.7658528394
O       2.5512531654     0.6192461333    18.9365406542
H       2.7076009057     1.4179659144    19.4813458945
80
Step 5 | NEB Image 5 | Cartesian Angstrom
Ni      1.2286497034     0.7093615225    11.2499999440
Ni      2.4572989609     2.8374461750    11.2499999440
Ni      3.6859482184     4.9655308275    11.2499999440
Ni      4.9145974759     7.0936154800    11.2499999440
Ni      3.6859497034     0.7093615225    11.2499999440
Ni      4.9145989609     2.8374461750    11.2499999440
Ni      6.1432482184     4.9655308275    11.2499999440
Ni      7.3718974759     7.0936154800    11.2499999440
Ni      6.1432497034     0.7093615225    11.2499999440
Ni      7.3718989609     2.8374461750    11.2499999440
Ni      8.6005482184     4.9655308275    11.2499999440
Ni      9.8291974759     7.0936154800    11.2499999440
Ni      8.6005497034     0.7093615225    11.2499999440
Ni      9.8291989609     2.8374461750    11.2499999440
Ni     11.0578482184     4.9655308275    11.2499999440
Ni     12.2864974759     7.0936154800    11.2499999440
Ni      9.8231926870     0.0024995631    13.3023446442
Ni     11.0518089676     2.1302240586    13.3047083557
Ni     12.2800508544     4.2570722939    13.3044621680
Ni     13.5092873083     6.3850384546    13.3032134512
Ni      2.4517696982     0.0021660497    13.3026623307
Ni      3.6803278881     2.1303359107    13.3041135630
Ni      4.9088074938     4.2579363814    13.3054287544
Ni      6.1372745671     6.3857877107    13.3032783798
Ni      4.9086517115     0.0018312594    13.3024060945
Ni      6.1374036838     2.1309748468    13.3056096270
Ni      7.3661495135     4.2582451239    13.3069522585
Ni      8.5943413203     6.3854189562    13.3048451696
Ni      7.3652044956     0.0023769003    13.3020219334
Ni      8.5942385662     2.1304695544    13.3043868044
Ni      9.8231946918     4.2572739512    13.3057506922
Ni     11.0517679695     6.3857120360    13.3033344194
Ni      2.4490339821     1.4222228929    15.3362210124
Ni      3.6772966574     3.5494520554    15.3385526461
Ni      4.9062018672     5.6779299780    15.3378106046
Ni      6.1346571942     7.8070606266    15.3335999053
Ni      4.9058225197     1.4219699914    15.3362206260
Ni      6.1346426084     3.5508505475    15.3401418518
Ni      7.3625330027     5.6784279498    15.3395242568
Ni      8.5915701206     7.8062468470    15.3354851546
Ni      7.3627071376     1.4224398724    15.3370388041
Ni      8.5913286772     3.5492677633    15.3408174188
Ni      9.8201850849     5.6778143804    15.3377746619
Ni     11.0486433115     7.8070023171    15.3347462049
Ni      9.8200953547     1.4222882677    15.3366654644
Ni     11.0486075444     3.5492992589    15.3407265960
Ni     12.2774144623     5.6772885732    15.3359640033
Ni     13.5061541972     7.8063455902    15.3319299253
Ni      1.2187910631     0.7145173608    17.3879334314
Ni      2.4472474227     2.8420654806    17.3934581627
Ni      3.6755426811     4.9714604374    17.3911199588
Ni      4.9045369929     7.0990999797    17.3858410289
Ni      3.6755273590     0.7130852450    17.3897672789
Ni      4.9037000473     2.8423806074    17.3934481142
Ni      6.1319553005     4.9726957480    17.3963328007
Ni      7.3614524743     7.0997441935    17.3897409983
Ni      6.1332850561     0.7119051795    17.3902534707
Ni      7.3623531846     2.8409773484    17.3961534740
Ni      8.5911690953     4.9716069348    17.3936888912
Ni      9.8197669951     7.1000577029    17.3889506467
Ni      8.5911411426     0.7131642395    17.3880087950
Ni      9.8198330590     2.8408219131    17.3957136598
Ni     11.0487030798     4.9704125685    17.3927698418
Ni     12.2763266601     7.0989938309    17.3852102935
O       9.3819344244     4.1358166692    20.0930362367
O       7.4403591999     5.7710500252    18.8010456662
O       8.6054614657     3.3490556865    22.7703843692
C       8.1664603160     4.5686069475    20.7700096311
C       7.7641571257     5.9228005922    20.1887078083
C       8.3912004598     4.6889035721    22.2787219386
H       7.3485584428     3.8274455412    20.5710354409
H       8.5939941550     6.6612606078    20.2727262356
H       6.8675792875     6.3118286823    20.7285291220
H       7.5127131407     5.1500412147    22.7730789076
H       9.2780443246     5.3384479547    22.4478370724
H       9.6348023466     3.2728259917    20.4951539629
H       4.4134518168     1.3599542848    19.7391102444
H       8.7500633813     3.3953291848    23.7317250903
O       3.5190441201     1.0401590876    20.0091886335
H       2.9303167551     1.7729858078    19.7218291788
