80
Step 1 | NEB Image 1 | Cartesian Angstrom
Ni      1.2286497034     0.7093615225    11.2499999440
Ni      2.4572989609     2.8374461750    11.2499999440
Ni      3.6859482184     4.9655308275    11.2499999440
Ni      4.9145974759     7.0936154800    11.2499999440
Ni      3.6859497034     0.7093615225    11.2499999440
Ni      4.9145989609     2.8374461750    11.2499999440
Ni      6.1432482184     4.9655308275    11.2499999440
Ni      7.3718974759     7.0936154800    11.2499999440
Ni      6.1432497034     0.7093615225    11.2499999440
Ni      7.3718989609     2.8374461750    11.2499999440
Ni      8.6005482184     4.9655308275    11.2499999440
Ni      9.8291974759     7.0936154800    11.2499999440
Ni      8.6005497034     0.7093615225    11.2499999440
Ni      9.8291989609     2.8374461750    11.2499999440
Ni     11.0578482184     4.9655308275    11.2499999440
Ni     12.2864974759     7.0936154800    11.2499999440
Ni      9.8231926870     0.0024995631    13.3023446442
Ni     11.0518089676     2.1302240586    13.3047083557
Ni     12.2800508544     4.2570722939    13.3044621680
Ni     13.5092873083     6.3850384546    13.3032134512
Ni      2.4517696982     0.0021660497    13.3026623307
Ni      3.6803278881     2.1303359107    13.3041135630
Ni      4.9088074938     4.2579363814    13.3054287544
Ni      6.1372745671     6.3857877107    13.3032783798
Ni      4.9086517115     0.0018312594    13.3024060945
Ni      6.1374036838     2.1309748468    13.3056096270
Ni      7.3661495135     4.2582451239    13.3069522585
Ni      8.5943413203     6.3854189562    13.3048451696
Ni      7.3652044956     0.0023769003    13.3020219334
Ni      8.5942385662     2.1304695544    13.3043868044
Ni      9.8231946918     4.2572739512    13.3057506922
Ni     11.0517679695     6.3857120360    13.3033344194
Ni      2.4490339821     1.4222228929    15.3362210124
Ni      3.6772966574     3.5494520554    15.3385526461
Ni      4.9062018672     5.6779299780    15.3378106046
Ni      6.1346571942     7.8070606266    15.3335999053
Ni      4.9058225197     1.4219699914    15.3362206260
Ni      6.1346426084     3.5508505475    15.3401418518
Ni      7.3625330027     5.6784279498    15.3395242568
Ni      8.5915701206     7.8062468470    15.3354851546
Ni      7.3627071376     1.4224398724    15.3370388041
Ni      8.5913286772     3.5492677633    15.3408174188
Ni      9.8201850849     5.6778143804    15.3377746619
Ni     11.0486433115     7.8070023171    15.3347462049
Ni      9.8200953547     1.4222882677    15.3366654644
Ni     11.0486075444     3.5492992589    15.3407265960
Ni     12.2774144623     5.6772885732    15.3359640033
Ni     13.5061541972     7.8063455902    15.3319299253
Ni      1.2187910631     0.7145173608    17.3879334314
Ni      2.4472474227     2.8420654806    17.3934581627
Ni      3.6755426811     4.9714604374    17.3911199588
Ni      4.9045369929     7.0990999797    17.3858410289
Ni      3.6755273590     0.7130852450    17.3897672789
Ni      4.9037000473     2.8423806074    17.3934481142
Ni      6.1319553005     4.9726957480    17.3963328007
Ni      7.3614524743     7.0997441935    17.3897409983
Ni      6.1332850561     0.7119051795    17.3902534707
Ni      7.3623531846     2.8409773484    17.3961534740
Ni      8.5911690953     4.9716069348    17.3936888912
Ni      9.8197669951     7.1000577029    17.3889506467
Ni      8.5911411426     0.7131642395    17.3880087950
Ni      9.8198330590     2.8408219131    17.3957136598
Ni     11.0487030798     4.9704125685    17.3927698418
Ni     12.2763266601     7.0989938309    17.3852102935
O       8.1853233808     3.4574048182    21.7117206478
O       8.5869329741     5.0599815235    19.5762271001
O      10.2109211163     3.6451020548    23.8826602062
C       9.3606393600     4.2890487236    21.7367471584
C       9.7574736302     4.6321502783    20.3055951979
C      10.5272793641     3.6720453941    22.4918474794
H       9.0423459569     5.1976070563    22.2680419510
H      10.2036708160     3.7499198429    19.8025973096
H      10.4835571337     5.4542343167    20.2475656164
H      11.4351836342     4.2717022800    22.2942344717
H      10.7115000118     2.6514065461    22.0984614952
H       8.4384371395     2.5707271966    21.3925898339
H       7.8511829079     4.4818016084    19.8831003151
H      11.0040911060     3.3843978098    24.3788521822
O       2.4676593393     1.4045078651    18.8058894197
H       2.5804189712     1.3115658959    19.7657035449
80
Step 2 | NEB Image 2 | Cartesian Angstrom
Ni      1.2285395710     0.7093148193    11.2498270372
Ni      2.4571503774     2.8374304542    11.2497182338
Ni      3.6857889286     4.9655785032    11.2496450546
Ni      4.9144758768     7.0937258786    11.2496668382
Ni      3.6858446932     0.7092697741    11.2496823984
Ni      4.9144743530     2.8374029490    11.2495278035
Ni      6.1431435858     4.9655837907    11.2494704655
Ni      7.3718445086     7.0937447854    11.2495718649
Ni      6.1432025449     0.7092300013    11.2495948652
Ni      7.3718695392     2.8373782382    11.2494466593
Ni      8.6005564987     4.9655725274    11.2494506813
Ni      9.8292350300     7.0937269185    11.2496050566
Ni      8.6005801421     0.7092293345    11.2496255703
Ni      9.8292667437     2.8373822061    11.2495472080
Ni     11.0579387576     4.9655575249    11.2495983506
Ni     12.2865821864     7.0936892760    11.2497395413
Ni      9.8233319132     0.0021644082    13.3017579944
Ni     11.0520651062     2.1299849262    13.3038928700
Ni     12.2803656717     4.2570566752    13.3036936195
Ni     13.5095396684     6.3851550209    13.3027591770
Ni      2.4515408864     0.0019376262    13.3021341778
Ni      3.6799739561     2.1302119572    13.3031729813
Ni      4.9083275003     4.2580218987    13.3041464997
Ni      6.1369355093     6.3861573918    13.3021058514
Ni      4.9085236719     0.0014496806    13.3016061764
Ni      6.1371826868     2.1306563169    13.3041925178
Ni      7.3659732832     4.2582796426    13.3051998541
Ni      8.5943007408     6.3857832649    13.3034900206
Ni      7.3652119066     0.0019177161    13.3012032144
Ni      8.5943472227     2.1300965145    13.3030371995
Ni      9.8234020542     4.2572502436    13.3043039058
Ni     11.0520109668     6.3859605717    13.3023393809
Ni      2.4480317605     1.4220911480    15.3340114867
Ni      3.6757138048     3.5496597877    15.3359383184
Ni      4.9041474589     5.6791788715    15.3343468991
Ni      6.1338268921     7.8083111506    15.3318007785
Ni      4.9055691170     1.4211073999    15.3325953523
Ni      6.1327504492     3.5504482245    15.3336831721
Ni      7.3613472762     5.6800645210    15.3336939350
Ni      8.5911630146     7.8078131649    15.3327243340
Ni      7.3626034024     1.4199709435    15.3326993037
Ni      8.5917997519     3.5483328257    15.3341690517
Ni      9.8207695601     5.6790126516    15.3323803183
Ni     11.0492824819     7.8081906874    15.3325624690
Ni      9.8207209625     1.4209200350    15.3341870402
Ni     11.0496586484     3.5486588212    15.3371851008
Ni     12.2786729855     5.6779424797    15.3334910678
Ni     13.5066912431     7.8067928222    15.3311648328
Ni      1.2141489860     0.7128652699    17.3837876699
Ni      2.4438452408     2.8460428552    17.3882876885
Ni      3.6690957539     4.9736697037    17.3864673588
Ni      4.9012547105     7.1026914385    17.3829175869
Ni      3.6926673137     0.6989736617    17.3585390760
Ni      4.8919965119     2.8367209337    17.3771855836
Ni      6.1170049245     4.9885608723    17.3581420787
Ni      7.3569177924     7.1068928160    17.3810201913
Ni      6.1321458056     0.7057517828    17.3851335452
Ni      7.3673964917     2.8200783878    17.3430858652
Ni      8.5847332006     4.9738369250    17.3447609517
Ni      9.8206717683     7.1098856708    17.3717489364
Ni      8.5923238786     0.7074068868    17.3826255924
Ni      9.8213145830     2.8313996920    17.3781958928
Ni     11.0602787187     4.9774169946    17.3634942731
Ni     12.2792715059     7.1019931072    17.3812942599
O       8.0631755464     3.2781861499    21.2590784096
O       8.5052698345     5.2149171550    19.1790154586
O       9.6975672693     3.7701826765    23.6678504234
C       8.9923301850     4.3520977029    21.4287448089
C       9.5359025962     4.8939728555    20.0902635589
C      10.1628302994     3.9681566705    22.3305061357
H       8.4133081847     5.1512552359    21.9359343762
H      10.2211351550     4.1164564288    19.6652687960
H      10.1628829683     5.7838549120    20.2953305256
H      10.9370784468     4.7620343529    22.2962894882
H      10.6220798115     3.0366648312    21.9302143643
H       8.4841527775     2.5848058874    20.7520544522
H       6.1213121923     3.5357552671    18.2994694854
H      10.4421584369     3.5226639545    24.2219660868
O       2.5196891203     1.4287215130    18.7875993437
H       2.6541614578     1.4394705734    19.7512358613
80
Step 3 | NEB Image 3 | Cartesian Angstrom
Ni      1.2285125765     0.7093101403    11.2497916384
Ni      2.4571136409     2.8374332127    11.2496524072
Ni      3.6857534993     4.9655941140    11.2495588101
Ni      4.9144476565     7.0937517722    11.2495783992
Ni      3.6858097302     0.7092503010    11.2495808406
Ni      4.9144408568     2.8373982734    11.2493789323
Ni      6.1431181088     4.9655983326    11.2493025965
Ni      7.3718338311     7.0937814489    11.2494161734
Ni      6.1431897429     0.7091898997    11.2494328568
Ni      7.3718694871     2.8373556515    11.2492380736
Ni      8.6005728940     4.9655775591    11.2492298639
Ni      9.8292668238     7.0937643567    11.2494276148
Ni      8.6006021670     0.7091755148    11.2494516660
Ni      9.8293103357     2.8373478998    11.2493435248
Ni     11.0579982650     4.9655564094    11.2494058678
Ni     12.2866401537     7.0937175747    11.2496037824
Ni      9.8234345830     0.0019989953    13.3014256859
Ni     11.0522373727     2.1298567029    13.3035010142
Ni     12.2805742149     4.2569984814    13.3033106352
Ni     13.5097225792     6.3851906585    13.3024961058
Ni      2.4514516070     0.0019012857    13.3019926053
Ni      3.6798389476     2.1302034545    13.3028547440
Ni      4.9082256406     4.2580823307    13.3037711315
Ni      6.1368401574     6.3862416367    13.3017285402
Ni      4.9084743713     0.0013207983    13.3012430288
Ni      6.1371599314     2.1305935892    13.3036506080
Ni      7.3659550830     4.2582642998    13.3045640664
Ni      8.5943382363     6.3858839703    13.3028745696
Ni      7.3652444711     0.0017396604    13.3007916412
Ni      8.5944452883     2.1299540117    13.3024707737
Ni      9.8235717251     4.2571723096    13.3036599713
Ni     11.0522076043     6.3860312328    13.3018290039
Ni      2.4474670523     1.4221852886    15.3336971375
Ni      3.6748696962     3.5500482170    15.3347007508
Ni      4.9039113916     5.6794239911    15.3337463259
Ni      6.1334708528     7.8086647248    15.3309468116
Ni      4.9054507695     1.4207363216    15.3305105761
Ni      6.1328206169     3.5507408642    15.3317917881
Ni      7.3608272980     5.6803035864    15.3312440579
Ni      8.5912708956     7.8085184958    15.3310550743
Ni      7.3628985403     1.4195202163    15.3309242400
Ni      8.5923298214     3.5475015604    15.3314808859
Ni      9.8217372967     5.6792197239    15.3294825476
Ni     11.0499249664     7.8087496418    15.3312849615
Ni      9.8212433135     1.4204441665    15.3330193788
Ni     11.0503750060     3.5480951082    15.3359128567
Ni     12.2795360887     5.6779885762    15.3322479205
Ni     13.5071273183     7.8070115197    15.3306943475
Ni      1.2157923008     0.7139195146    17.3856983855
Ni      2.4431477676     2.8432628690    17.3902980738
Ni      3.6680641332     4.9753676460    17.3847759786
Ni      4.9006714193     7.1030046772    17.3822324871
Ni      3.6894981021     0.6998243308    17.3443611939
Ni      4.8838315073     2.8394679755    17.3526922554
Ni      6.1162100344     4.9857228953    17.3591231628
Ni      7.3543657920     7.1119869924    17.3711727871
Ni      6.1333732868     0.6997429060    17.3758571778
Ni      7.3734847638     2.8262407891    17.3356964388
Ni      8.5921210877     4.9634400304    17.3155386894
Ni      9.8245018407     7.1164390354    17.3607390807
Ni      8.5938942520     0.7037269067    17.3772743940
Ni      9.8251862207     2.8312483383    17.3754455362
Ni     11.0679522312     4.9705024768    17.3528700342
Ni     12.2824769424     7.1037089651    17.3784636945
O       8.6057624147     3.0612210424    20.5085851665
O       8.2272937826     5.5228624035    19.0469418305
O       9.2741410350     3.4290817008    23.3059762808
C       8.7495469338     4.3333341362    21.1508775344
C       9.1656677572     5.3640127225    20.1048759424
C       9.7971352740     4.2717837168    22.2519134855
H       7.7787821321     4.6360826055    21.6026383116
H      10.1517081906     5.0651235803    19.7077711453
H       9.2861216172     6.3447280060    20.6077433794
H      10.0193054094     5.2781955765    22.6299195259
H      10.7179629447     3.8310947519    21.8342899551
H       8.5929600395     2.3831766825    21.2084051665
H       6.1033393424     3.4056111235    18.3041841803
H       9.9554085901     3.3366319068    23.9890737711
O       2.5164023460     0.6243588304    18.8990122694
H       2.5993429407     1.4150697756    19.4740328656
80
Step 4 | NEB Image 4 | Cartesian Angstrom
Ni      1.2285556524     0.7093242542    11.2498518942
Ni      2.4571674699     2.8374384870    11.2497304822
Ni      3.6858156182     4.9655857452    11.2496550950
Ni      4.9144994575     7.0937211486    11.2496771803
Ni      3.6858469390     0.7092760747    11.2496809272
Ni      4.9144916907     2.8374110739    11.2495065079
Ni      6.1431689030     4.9655837499    11.2494487681
Ni      7.3718654166     7.0937412187    11.2495345279
Ni      6.1432101999     0.7092258367    11.2495447761
Ni      7.3718944807     2.8373728582    11.2493863258
Ni      8.6005896347     4.9655600491    11.2493761222
Ni      9.8292732446     7.0937279636    11.2495280450
Ni      8.6006020968     0.7092075965    11.2495429887
Ni      9.8293061079     2.8373603054    11.2494540409
Ni     11.0579911096     4.9655433120    11.2495046825
Ni     12.2866320037     7.0936936784    11.2496642047
Ni      9.8234193748     0.0020678346    13.3015452330
Ni     11.0522094933     2.1299077801    13.3036772882
Ni     12.2805293857     4.2569938085    13.3035180349
Ni     13.5096825185     6.3851412999    13.3026127712
Ni      2.4515419253     0.0019782655    13.3022057651
Ni      3.6799530834     2.1302247319    13.3030850773
Ni      4.9084374021     4.2580898404    13.3040743367
Ni      6.1369967603     6.3861293995    13.3020516805
Ni      4.9085066466     0.0014289162    13.3014824739
Ni      6.1372882787     2.1306926357    13.3040118609
Ni      7.3660879049     4.2582377653    13.3050528647
Ni      8.5944189782     6.3857448577    13.3032245255
Ni      7.3652677584     0.0018666542    13.3009893286
Ni      8.5944575182     2.1300559147    13.3028321131
Ni      9.8235761590     4.2571528454    13.3040556265
Ni     11.0522018765     6.3859255774    13.3020944654
Ni      2.4478849995     1.4220818378    15.3345401044
Ni      3.6751702363     3.5503111662    15.3346808576
Ni      4.9047882582     5.6791595236    15.3347412641
Ni      6.1337871114     7.8082806404    15.3313346310
Ni      4.9053326772     1.4207687161    15.3312159060
Ni      6.1341744667     3.5510673663    15.3334323615
Ni      7.3614875301     5.6795394021    15.3327926133
Ni      8.5916183850     7.8080691781    15.3315036076
Ni      7.3633198602     1.4205870864    15.3321734827
Ni      8.5922700335     3.5475450679    15.3335698895
Ni      9.8220474515     5.6785665318    15.3310681131
Ni     11.0500029028     7.8083388555    15.3317137152
Ni      9.8211397692     1.4207345014    15.3335406313
Ni     11.0503034155     3.5483762811    15.3370085418
Ni     12.2791601707     5.6776028114    15.3332607587
Ni     13.5070575402     7.8068363069    15.3308773959
Ni      1.2177486347     0.7142559721    17.3871045486
Ni      2.4432927181     2.8430690027    17.3888216239
Ni      3.6705335314     4.9760712660    17.3856609083
Ni      4.9020158342     7.1017326515    17.3829481802
Ni      3.6782436819     0.7075956410    17.3643250405
Ni      4.8899037597     2.8506340269    17.3410621434
Ni      6.1210186251     4.9771269510    17.3725357902
Ni      7.3565354682     7.1110914000    17.3698324686
Ni      6.1377924216     0.6985396505    17.3691894051
Ni      7.3712827794     2.8353055259    17.3620184520
Ni      8.6035401374     4.9565040984    17.3283577754
Ni      9.8273837032     7.1129255428    17.3616740668
Ni      8.5940351015     0.7057334200    17.3791563417
Ni      9.8257412682     2.8331173561    17.3772461924
Ni     11.0616430764     4.9679260280    17.3709152863
Ni     12.2820835875     7.1019092081    17.3796186336
O       9.1716940132     3.3996257148    20.1205224942
O       7.7729868152     5.6722574756    18.8833140525
O       8.9624146349     3.2872163932    22.9432546496
C       8.4614683931     4.3979766573    20.8852095522
C       8.4797670448     5.7230768442    20.1302619862
C       9.1154859226     4.5507269719    22.2521897323
H       7.4109920059     4.0712588935    21.0237757880
H       9.5254953387     6.0186434715    19.9434513168
H       8.0004580057     6.4955805771    20.7559766794
H       8.6305584627     5.3642901063    22.8224781035
H      10.1811921840     4.7887111033    22.1192048012
H       9.1893428974     2.5884240441    20.6500547173
H       6.1179794159     2.1410229974    18.2983901197
H       9.4838134789     3.3060840511    23.7446697136
O       2.5497027865     0.6174512384    18.9360809012
H       2.7042185252     1.4154314595    19.4815343829
80
Step 5 | NEB Image 5 | Cartesian Angstrom
Ni      1.2286497034     0.7093615225    11.2499999440
Ni      2.4572989609     2.8374461750    11.2499999440
Ni      3.6859482184     4.9655308275    11.2499999440
Ni      4.9145974759     7.0936154800    11.2499999440
Ni      3.6859497034     0.7093615225    11.2499999440
Ni      4.9145989609     2.8374461750    11.2499999440
Ni      6.1432482184     4.9655308275    11.2499999440
Ni      7.3718974759     7.0936154800    11.2499999440
Ni      6.1432497034     0.7093615225    11.2499999440
Ni      7.3718989609     2.8374461750    11.2499999440
Ni      8.6005482184     4.9655308275    11.2499999440
Ni      9.8291974759     7.0936154800    11.2499999440
Ni      8.6005497034     0.7093615225    11.2499999440
Ni      9.8291989609     2.8374461750    11.2499999440
Ni     11.0578482184     4.9655308275    11.2499999440
Ni     12.2864974759     7.0936154800    11.2499999440
Ni      9.8231926870     0.0024995631    13.3023446442
Ni     11.0518089676     2.1302240586    13.3047083557
Ni     12.2800508544     4.2570722939    13.3044621680
Ni     13.5092873083     6.3850384546    13.3032134512
Ni      2.4517696982     0.0021660497    13.3026623307
Ni      3.6803278881     2.1303359107    13.3041135630
Ni      4.9088074938     4.2579363814    13.3054287544
Ni      6.1372745671     6.3857877107    13.3032783798
Ni      4.9086517115     0.0018312594    13.3024060945
Ni      6.1374036838     2.1309748468    13.3056096270
Ni      7.3661495135     4.2582451239    13.3069522585
Ni      8.5943413203     6.3854189562    13.3048451696
Ni      7.3652044956     0.0023769003    13.3020219334
Ni      8.5942385662     2.1304695544    13.3043868044
Ni      9.8231946918     4.2572739512    13.3057506922
Ni     11.0517679695     6.3857120360    13.3033344194
Ni      2.4490339821     1.4222228929    15.3362210124
Ni      3.6772966574     3.5494520554    15.3385526461
Ni      4.9062018672     5.6779299780    15.3378106046
Ni      6.1346571942     7.8070606266    15.3335999053
Ni      4.9058225197     1.4219699914    15.3362206260
Ni      6.1346426084     3.5508505475    15.3401418518
Ni      7.3625330027     5.6784279498    15.3395242568
Ni      8.5915701206     7.8062468470    15.3354851546
Ni      7.3627071376     1.4224398724    15.3370388041
Ni      8.5913286772     3.5492677633    15.3408174188
Ni      9.8201850849     5.6778143804    15.3377746619
Ni     11.0486433115     7.8070023171    15.3347462049
Ni      9.8200953547     1.4222882677    15.3366654644
Ni     11.0486075444     3.5492992589    15.3407265960
Ni     12.2774144623     5.6772885732    15.3359640033
Ni     13.5061541972     7.8063455902    15.3319299253
Ni      1.2187910631     0.7145173608    17.3879334314
Ni      2.4472474227     2.8420654806    17.3934581627
Ni      3.6755426811     4.9714604374    17.3911199588
Ni      4.9045369929     7.0990999797    17.3858410289
Ni      3.6755273590     0.7130852450    17.3897672789
Ni      4.9037000473     2.8423806074    17.3934481142
Ni      6.1319553005     4.9726957480    17.3963328007
Ni      7.3614524743     7.0997441935    17.3897409983
Ni      6.1332850561     0.7119051795    17.3902534707
Ni      7.3623531846     2.8409773484    17.3961534740
Ni      8.5911690953     4.9716069348    17.3936888912
Ni      9.8197669951     7.1000577029    17.3889506467
Ni      8.5911411426     0.7131642395    17.3880087950
Ni      9.8198330590     2.8408219131    17.3957136598
Ni     11.0487030798     4.9704125685    17.3927698418
Ni     12.2763266601     7.0989938309    17.3852102935
O       9.3819344244     4.1358166692    20.0930362367
O       7.4403591999     5.7710500252    18.8010456662
O       8.6054614657     3.3490556865    22.7703843692
C       8.1664603160     4.5686069475    20.7700096311
C       7.7641571257     5.9228005922    20.1887078083
C       8.3912004598     4.6889035721    22.2787219386
H       7.3485584428     3.8274455412    20.5710354409
H       8.5939941550     6.6612606078    20.2727262356
H       6.8675792875     6.3118286823    20.7285291220
H       7.5127131407     5.1500412147    22.7730789076
H       9.2780443246     5.3384479547    22.4478370724
H       9.6348023466     3.2728259917    20.4951539629
H       4.4134518168     1.3599542848    19.7391102444
H       8.7500633813     3.3953291848    23.7317250903
O       3.5190441201     1.0401590876    20.0091886335
H       2.9303167551     1.7729858078    19.7218291788
