80
Step 1 | NEB Image 1 | Cartesian Angstrom
Ni      1.2286497034     0.7093615225    11.2499999440
Ni      2.4572989609     2.8374461750    11.2499999440
Ni      3.6859482184     4.9655308275    11.2499999440
Ni      4.9145974759     7.0936154800    11.2499999440
Ni      3.6859497034     0.7093615225    11.2499999440
Ni      4.9145989609     2.8374461750    11.2499999440
Ni      6.1432482184     4.9655308275    11.2499999440
Ni      7.3718974759     7.0936154800    11.2499999440
Ni      6.1432497034     0.7093615225    11.2499999440
Ni      7.3718989609     2.8374461750    11.2499999440
Ni      8.6005482184     4.9655308275    11.2499999440
Ni      9.8291974759     7.0936154800    11.2499999440
Ni      8.6005497034     0.7093615225    11.2499999440
Ni      9.8291989609     2.8374461750    11.2499999440
Ni     11.0578482184     4.9655308275    11.2499999440
Ni     12.2864974759     7.0936154800    11.2499999440
Ni      9.8231926870     0.0024995631    13.3023446442
Ni     11.0518089676     2.1302240586    13.3047083557
Ni     12.2800508544     4.2570722939    13.3044621680
Ni     13.5092873083     6.3850384546    13.3032134512
Ni      2.4517696982     0.0021660497    13.3026623307
Ni      3.6803278881     2.1303359107    13.3041135630
Ni      4.9088074938     4.2579363814    13.3054287544
Ni      6.1372745671     6.3857877107    13.3032783798
Ni      4.9086517115     0.0018312594    13.3024060945
Ni      6.1374036838     2.1309748468    13.3056096270
Ni      7.3661495135     4.2582451239    13.3069522585
Ni      8.5943413203     6.3854189562    13.3048451696
Ni      7.3652044956     0.0023769003    13.3020219334
Ni      8.5942385662     2.1304695544    13.3043868044
Ni      9.8231946918     4.2572739512    13.3057506922
Ni     11.0517679695     6.3857120360    13.3033344194
Ni      2.4490339821     1.4222228929    15.3362210124
Ni      3.6772966574     3.5494520554    15.3385526461
Ni      4.9062018672     5.6779299780    15.3378106046
Ni      6.1346571942     7.8070606266    15.3335999053
Ni      4.9058225197     1.4219699914    15.3362206260
Ni      6.1346426084     3.5508505475    15.3401418518
Ni      7.3625330027     5.6784279498    15.3395242568
Ni      8.5915701206     7.8062468470    15.3354851546
Ni      7.3627071376     1.4224398724    15.3370388041
Ni      8.5913286772     3.5492677633    15.3408174188
Ni      9.8201850849     5.6778143804    15.3377746619
Ni     11.0486433115     7.8070023171    15.3347462049
Ni      9.8200953547     1.4222882677    15.3366654644
Ni     11.0486075444     3.5492992589    15.3407265960
Ni     12.2774144623     5.6772885732    15.3359640033
Ni     13.5061541972     7.8063455902    15.3319299253
Ni      1.2187910631     0.7145173608    17.3879334314
Ni      2.4472474227     2.8420654806    17.3934581627
Ni      3.6755426811     4.9714604374    17.3911199588
Ni      4.9045369929     7.0990999797    17.3858410289
Ni      3.6755273590     0.7130852450    17.3897672789
Ni      4.9037000473     2.8423806074    17.3934481142
Ni      6.1319553005     4.9726957480    17.3963328007
Ni      7.3614524743     7.0997441935    17.3897409983
Ni      6.1332850561     0.7119051795    17.3902534707
Ni      7.3623531846     2.8409773484    17.3961534740
Ni      8.5911690953     4.9716069348    17.3936888912
Ni      9.8197669951     7.1000577029    17.3889506467
Ni      8.5911411426     0.7131642395    17.3880087950
Ni      9.8198330590     2.8408219131    17.3957136598
Ni     11.0487030798     4.9704125685    17.3927698418
Ni     12.2763266601     7.0989938309    17.3852102935
O       8.1853233808     3.4574048182    21.7117206478
O       8.5869329741     5.0599815235    19.5762271001
O      10.2109211163     3.6451020548    23.8826602062
C       9.3606393600     4.2890487236    21.7367471584
C       9.7574736302     4.6321502783    20.3055951979
C      10.5272793641     3.6720453941    22.4918474794
H       9.0423459569     5.1976070563    22.2680419510
H      10.2036708160     3.7499198429    19.8025973096
H      10.4835571337     5.4542343167    20.2475656164
H      11.4351836342     4.2717022800    22.2942344717
H      10.7115000118     2.6514065461    22.0984614952
H       8.4384371395     2.5707271966    21.3925898339
H       7.8511829079     4.4818016084    19.8831003151
H      11.0040911060     3.3843978098    24.3788521822
O       2.4676593393     1.4045078651    18.8058894197
H       2.5804189712     1.3115658959    19.7657035449
80
Step 2 | NEB Image 2 | Cartesian Angstrom
Ni      1.2286135293     0.7093433880    11.2499402871
Ni      2.4572503154     2.8374382623    11.2499062658
Ni      3.6858943937     4.9655447895    11.2498833262
Ni      4.9145568495     7.0936521510    11.2498935527
Ni      3.6859190777     0.7093301921    11.2499056726
Ni      4.9145592499     2.8374295360    11.2498590192
Ni      6.1432137202     4.9655475366    11.2498422687
Ni      7.3718790518     7.0936558186    11.2498807831
Ni      6.1432347193     0.7093216934    11.2498933023
Ni      7.3718862326     2.8374263896    11.2498490242
Ni      8.6005448323     4.9655466932    11.2498558540
Ni      9.8292002726     7.0936478221    11.2499041652
Ni      8.6005535622     0.7093271460    11.2499115306
Ni      9.8292098510     2.8374330000    11.2498902653
Ni     11.0578622404     4.9655428034    11.2499075692
Ni     12.2865096497     7.0936354353    11.2499446291
Ni      9.8232096247     0.0024245421    13.3022311525
Ni     11.0518470506     2.1301747691    13.3045213401
Ni     12.2800990539     4.2570898768    13.3042913656
Ni     13.5093194132     6.3850738212    13.3031278163
Ni      2.4517083662     0.0020829118    13.3024938615
Ni      3.6802318859     2.1302862477    13.3038419860
Ni      4.9086431109     4.2579477787    13.3050342329
Ni      6.1371681557     6.3859115921    13.3029315304
Ni      4.9086172276     0.0017209036    13.3022134018
Ni      6.1373177545     2.1308639845    13.3052263871
Ni      7.3660808281     4.2582664572    13.3064637808
Ni      8.5943078342     6.3855338433    13.3045191649
Ni      7.3651939618     0.0022536845    13.3018416170
Ni      8.5942441656     2.1303685667    13.3040426815
Ni      9.8232127743     4.2572963838    13.3053970371
Ni     11.0517901385     6.3857896627    13.3031193525
Ni      2.4488375462     1.4221278924    15.3354007431
Ni      3.6769687063     3.5493775953    15.3379488803
Ni      4.9054152012     5.6783642381    15.3365716185
Ni      6.1344480634     7.8074511317    15.3331829240
Ni      4.9057640335     1.4217550242    15.3355325055
Ni      6.1337949469     3.5505543851    15.3381542469
Ni      7.3622378861     5.6790337681    15.3380389248
Ni      8.5913487493     7.8066264340    15.3349956498
Ni      7.3625372110     1.4215639810    15.3359125338
Ni      8.5913099345     3.5492134549    15.3390777898
Ni      9.8200303286     5.6782451758    15.3366623703
Ni     11.0486488793     7.8072808136    15.3343407270
Ni      9.8201462628     1.4218988757    15.3360874819
Ni     11.0487596330     3.5492581521    15.3397334930
Ni     12.2775960837     5.6775517110    15.3354168303
Ni     13.5062029195     7.8064470506    15.3317972018
Ni      1.2161069106     0.7133687297    17.3853537458
Ni      2.4460803111     2.8449278192    17.3904156974
Ni      3.6731969134     4.9716948230    17.3898269746
Ni      4.9033663679     7.1005150498    17.3848702873
Ni      3.6842551389     0.7066412051    17.3821805618
Ni      4.9020531774     2.8387449851    17.3967587162
Ni      6.1258556032     4.9807235197    17.3794896868
Ni      7.3605606926     7.1006884827    17.3901171944
Ni      6.1322590472     0.7117808340    17.3919660172
Ni      7.3619898140     2.8294063986    17.3763487596
Ni      8.5852662850     4.9769350670    17.3848338906
Ni      9.8185413732     7.1015573015    17.3861658253
Ni      8.5909925388     0.7122198052    17.3879215202
Ni      9.8188512182     2.8368390979    17.3893475103
Ni     11.0505013703     4.9763078991    17.3845505078
Ni     12.2762546882     7.0995742379    17.3847056210
O       8.1240082906     3.4564020148    21.5452212131
O       8.7088216805     5.1111415793    19.2470347740
O      10.1660273086     3.9221740574    23.6917797432
C       9.2909893124     4.2783375219    21.4841409889
C       9.7333195782     4.5278743496    20.0245630644
C      10.4484812219     3.6897707683    22.3084322415
H       9.0114052553     5.2363789315    21.9559144158
H      10.0395511786     3.5297308580    19.6002528529
H      10.6494072995     5.1581343681    20.0242322587
H      11.4069546217     4.1659854504    22.0177454946
H      10.5170792991     2.6046894458    22.0896546497
H       8.1872586815     2.8065219244    20.8153632019
H       6.3071471348     3.6417316763    18.4061221356
H      10.9152213983     3.6007650825    24.2301370500
O       2.5130266273     1.4881540163    18.8035254201
H       2.6417418913     1.5323362942    19.7720302006
80
Step 3 | NEB Image 3 | Cartesian Angstrom
Ni      1.2285493736     0.7093207148    11.2498441764
Ni      2.4571634567     2.8374335974    11.2497437042
Ni      3.6858040641     4.9655754497    11.2496762302
Ni      4.9144871818     7.0937159224    11.2496942314
Ni      3.6858515341     0.7092785965    11.2497040142
Ni      4.9144846895     2.8374083102    11.2495602042
Ni      6.1431530853     4.9655795789    11.2495066015
Ni      7.3718499913     7.0937347447    11.2495957777
Ni      6.1432064410     0.7092393962    11.2496135917
Ni      7.3718742532     2.8373825743    11.2494755440
Ni      8.6005598643     4.9655674200    11.2494756907
Ni      9.8292379908     7.0937197921    11.2496180049
Ni      8.6005814714     0.7092351289    11.2496362811
Ni      9.8292681967     2.8373827707    11.2495619211
Ni     11.0579410170     4.9655530758    11.2496082759
Ni     12.2865848880     7.0936854913    11.2497430162
Ni      9.8233382927     0.0021712279    13.3017585552
Ni     11.0520724294     2.1299871101    13.3039124107
Ni     12.2803736744     4.2570434683    13.3037089920
Ni     13.5095502060     6.3851464688    13.3027584298
Ni      2.4515524456     0.0019630001    13.3021780628
Ni      3.6799922909     2.1302284126    13.3032314329
Ni      4.9083747627     4.2580253597    13.3042415628
Ni      6.1369627786     6.3861232596    13.3021843877
Ni      4.9085300535     0.0014736626    13.3016319369
Ni      6.1372113029     2.1306883795    13.3042641981
Ni      7.3659965249     4.2582700598    13.3052982200
Ni      8.5943178857     6.3857539182    13.3035328001
Ni      7.3652197907     0.0019404311    13.3012183041
Ni      8.5943573124     2.1301155209    13.3030923426
Ni      9.8234163951     4.2572327819    13.3043533831
Ni     11.0520270336     6.3859409173    13.3023553805
Ni      2.4480365788     1.4221342409    15.3342682111
Ni      3.6757289495     3.5497358932    15.3359975376
Ni      4.9044024277     5.6790547168    15.3347160314
Ni      6.1338601543     7.8082138512    15.3318466755
Ni      4.9055736194     1.4211373943    15.3325900409
Ni      6.1330695105     3.5505903974    15.3341634496
Ni      7.3613947032     5.6798740196    15.3339312042
Ni      8.5912571162     7.8077614764    15.3326973411
Ni      7.3627032524     1.4202331729    15.3328901396
Ni      8.5918697490     3.5482514721    15.3344722571
Ni      9.8209442864     5.6788803367    15.3324343817
Ni     11.0493593515     7.8081567970    15.3325535573
Ni      9.8207653312     1.4210009842    15.3342524018
Ni     11.0496918208     3.5486082125    15.3373887960
Ni     12.2787099751     5.6778520806    15.3335426060
Ni     13.5067263289     7.8067819880    15.3311560978
Ni      1.2153030094     0.7133955232    17.3849311341
Ni      2.4441673121     2.8447108455    17.3895685062
Ni      3.6698145663     4.9738027437    17.3867217054
Ni      4.9016064979     7.1022230292    17.3831800237
Ni      3.6891185205     0.7014068347    17.3596966586
Ni      4.8916526220     2.8384512887    17.3729273504
Ni      6.1190830585     4.9853275078    17.3642669121
Ni      7.3569444086     7.1071715908    17.3796801412
Ni      6.1327044252     0.7050521239    17.3833340521
Ni      7.3682333081     2.8249492385    17.3493814977
Ni      8.5878153364     4.9706443240    17.3444482112
Ni      9.8215961804     7.1101166420    17.3713922414
Ni      8.5925674211     0.7073130966    17.3820304785
Ni      9.8221310333     2.8327856316    17.3800927373
Ni     11.0605076400     4.9745029028    17.3652784099
Ni     12.2796800548     7.1019776996    17.3811404508
O       8.5578614117     3.3098726675    20.3798940907
O       8.9458645854     5.8947906535    18.9646344202
O       9.3585218176     3.4895395395    23.2034378159
C       9.0634889756     4.4799468303    21.0288511793
C       9.7743567105     5.3347055577    19.9828128649
C      10.0644784610     4.1250864525    22.1267651007
H       8.2346255755     5.0560813345    21.4808418797
H      10.5590298437     4.6807059388    19.5227165488
H      10.2805032738     6.1676369428    20.4925869964
H      10.5679347044     5.0411020255    22.4779526361
H      10.8242341653     3.4414039655    21.7100645551
H       8.2743183269     2.6712581394    21.0574287452
H       6.1215596880     3.5508282727    18.3035129849
H      10.0105451665     3.2419441286    23.8835100144
O       2.4876935399     0.4822629532    18.8780341179
H       2.5364754770     1.1880773431    19.5571175102
80
Step 4 | NEB Image 4 | Cartesian Angstrom
Ni      1.2285427657     0.7093193853    11.2498329229
Ni      2.4571509932     2.8374365640    11.2497041044
Ni      3.6857968724     4.9655890161    11.2496224320
Ni      4.9144842785     7.0937314875    11.2496450659
Ni      3.6858358313     0.7092673323    11.2496497698
Ni      4.9144767909     2.8374066363    11.2494645374
Ni      6.1431545890     4.9655886017    11.2494010887
Ni      7.3718568531     7.0937539852    11.2494967472
Ni      6.1432043111     0.7092140067    11.2495096327
Ni      7.3718879293     2.8373671065    11.2493387782
Ni      8.6005858466     4.9655653884    11.2493296657
Ni      9.8292723142     7.0937390909    11.2494963856
Ni      8.6006025966     0.7091970953    11.2495140164
Ni      9.8293082921     2.8373562088    11.2494187211
Ni     11.0579942909     4.9655472997    11.2494736645
Ni     12.2866351923     7.0937008631    11.2496452966
Ni      9.8234246966     0.0020449905    13.3015071684
Ni     11.0522199326     2.1298914818    13.3036194414
Ni     12.2805445541     4.2569964258    13.3034554376
Ni     13.5096949062     6.3851554424    13.3025784885
Ni      2.4515163169     0.0019533315    13.3021430767
Ni      3.6799186949     2.1302150359    13.3030073190
Ni      4.9083755777     4.2580896911    13.3039682349
Ni      6.1369525636     6.3861661461    13.3019464351
Ni      4.9084961099     0.0013942929    13.3014109614
Ni      6.1372523897     2.1306600872    13.3038942483
Ni      7.3660529150     4.2582454889    13.3048972426
Ni      8.5943987523     6.3857863195    13.3031150317
Ni      7.3652619106     0.0018265653    13.3009276521
Ni      8.5944559090     2.1300235248    13.3027185137
Ni      9.8235777460     4.2571589867    13.3039335913
Ni     11.0522061090     6.3859560326    13.3020146457
Ni      2.4477751549     1.4220937403    15.3342768547
Ni      3.6750700219     3.5502498933    15.3346170003
Ni      4.9045217592     5.6792612669    15.3344012153
Ni      6.1336978784     7.8084031039    15.3312068095
Ni      4.9053507165     1.4207379983    15.3309889298
Ni      6.1338031937     3.5509691555    15.3328742542
Ni      7.3613169401     5.6797633757    15.3323045797
Ni      8.5915230124     7.8082053519    15.3313525727
Ni      7.3632151818     1.4202708094    15.3317880774
Ni      8.5922824228     3.5475273027    15.3329415466
Ni      9.8219699553     5.6787488204    15.3306100399
Ni     11.0499895398     7.8084558272    15.3315770544
Ni      9.8211685878     1.4206312634    15.3333669142
Ni     11.0503369204     3.5483113122    15.3366709743
Ni     12.2792607608     5.6777111132    15.3329875234
Ni     13.5070787798     7.8068843038    15.3308235720
Ni      1.2170640027     0.7140686497    17.3865465805
Ni      2.4431371068     2.8434008664    17.3888162873
Ni      3.6697679844     4.9759553246    17.3853342048
Ni      4.9016101821     7.1021479836    17.3826942946
Ni      3.6814978113     0.7052998860    17.3593131106
Ni      4.8884350996     2.8479329994    17.3437478539
Ni      6.1193709433     4.9797542844    17.3679693368
Ni      7.3559800688     7.1113957913    17.3701162763
Ni      6.1367674223     0.6987559170    17.3707267064
Ni      7.3717254100     2.8322192673    17.3544186727
Ni      8.6005642466     4.9584740081    17.3246480747
Ni      9.8266675121     7.1138394434    17.3611464829
Ni      8.5939957094     0.7052024569    17.3787356234
Ni      9.8255360195     2.8323077590    17.3761905865
Ni     11.0631753136     4.9690592073    17.3662494781
Ni     12.2821694955     7.1023517019    17.3793145639
O       9.0841958587     3.4194340630    20.0004760852
O       7.8734471585     5.7732968609    18.8715408609
O       9.0112643294     3.2667329222    22.8154897009
C       8.5320662064     4.4601799834    20.8177002923
C       8.6556812631     5.7834117676    20.0669933952
C       9.2623507338     4.5171370629    22.1513997741
H       7.4593901683     4.2615382767    20.9984744693
H       9.7172447283     5.9607250295    19.8180114697
H       8.3002700935     6.6047702501    20.7087596067
H       8.8902623357     5.3638163967    22.7526792778
H      10.3386100742     4.6532047090    21.9627628905
H       8.9424216732     2.5702415198    20.4723998435
H       6.1322312915     2.1757510591    18.2918656814
H       9.6142978497     3.1977188233    23.5801954231
O       2.4704125455     0.5018626340    18.9031691456
H       2.4851631789     1.2682032470    19.5128119034
80
Step 5 | NEB Image 5 | Cartesian Angstrom
Ni      1.2286497034     0.7093615225    11.2499999440
Ni      2.4572989609     2.8374461750    11.2499999440
Ni      3.6859482184     4.9655308275    11.2499999440
Ni      4.9145974759     7.0936154800    11.2499999440
Ni      3.6859497034     0.7093615225    11.2499999440
Ni      4.9145989609     2.8374461750    11.2499999440
Ni      6.1432482184     4.9655308275    11.2499999440
Ni      7.3718974759     7.0936154800    11.2499999440
Ni      6.1432497034     0.7093615225    11.2499999440
Ni      7.3718989609     2.8374461750    11.2499999440
Ni      8.6005482184     4.9655308275    11.2499999440
Ni      9.8291974759     7.0936154800    11.2499999440
Ni      8.6005497034     0.7093615225    11.2499999440
Ni      9.8291989609     2.8374461750    11.2499999440
Ni     11.0578482184     4.9655308275    11.2499999440
Ni     12.2864974759     7.0936154800    11.2499999440
Ni      9.8231926870     0.0024995631    13.3023446442
Ni     11.0518089676     2.1302240586    13.3047083557
Ni     12.2800508544     4.2570722939    13.3044621680
Ni     13.5092873083     6.3850384546    13.3032134512
Ni      2.4517696982     0.0021660497    13.3026623307
Ni      3.6803278881     2.1303359107    13.3041135630
Ni      4.9088074938     4.2579363814    13.3054287544
Ni      6.1372745671     6.3857877107    13.3032783798
Ni      4.9086517115     0.0018312594    13.3024060945
Ni      6.1374036838     2.1309748468    13.3056096270
Ni      7.3661495135     4.2582451239    13.3069522585
Ni      8.5943413203     6.3854189562    13.3048451696
Ni      7.3652044956     0.0023769003    13.3020219334
Ni      8.5942385662     2.1304695544    13.3043868044
Ni      9.8231946918     4.2572739512    13.3057506922
Ni     11.0517679695     6.3857120360    13.3033344194
Ni      2.4490339821     1.4222228929    15.3362210124
Ni      3.6772966574     3.5494520554    15.3385526461
Ni      4.9062018672     5.6779299780    15.3378106046
Ni      6.1346571942     7.8070606266    15.3335999053
Ni      4.9058225197     1.4219699914    15.3362206260
Ni      6.1346426084     3.5508505475    15.3401418518
Ni      7.3625330027     5.6784279498    15.3395242568
Ni      8.5915701206     7.8062468470    15.3354851546
Ni      7.3627071376     1.4224398724    15.3370388041
Ni      8.5913286772     3.5492677633    15.3408174188
Ni      9.8201850849     5.6778143804    15.3377746619
Ni     11.0486433115     7.8070023171    15.3347462049
Ni      9.8200953547     1.4222882677    15.3366654644
Ni     11.0486075444     3.5492992589    15.3407265960
Ni     12.2774144623     5.6772885732    15.3359640033
Ni     13.5061541972     7.8063455902    15.3319299253
Ni      1.2187910631     0.7145173608    17.3879334314
Ni      2.4472474227     2.8420654806    17.3934581627
Ni      3.6755426811     4.9714604374    17.3911199588
Ni      4.9045369929     7.0990999797    17.3858410289
Ni      3.6755273590     0.7130852450    17.3897672789
Ni      4.9037000473     2.8423806074    17.3934481142
Ni      6.1319553005     4.9726957480    17.3963328007
Ni      7.3614524743     7.0997441935    17.3897409983
Ni      6.1332850561     0.7119051795    17.3902534707
Ni      7.3623531846     2.8409773484    17.3961534740
Ni      8.5911690953     4.9716069348    17.3936888912
Ni      9.8197669951     7.1000577029    17.3889506467
Ni      8.5911411426     0.7131642395    17.3880087950
Ni      9.8198330590     2.8408219131    17.3957136598
Ni     11.0487030798     4.9704125685    17.3927698418
Ni     12.2763266601     7.0989938309    17.3852102935
O       9.3819344244     4.1358166692    20.0930362367
O       7.4403591999     5.7710500252    18.8010456662
O       8.6054614657     3.3490556865    22.7703843692
C       8.1664603160     4.5686069475    20.7700096311
C       7.7641571257     5.9228005922    20.1887078083
C       8.3912004598     4.6889035721    22.2787219386
H       7.3485584428     3.8274455412    20.5710354409
H       8.5939941550     6.6612606078    20.2727262356
H       6.8675792875     6.3118286823    20.7285291220
H       7.5127131407     5.1500412147    22.7730789076
H       9.2780443246     5.3384479547    22.4478370724
H       9.6348023466     3.2728259917    20.4951539629
H       4.4134518168     1.3599542848    19.7391102444
H       8.7500633813     3.3953291848    23.7317250903
O       3.5190441201     1.0401590876    20.0091886335
H       2.9303167551     1.7729858078    19.7218291788
