80
Step 1 | NEB Image 1 | Cartesian Angstrom
Ni      1.2286497034     0.7093615225    11.2499999440
Ni      2.4572989609     2.8374461750    11.2499999440
Ni      3.6859482184     4.9655308275    11.2499999440
Ni      4.9145974759     7.0936154800    11.2499999440
Ni      3.6859497034     0.7093615225    11.2499999440
Ni      4.9145989609     2.8374461750    11.2499999440
Ni      6.1432482184     4.9655308275    11.2499999440
Ni      7.3718974759     7.0936154800    11.2499999440
Ni      6.1432497034     0.7093615225    11.2499999440
Ni      7.3718989609     2.8374461750    11.2499999440
Ni      8.6005482184     4.9655308275    11.2499999440
Ni      9.8291974759     7.0936154800    11.2499999440
Ni      8.6005497034     0.7093615225    11.2499999440
Ni      9.8291989609     2.8374461750    11.2499999440
Ni     11.0578482184     4.9655308275    11.2499999440
Ni     12.2864974759     7.0936154800    11.2499999440
Ni      9.8231926870     0.0024995631    13.3023446442
Ni     11.0518089676     2.1302240586    13.3047083557
Ni     12.2800508544     4.2570722939    13.3044621680
Ni     13.5092873083     6.3850384546    13.3032134512
Ni      2.4517696982     0.0021660497    13.3026623307
Ni      3.6803278881     2.1303359107    13.3041135630
Ni      4.9088074938     4.2579363814    13.3054287544
Ni      6.1372745671     6.3857877107    13.3032783798
Ni      4.9086517115     0.0018312594    13.3024060945
Ni      6.1374036838     2.1309748468    13.3056096270
Ni      7.3661495135     4.2582451239    13.3069522585
Ni      8.5943413203     6.3854189562    13.3048451696
Ni      7.3652044956     0.0023769003    13.3020219334
Ni      8.5942385662     2.1304695544    13.3043868044
Ni      9.8231946918     4.2572739512    13.3057506922
Ni     11.0517679695     6.3857120360    13.3033344194
Ni      2.4490339821     1.4222228929    15.3362210124
Ni      3.6772966574     3.5494520554    15.3385526461
Ni      4.9062018672     5.6779299780    15.3378106046
Ni      6.1346571942     7.8070606266    15.3335999053
Ni      4.9058225197     1.4219699914    15.3362206260
Ni      6.1346426084     3.5508505475    15.3401418518
Ni      7.3625330027     5.6784279498    15.3395242568
Ni      8.5915701206     7.8062468470    15.3354851546
Ni      7.3627071376     1.4224398724    15.3370388041
Ni      8.5913286772     3.5492677633    15.3408174188
Ni      9.8201850849     5.6778143804    15.3377746619
Ni     11.0486433115     7.8070023171    15.3347462049
Ni      9.8200953547     1.4222882677    15.3366654644
Ni     11.0486075444     3.5492992589    15.3407265960
Ni     12.2774144623     5.6772885732    15.3359640032
Ni     13.5061541972     7.8063455902    15.3319299253
Ni      1.2187910631     0.7145173608    17.3879334314
Ni      2.4472474227     2.8420654806    17.3934581627
Ni      3.6755426811     4.9714604374    17.3911199588
Ni      4.9045369929     7.0990999797    17.3858410289
Ni      3.6755273590     0.7130852450    17.3897672789
Ni      4.9037000473     2.8423806074    17.3934481142
Ni      6.1319553005     4.9726957480    17.3963328007
Ni      7.3614524743     7.0997441935    17.3897409983
Ni      6.1332850561     0.7119051795    17.3902534707
Ni      7.3623531846     2.8409773484    17.3961534740
Ni      8.5911690953     4.9716069348    17.3936888912
Ni      9.8197669951     7.1000577029    17.3889506467
Ni      8.5911411426     0.7131642395    17.3880087950
Ni      9.8198330590     2.8408219131    17.3957136598
Ni     11.0487030798     4.9704125685    17.3927698418
Ni     12.2763266601     7.0989938309    17.3852102935
O       8.1853233808     3.4574048182    21.7117206478
O       8.5869329741     5.0599815235    19.5762271001
O      10.2109211163     3.6451020548    23.8826602062
C       9.3606393600     4.2890487236    21.7367471584
C       9.7574736302     4.6321502783    20.3055951979
C      10.5272793641     3.6720453941    22.4918474794
H       9.0423459569     5.1976070563    22.2680419510
H      10.2036708160     3.7499198429    19.8025973096
H      10.4835571337     5.4542343167    20.2475656164
H      11.4351836342     4.2717022800    22.2942344717
H      10.7115000118     2.6514065461    22.0984614952
H       8.4384371395     2.5707271966    21.3925898339
H       7.8511829079     4.4818016084    19.8831003151
H      11.0040911060     3.3843978098    24.3788521822
O       2.4676593393     1.4045078651    18.8058894197
H       2.5804189712     1.3115658959    19.7657035449
80
Step 2 | NEB Image 2 | Cartesian Angstrom
Ni      1.2285311452     0.7093121504    11.2498147417
Ni      2.4571389677     2.8374301346    11.2496971135
Ni      3.6857772247     4.9655826744    11.2496180048
Ni      4.9144667851     7.0937341683    11.2496404482
Ni      3.6858354275     0.7092631580    11.2496549369
Ni      4.9144644251     2.8374004328    11.2494872581
Ni      6.1431356028     4.9655880508    11.2494248733
Ni      7.3718407635     7.0937553412    11.2495323367
Ni      6.1431987708     0.7092188895    11.2495554998
Ni      7.3718682437     2.8373722485    11.2493945874
Ni      8.6005590497     4.9655750247    11.2493971518
Ni      9.8292409190     7.0937367959    11.2495640765
Ni      8.6005844153     0.7092163617    11.2495859605
Ni      9.8292755314     2.8373748250    11.2495001918
Ni     11.0579506667     4.9655585446    11.2495550682
Ni     12.2865936348     7.0936962853    11.2497100139
Ni      9.8233517175     0.0021276495    13.3016879399
Ni     11.0520993212     2.1299573363    13.3038048482
Ni     12.2804072998     4.2570482198    13.3036088342
Ni     13.5095751405     6.3851648829    13.3027041612
Ni      2.4515189472     0.0019227753    13.3020921521
Ni      3.6799404343     2.1302053978    13.3030893164
Ni      4.9082928855     4.2580337107    13.3040402530
Ni      6.1369079323     6.3861848225    13.3020041443
Ni      4.9085114841     0.0014157679    13.3015226664
Ni      6.1371699723     2.1306339986    13.3040581249
Ni      7.3659631353     4.2582791050    13.3050382473
Ni      8.5943039690     6.3858126605    13.3033485167
Ni      7.3652165789     0.0018738397    13.3011124165
Ni      8.5943650732     2.1300611565    13.3029024853
Ni      9.8234337869     4.2572387986    13.3041545861
Ni     11.0520478607     6.3859808880    13.3022276694
Ni      2.4479124696     1.4220979638    15.3338727938
Ni      3.6755318026     3.5497207396    15.3356586592
Ni      4.9040260055     5.6792662605    15.3341151025
Ni      6.1337429979     7.8084131029    15.3316079932
Ni      4.9055422314     1.4210201005    15.3321582723
Ni      6.1326769679     3.5504696909    15.3331479154
Ni      7.3612259180     5.6801680893    15.3331115796
Ni      8.5911595940     7.8079759169    15.3323805827
Ni      7.3626382595     1.4198026752    15.3322723132
Ni      8.5918911600     3.5481808978    15.3335190526
Ni      9.8209243636     5.6790927661    15.3317572126
Ni     11.0493962503     7.8083173529    15.3322962874
Ni      9.8208181026     1.4207966048    15.3339226327
Ni     11.0498003127     3.5485554980    15.3368601864
Ni     12.2788433404     5.6779772647    15.3332167909
Ni     13.5067729839     7.8068416066    15.3310685133
Ni      1.2141652803     0.7129337824    17.3838614219
Ni      2.4436032413     2.8458455680    17.3883300861
Ni      3.6686757954     4.9739930922    17.3860378683
Ni      4.9010331391     7.1028904630    17.3826981515
Ni      3.6929944899     0.6984694977    17.3552781950
Ni      4.8903936479     2.8368396082    17.3732034457
Ni      6.1162444498     4.9888763687    17.3566016192
Ni      7.3563784431     7.1078859817    17.3793235273
Ni      6.1322596616     0.7046801053    17.3836709775
Ni      7.3684304013     2.8199866613    17.3397758843
Ni      8.5854377385     4.9725462526    17.3387168166
Ni      9.8212227354     7.1111910881    17.3695258700
Ni      8.5925853526     0.7066634042    17.3816752755
Ni      9.8218964637     2.8309671755    17.3770620969
Ni     11.0618103569     4.9768000550    17.3607935501
Ni     12.2798284779     7.1023535900    17.3807448265
O       8.0464760785     3.2461315653    21.2662699509
O       8.4574377386     5.2039355118    19.1824329132
O       9.6527481100     3.7101177516    23.6896796649
C       8.9222180663     4.3535127591    21.4584301967
C       9.4685635350     4.9528487450    20.1370550925
C      10.1085295820     4.0073110866    22.3574356085
H       8.2998730255     5.1071949083    21.9761965689
H      10.2321757718     4.2441092420    19.7324738919
H      10.0075453365     5.8906874134    20.3809923091
H      10.8281368615     4.8495991996    22.3717869641
H      10.6321784247     3.1273022602    21.9212252420
H       8.5580612346     2.5230339952    20.8322778866
H       6.2725111442     3.6340267209    18.3218257113
H      10.3943890050     3.4819186067    24.2237706312
O       2.5277676365     1.4430763714    18.7947151375
H       2.6716486415     1.4325209182    19.7476489564
80
Step 3 | NEB Image 3 | Cartesian Angstrom
Ni      1.2285088346     0.7093096408    11.2497868868
Ni      2.4571085437     2.8374337392    11.2496433681
Ni      3.6857486668     4.9655963583    11.2495468918
Ni      4.9144437771     7.0937553300    11.2495660078
Ni      3.6858046851     0.7092476721    11.2495662591
Ni      4.9144361485     2.8373977559    11.2493576036
Ni      6.1431145762     4.9656003793    11.2492785288
Ni      7.3718323959     7.0937866340    11.2493935125
Ni      6.1431879404     0.7091841775    11.2494090593
Ni      7.3718696290     2.8373523962    11.2492076075
Ni      8.6005754692     4.9655781444    11.2491974152
Ni      9.8292717116     7.0937697628    11.2494012919
Ni      8.6006055307     0.7091675986    11.2494258016
Ni      9.8293169537     2.8373427458    11.2493133085
Ni     11.0580073109     4.9655560896    11.2493771709
Ni     12.2866489853     7.0937217168    11.2495834209
Ni      9.8234502852     0.0019742871    13.3013755791
Ni     11.0522635958     2.1298374369    13.3034425938
Ni     12.2806059395     4.2569892386    13.3032533634
Ni     13.5097505359     6.3851957538    13.3024563722
Ni      2.4514385097     0.0018966812    13.3019727145
Ni      3.6798191963     2.1302027645    13.3028087919
Ni      4.9082118526     4.2580915455    13.3037178679
Ni      6.1368266623     6.3862531605    13.3016743502
Ni      4.9084671567     0.0013021847    13.3011890953
Ni      6.1371574395     2.1305852399    13.3035713557
Ni      7.3659530724     4.2582616620    13.3044715486
Ni      8.5943444334     6.3858981761    13.3027831890
Ni      7.3652496405     0.0017135809    13.3007300668
Ni      8.5944604076     2.1299331700    13.3023872180
Ni      9.8235977855     4.2571599532    13.3035645067
Ni     11.0522377971     6.3860412434    13.3017525262
Ni      2.4473818287     1.4222011603    15.3336585113
Ni      3.6747429307     3.5501092276    15.3345167391
Ni      4.9038844458     5.6794565351    15.3336686482
Ni      6.1334181895     7.8087147079    15.3308196160
Ni      4.9054332475     1.4206815621    15.3301959426
Ni      6.1328416496     3.5507898491    15.3315233393
Ni      7.3607501418     5.6803332629    15.3308826355
Ni      8.5912902713     7.8086231717    15.3308024239
Ni      7.3629462333     1.4194610449    15.3306629441
Ni      8.5924122470     3.5473734051    15.3310855053
Ni      9.8218890966     5.6792466342    15.3290468847
Ni     11.0500244239     7.8088329127    15.3310919540
Ni      9.8213236704     1.4203752683    15.3328455654
Ni     11.0504841091     3.5480081150    15.3357278592
Ni     12.2796677251     5.6779925476    15.3320617354
Ni     13.5071943133     7.8070442051    15.3306230380
Ni      1.2160804574     0.7140975081    17.3860269475
Ni      2.4430546237     2.8427952654    17.3906496615
Ni      3.6679330792     4.9756273809    17.3845300039
Ni      4.9005953434     7.1030357110    17.3821384112
Ni      3.6889008370     0.7000348062    17.3422504030
Ni      4.8825838900     2.8399342741    17.3488601422
Ni      6.1161627072     4.9851844892    17.3594846248
Ni      7.3539805487     7.1127648331    17.3696425334
Ni      6.1335742576     0.6988139213    17.3744012021
Ni      7.3744342467     2.8273397913    17.3347915300
Ni      8.5933356890     4.9617639756    17.3111166517
Ni      9.8251095976     7.1174373396    17.3590681063
Ni      8.5941394650     0.7031676178    17.3764451277
Ni      9.8257985856     2.8312751314    17.3751002692
Ni     11.0691218592     4.9693563715    17.3513192157
Ni     12.2829748720     7.1039684250    17.3780308626
O       8.5851140928     3.0589857119    20.5180331720
O       8.1587793550     5.4541995179    19.0539091037
O       9.2504401124     3.4249449156    23.3527340994
C       8.6908062356     4.3191664911    21.1846568282
C       9.0756946947     5.3728575562    20.1399489608
C       9.7398355106     4.2844205525    22.2943062517
H       7.7183484995     4.5910226964    21.6410171338
H      10.0893748350     5.1236581718    19.7726690071
H       9.1203057267     6.3589111824    20.6336243139
H       9.9314175039     5.2986713140    22.6723628957
H      10.6790114118     3.8730438190    21.8795778415
H       8.7548389954     2.3518165722    21.1817694155
H       6.1195441988     3.1366453388    18.3656361756
H       9.9249368259     3.3583070866    24.0219033897
O       2.5523102486     0.7674016340    18.9096849126
H       2.7100293001     1.5291465112    19.5074144880
80
Step 4 | NEB Image 4 | Cartesian Angstrom
Ni      1.2285591185     0.7093253611    11.2498567240
Ni      2.4571718186     2.8374388719    11.2497368585
Ni      3.6858205939     4.9655850098    11.2496629898
Ni      4.9145036002     7.0937186471    11.2496852850
Ni      3.6858500062     0.7092781653    11.2496892196
Ni      4.9144957926     2.8374120805    11.2495171908
Ni      6.1431729537     4.9655825445    11.2494609929
Ni      7.3718679044     7.0937379126    11.2495445537
Ni      6.1432118467     0.7092288345    11.2495543519
Ni      7.3718963975     2.8373743144    11.2493989684
Ni      8.6005908178     4.9655586778    11.2493886910
Ni      9.8292735403     7.0937249444    11.2495368386
Ni      8.6006019550     0.7092103860    11.2495510629
Ni      9.8293055143     2.8373614686    11.2494637686
Ni     11.0579901924     4.9655423169    11.2495134475
Ni     12.2866310190     7.0936916721    11.2496696779
Ni      9.8234175693     0.0020741325    13.3015564593
Ni     11.0522062863     2.1299124901    13.3036932185
Ni     12.2805246525     4.2569938211    13.3035363097
Ni     13.5096783058     6.3851372963    13.3026233539
Ni      2.4515494035     0.0019843773    13.3022229714
Ni      3.6799626649     2.1302264003    13.3031046676
Ni      4.9084542538     4.2580900440    13.3040998365
Ni      6.1370093543     6.3861202937    13.3020787452
Ni      4.9085094227     0.0014379906    13.3015030792
Ni      6.1372982539     2.1307005979    13.3040428721
Ni      7.3660982029     4.2582358301    13.3050942269
Ni      8.5944249375     6.3857335786    13.3032551528
Ni      7.3652693406     0.0018774826    13.3010070318
Ni      8.5944578465     2.1300646004    13.3028633010
Ni      9.8235754446     4.2571518465    13.3040899345
Ni     11.0522002135     6.3859170434    13.3021179842
Ni      2.4479205911     1.4220732538    15.3346065459
Ni      3.6751984958     3.5503289197    15.3346868283
Ni      4.9048568298     5.6791378350    15.3348210083
Ni      6.1338135715     7.8082490566    15.3313696258
Ni      4.9053243140     1.4207734416    15.3312829116
Ni      6.1342777696     3.5510905136    15.3335695217
Ni      7.3615414294     5.6794794000    15.3329264078
Ni      8.5916443348     7.8080303702    15.3315483481
Ni      7.3633503354     1.4206715748    15.3322801858
Ni      8.5922621077     3.5475535983    15.3337466255
Ni      9.8220651716     5.6785151910    15.3312077158
Ni     11.0500048725     7.8083038849    15.3317545158
Ni      9.8211285565     1.4207596434    15.3335877836
Ni     11.0502934866     3.5484014150    15.3371003436
Ni     12.2791259350     5.6775729713    15.3333461949
Ni     13.5070494634     7.8068215071    15.3308943625
Ni      1.2178876371     0.7142747560    17.3871996167
Ni      2.4433077437     2.8430727128    17.3886942288
Ni      3.6707288837     4.9761148282    17.3857390052
Ni      4.9021223702     7.1016334759    17.3830070951
Ni      3.6774018408     0.7081851479    17.3659457090
Ni      4.8904211197     2.8514738530    17.3403227392
Ni      6.1213907816     4.9764871521    17.3735538827
Ni      7.3567179095     7.1109910187    17.3697912627
Ni      6.1381240897     0.6984847252    17.3687355526
Ni      7.3710751731     2.8359590575    17.3640803497
Ni      8.6043693913     4.9560381629    17.3295228025
Ni      9.8275807812     7.1126149616    17.3618137670
Ni      8.5940360308     0.7059103603    17.3793345337
Ni      9.8257592786     2.8332603438    17.3773992073
Ni     11.0611106435     4.9677737150    17.3723659049
Ni     12.2820332302     7.1017603179    17.3797249590
O       9.1982700548     3.4157962177    20.1537245487
O       7.7700781837     5.6393651894    18.8956800421
O       8.9298020539     3.2851896781    22.9458559111
C       8.4542352595     4.3725423530    20.9163030944
C       8.4452295146     5.7067382938    20.1574459174
C       9.0928035750     4.5412158308    22.2960339832
H       7.4196598060     4.0289308024    21.0490858199
H       9.4838897790     6.0361624634    19.9971477933
H       7.9256748162     6.4544979013    20.7734610496
H       8.5914190038     5.3522733384    22.8528429613
H      10.1592922455     4.7961305533    22.1712306192
H       9.2623555207     2.5987754085    20.7088719061
H       6.0547253007     2.2029270006    18.3216439335
H       9.4742213345     3.3230399005    23.8340571661
O       2.6877363541     0.7023812029    18.9886442806
H       2.9496054521     1.5040733126    19.4869330550
80
Step 5 | NEB Image 5 | Cartesian Angstrom
Ni      1.2286497034     0.7093615225    11.2499999440
Ni      2.4572989609     2.8374461750    11.2499999440
Ni      3.6859482184     4.9655308275    11.2499999440
Ni      4.9145974759     7.0936154800    11.2499999440
Ni      3.6859497034     0.7093615225    11.2499999440
Ni      4.9145989609     2.8374461750    11.2499999440
Ni      6.1432482184     4.9655308275    11.2499999440
Ni      7.3718974759     7.0936154800    11.2499999440
Ni      6.1432497034     0.7093615225    11.2499999440
Ni      7.3718989609     2.8374461750    11.2499999440
Ni      8.6005482184     4.9655308275    11.2499999440
Ni      9.8291974759     7.0936154800    11.2499999440
Ni      8.6005497034     0.7093615225    11.2499999440
Ni      9.8291989609     2.8374461750    11.2499999440
Ni     11.0578482184     4.9655308275    11.2499999440
Ni     12.2864974759     7.0936154800    11.2499999440
Ni      9.8231926870     0.0024995631    13.3023446442
Ni     11.0518089676     2.1302240586    13.3047083557
Ni     12.2800508544     4.2570722939    13.3044621680
Ni     13.5092873083     6.3850384546    13.3032134512
Ni      2.4517696982     0.0021660497    13.3026623307
Ni      3.6803278881     2.1303359107    13.3041135630
Ni      4.9088074938     4.2579363814    13.3054287544
Ni      6.1372745671     6.3857877107    13.3032783798
Ni      4.9086517115     0.0018312594    13.3024060945
Ni      6.1374036838     2.1309748468    13.3056096270
Ni      7.3661495135     4.2582451239    13.3069522585
Ni      8.5943413203     6.3854189562    13.3048451696
Ni      7.3652044956     0.0023769003    13.3020219334
Ni      8.5942385662     2.1304695544    13.3043868044
Ni      9.8231946918     4.2572739512    13.3057506922
Ni     11.0517679695     6.3857120360    13.3033344194
Ni      2.4490339821     1.4222228929    15.3362210124
Ni      3.6772966574     3.5494520554    15.3385526461
Ni      4.9062018672     5.6779299780    15.3378106046
Ni      6.1346571942     7.8070606266    15.3335999053
Ni      4.9058225197     1.4219699914    15.3362206260
Ni      6.1346426084     3.5508505475    15.3401418518
Ni      7.3625330027     5.6784279498    15.3395242568
Ni      8.5915701206     7.8062468470    15.3354851546
Ni      7.3627071376     1.4224398724    15.3370388041
Ni      8.5913286772     3.5492677633    15.3408174188
Ni      9.8201850849     5.6778143804    15.3377746619
Ni     11.0486433115     7.8070023171    15.3347462049
Ni      9.8200953547     1.4222882677    15.3366654644
Ni     11.0486075444     3.5492992589    15.3407265960
Ni     12.2774144623     5.6772885732    15.3359640032
Ni     13.5061541972     7.8063455902    15.3319299253
Ni      1.2187910631     0.7145173608    17.3879334314
Ni      2.4472474227     2.8420654806    17.3934581627
Ni      3.6755426811     4.9714604374    17.3911199588
Ni      4.9045369929     7.0990999797    17.3858410289
Ni      3.6755273590     0.7130852450    17.3897672789
Ni      4.9037000473     2.8423806074    17.3934481142
Ni      6.1319553005     4.9726957480    17.3963328007
Ni      7.3614524743     7.0997441935    17.3897409983
Ni      6.1332850561     0.7119051795    17.3902534707
Ni      7.3623531846     2.8409773484    17.3961534740
Ni      8.5911690953     4.9716069348    17.3936888912
Ni      9.8197669951     7.1000577029    17.3889506467
Ni      8.5911411426     0.7131642395    17.3880087950
Ni      9.8198330590     2.8408219131    17.3957136598
Ni     11.0487030798     4.9704125685    17.3927698418
Ni     12.2763266601     7.0989938309    17.3852102935
O       9.3819344244     4.1358166692    20.0930362367
O       7.4403591999     5.7710500252    18.8010456662
O       8.6054614657     3.3490556865    22.7703843692
C       8.1664603160     4.5686069475    20.7700096311
C       7.7641571257     5.9228005922    20.1887078083
C       8.3912004598     4.6889035721    22.2787219386
H       7.3485584428     3.8274455412    20.5710354409
H       8.5939941550     6.6612606078    20.2727262356
H       6.8675792875     6.3118286823    20.7285291220
H       7.5127131407     5.1500412147    22.7730789076
H       9.2780443246     5.3384479547    22.4478370724
H       9.6348023466     3.2728259917    20.4951539629
H       4.4134518168     1.3599542848    19.7391102444
H       8.7500633813     3.3953291848    23.7317250903
O       3.5190441201     1.0401590876    20.0091886335
H       2.9303167551     1.7729858078    19.7218291788
