80
Step 1 | NEB Image 1 | Cartesian Angstrom
Ni      1.2286497034     0.7093615225    11.2499999440
Ni      2.4572989609     2.8374461750    11.2499999440
Ni      3.6859482184     4.9655308275    11.2499999440
Ni      4.9145974759     7.0936154800    11.2499999440
Ni      3.6859497034     0.7093615225    11.2499999440
Ni      4.9145989609     2.8374461750    11.2499999440
Ni      6.1432482184     4.9655308275    11.2499999440
Ni      7.3718974759     7.0936154800    11.2499999440
Ni      6.1432497034     0.7093615225    11.2499999440
Ni      7.3718989609     2.8374461750    11.2499999440
Ni      8.6005482184     4.9655308275    11.2499999440
Ni      9.8291974759     7.0936154800    11.2499999440
Ni      8.6005497034     0.7093615225    11.2499999440
Ni      9.8291989609     2.8374461750    11.2499999440
Ni     11.0578482184     4.9655308275    11.2499999440
Ni     12.2864974759     7.0936154800    11.2499999440
Ni      9.8231926870     0.0024995631    13.3023446442
Ni     11.0518089676     2.1302240586    13.3047083557
Ni     12.2800508544     4.2570722939    13.3044621680
Ni     13.5092873083     6.3850384546    13.3032134512
Ni      2.4517696982     0.0021660497    13.3026623307
Ni      3.6803278881     2.1303359107    13.3041135630
Ni      4.9088074938     4.2579363814    13.3054287544
Ni      6.1372745671     6.3857877107    13.3032783798
Ni      4.9086517115     0.0018312594    13.3024060945
Ni      6.1374036838     2.1309748468    13.3056096270
Ni      7.3661495135     4.2582451239    13.3069522585
Ni      8.5943413203     6.3854189562    13.3048451696
Ni      7.3652044956     0.0023769003    13.3020219334
Ni      8.5942385662     2.1304695544    13.3043868044
Ni      9.8231946918     4.2572739512    13.3057506922
Ni     11.0517679695     6.3857120360    13.3033344194
Ni      2.4490339821     1.4222228929    15.3362210124
Ni      3.6772966574     3.5494520554    15.3385526461
Ni      4.9062018672     5.6779299780    15.3378106046
Ni      6.1346571942     7.8070606266    15.3335999053
Ni      4.9058225197     1.4219699914    15.3362206260
Ni      6.1346426084     3.5508505475    15.3401418518
Ni      7.3625330027     5.6784279498    15.3395242568
Ni      8.5915701206     7.8062468470    15.3354851546
Ni      7.3627071376     1.4224398724    15.3370388041
Ni      8.5913286772     3.5492677633    15.3408174188
Ni      9.8201850849     5.6778143804    15.3377746619
Ni     11.0486433115     7.8070023171    15.3347462049
Ni      9.8200953547     1.4222882677    15.3366654644
Ni     11.0486075444     3.5492992589    15.3407265960
Ni     12.2774144623     5.6772885732    15.3359640033
Ni     13.5061541972     7.8063455902    15.3319299253
Ni      1.2187910631     0.7145173608    17.3879334314
Ni      2.4472474227     2.8420654806    17.3934581627
Ni      3.6755426811     4.9714604374    17.3911199588
Ni      4.9045369929     7.0990999797    17.3858410289
Ni      3.6755273590     0.7130852450    17.3897672789
Ni      4.9037000473     2.8423806074    17.3934481142
Ni      6.1319553005     4.9726957480    17.3963328007
Ni      7.3614524743     7.0997441935    17.3897409983
Ni      6.1332850561     0.7119051795    17.3902534707
Ni      7.3623531846     2.8409773484    17.3961534740
Ni      8.5911690953     4.9716069348    17.3936888912
Ni      9.8197669951     7.1000577029    17.3889506467
Ni      8.5911411426     0.7131642395    17.3880087950
Ni      9.8198330590     2.8408219131    17.3957136598
Ni     11.0487030798     4.9704125685    17.3927698418
Ni     12.2763266601     7.0989938309    17.3852102935
O       8.1853233808     3.4574048182    21.7117206478
O       8.5869329741     5.0599815235    19.5762271001
O      10.2109211163     3.6451020548    23.8826602062
C       9.3606393600     4.2890487236    21.7367471584
C       9.7574736302     4.6321502783    20.3055951979
C      10.5272793641     3.6720453941    22.4918474794
H       9.0423459569     5.1976070563    22.2680419510
H      10.2036708160     3.7499198429    19.8025973096
H      10.4835571337     5.4542343167    20.2475656164
H      11.4351836342     4.2717022800    22.2942344717
H      10.7115000118     2.6514065461    22.0984614952
H       8.4384371395     2.5707271966    21.3925898339
H       7.8511829079     4.4818016084    19.8831003151
H      11.0040911060     3.3843978098    24.3788521822
O       2.4676593393     1.4045078651    18.8058894197
H       2.5804189712     1.3115658959    19.7657035449
80
Step 2 | NEB Image 2 | Cartesian Angstrom
Ni      1.2287666735     0.7094075322    11.2501799468
Ni      2.4574570357     2.8374592923    11.2502980919
Ni      3.6861154349     4.9654778308    11.2503773924
Ni      4.9147256694     7.0934985874    11.2503581160
Ni      3.6860663380     0.7094575470    11.2503506442
Ni      4.9147328670     2.8374889526    11.2505206853
Ni      6.1433590393     4.9654735928    11.2505843577
Ni      7.3719522395     7.0934752156    11.2504833033
Ni      6.1433004223     0.7095058285    11.2504653255
Ni      7.3719260179     2.8375217644    11.2506287848
Ni      8.6005311686     4.9654893891    11.2506317161
Ni      9.8291448344     7.0934914555    11.2504644248
Ni      8.6005091895     0.7095140040    11.2504434724
Ni      9.8291117996     2.8375245291    11.2505327040
Ni     11.0577311309     4.9655066992    11.2504789315
Ni     12.2863867112     7.0935314364    11.2503165695
Ni      9.8230066527     0.0029022043    13.3030727213
Ni     11.0514757576     2.1305168518    13.3056820744
Ni     12.2796432750     4.2571187073    13.3053863872
Ni     13.5089521123     6.3849108876    13.3037798415
Ni      2.4520307653     0.0023982315    13.3032297261
Ni      3.6807305899     2.1304562461    13.3051632758
Ni      4.9093081689     4.2578231769    13.3068281947
Ni      6.1376408167     6.3853978359    13.3045756036
Ni      4.9087978413     0.0022566697    13.3033482175
Ni      6.1376203890     2.1313053584    13.3072248316
Ni      7.3663216851     4.2582217024    13.3089300188
Ni      8.5943571808     6.3850257448    13.3064425763
Ni      7.3651793171     0.0029013956    13.3030089461
Ni      8.5940830893     2.1308945108    13.3059520834
Ni      9.8229079028     4.2573390129    13.3074484882
Ni     11.0514333274     6.3854429514    13.3045389784
Ni      2.4502715122     1.4222973906    15.3384445125
Ni      3.6792330049     3.5490402081    15.3416768688
Ni      4.9082366398     5.6766318483    15.3413620184
Ni      6.1356222467     7.8057045542    15.3357424093
Ni      4.9061270087     1.4229796940    15.3407375974
Ni      6.1363482211     3.5510612075    15.3471886776
Ni      7.3639128798     5.6767806917    15.3462881486
Ni      8.5918853628     7.8044047794    15.3389713955
Ni      7.3626345213     1.4249758262    15.3420447177
Ni      8.5905999796     3.5505954927    15.3484658894
Ni      9.8191038141     5.6765928968    15.3443729083
Ni     11.0476928770     7.8055932984    15.3374788002
Ni      9.8192269814     1.4238232692    15.3396124431
Ni     11.0472340946     3.5502001621    15.3447142839
Ni     12.2757733941     5.6766590541    15.3389361813
Ni     13.5054150460     7.8058112304    15.3328990615
Ni      1.2222045974     0.7154846032    17.3907482885
Ni      2.4508124864     2.8398550681    17.3972421457
Ni      3.6820924414     4.9684503432    17.3963817320
Ni      4.9079013300     7.0955912731    17.3889381993
Ni      3.6614341254     0.7256782178    17.4263155716
Ni      4.9189801948     2.8459459093    17.4222748468
Ni      6.1462947722     4.9595589536    17.4312991648
Ni      7.3670440679     7.0902912803    17.4033032882
Ni      6.1335881582     0.7209690406    17.4002465214
Ni      7.3543609210     2.8570123733    17.4493365993
Ni      8.5929305029     4.9753271677    17.4551701452
Ni      9.8167714645     7.0873566446    17.4110444433
Ni      8.5891748689     0.7205192418    17.3959254453
Ni      9.8163251991     2.8496942180    17.4135893805
Ni     11.0338154799     4.9676674703    17.4255958593
Ni     12.2718306487     7.0952882645    17.3903958584
O       8.4834885094     3.5407829054    22.6613354826
O       8.4670147419     4.4402962216    19.9558314558
O      11.3320688178     3.9529544121    23.7606934187
C       9.6887924922     3.8936622516    21.9661337918
C       9.5433372090     3.6048919402    20.4359254519
C      10.8947614363     3.1693862065    22.6332864739
H       9.8607152577     4.9691118011    22.1546153468
H       9.4739172517     2.4905536391    20.3323346802
H      10.4804280910     3.9101222961    19.9430330966
H      11.7305535949     3.0455919630    21.9161076518
H      10.5658145272     2.1696455299    22.9748159114
H       7.9955132728     2.9456112485    22.0597983196
H       8.0113434690     4.2553467565    19.0942850631
H      12.1336048515     3.5533058709    24.1461185911
O       2.5286101855     1.5950808669    18.8805244145
H       2.6648832705     1.7831062304    19.8312635298
80
Step 3 | NEB Image 3 | Cartesian Angstrom
Ni      1.2286532159     0.7093596561    11.2500020317
Ni      2.4573039079     2.8374433620    11.2500076723
Ni      3.6859514837     4.9655272169    11.2500113718
Ni      4.9146005093     7.0936124028    11.2500143400
Ni      3.6859577340     0.7093630473    11.2500222734
Ni      4.9146043964     2.8374446240    11.2500323146
Ni      6.1432513584     4.9655282843    11.2500366724
Ni      7.3718978828     7.0936087400    11.2500396775
Ni      6.1432518095     0.7093698471    11.2500449254
Ni      7.3718961466     2.8374514318    11.2500550514
Ni      8.6005405049     4.9655321202    11.2500615735
Ni      9.8291846814     7.0936067542    11.2500537011
Ni      8.6005412758     0.7093767301    11.2500538085
Ni      9.8291829823     2.8374577235    11.2500617529
Ni     11.0578262488     4.9655338571    11.2500606989
Ni     12.2864757853     7.0936079363    11.2500448850
Ni      9.8231533387     0.0025528217    13.3024593831
Ni     11.0517449316     2.1302671654    13.3048325032
Ni     12.2799738709     4.2571002483    13.3045855812
Ni     13.5092177303     6.3850312269    13.3033049159
Ni      2.4517936766     0.0021635964    13.3026851933
Ni      3.6803637144     2.1303291720    13.3041892117
Ni      4.9088145906     4.2579133441    13.3055026072
Ni      6.1372912658     6.3857787546    13.3033625194
Ni      4.9086650054     0.0018616711    13.3025164445
Ni      6.1373944630     2.1309775794    13.3057548358
Ni      7.3661418423     4.2582561388    13.3071140813
Ni      8.5943180260     6.3854015619    13.3050328664
Ni      7.3651885028     0.0024250770    13.3021554705
Ni      8.5941985650     2.1305076268    13.3045502049
Ni      9.8231273554     4.2573112954    13.3059442278
Ni     11.0516902869     6.3856993066    13.3035015413
Ni      2.4492260671     1.4221652844    15.3361774784
Ni      3.6775800905     3.5492718316    15.3389478947
Ni      4.9061320708     5.6779182732    15.3378002583
Ni      6.1347604586     7.8069958911    15.3338685093
Ni      4.9058613395     1.4220812302    15.3369457526
Ni      6.1344275339     3.5506647462    15.3405128953
Ni      7.3626839028     5.6784586480    15.3402317526
Ni      8.5914765589     7.8060334392    15.3360794064
Ni      7.3625449543     1.4224398236    15.3375399733
Ni      8.5911037857     3.5496039622    15.3415674989
Ni      9.8197458023     5.6778218140    15.3387448202
Ni     11.0483749466     7.8068292214    15.3351938679
Ni      9.8198882701     1.4224053241    15.3370312394
Ni     11.0483395331     3.5495238362    15.3410460504
Ni     12.2770941475     5.6773266006    15.3363626332
Ni     13.5059824110     7.8062764877    15.3320979089
Ni      1.2175392195     0.7138399121    17.3865965163
Ni      2.4473007823     2.8438110667    17.3920147718
Ni      3.6754730734     4.9707907643    17.3915559746
Ni      4.9045297611     7.0992690376    17.3859233005
Ni      3.6787379954     0.7113430168    17.3939553039
Ni      4.9067192788     2.8403809487    17.4044814765
Ni      6.1310011318     4.9755989049    17.3923683806
Ni      7.3623168720     7.0978143570    17.3939493935
Ni      6.1325187759     0.7144052051    17.3945481181
Ni      7.3597553840     2.8359599401    17.3949582854
Ni      8.5867657767     4.9771067627    17.4039837506
Ni      9.8178872537     7.0976567562    17.3929806479
Ni      8.5904527784     0.7144913564    17.3902100987
Ni      9.8180089309     2.8400579583    17.3955536518
Ni     11.0459225331     4.9745270132    17.3953626162
Ni     12.2749754141     7.0984121977    17.3862800213
O       8.3322612289     3.4633118219    21.0645887367
O       9.1008805176     5.3834772085    19.1675811552
O      10.1600174059     3.7687061014    23.5787767624
C       9.4690148339     4.2914845213    21.3334951568
C      10.0166047058     4.6364151112    19.9522556835
C      10.5496408683     3.6357216922    22.1996806564
H       9.1699743424     5.2262501701    21.8456825635
H      10.2533625427     3.6440007324    19.4789797130
H      10.9659929158     5.1962340796    20.0520193035
H      11.5208778524     4.1370161832    22.0224012897
H      10.6566504298     2.5699424163    21.9226691483
H       8.0202028779     3.0171945213    21.8664805970
H       6.3552422236     3.6842613420    18.4050265657
H      10.8772316916     3.4213488873    24.1352275879
O       2.4890073650     0.7354644990    18.9346238412
H       2.5730866467     1.4550585441    19.5917256654
80
Step 4 | NEB Image 4 | Cartesian Angstrom
Ni      1.2285497489     0.7093212814    11.2498436369
Ni      2.4571616966     2.8374356451    11.2497297459
Ni      3.6858058444     4.9655818865    11.2496563861
Ni      4.9144903058     7.0937214147    11.2496770661
Ni      3.6858465602     0.7092749472    11.2496842726
Ni      4.9144850786     2.8374085760    11.2495209837
Ni      6.1431584541     4.9655830482    11.2494638362
Ni      7.3718564709     7.0937413209    11.2495539424
Ni      6.1432071534     0.7092291745    11.2495685637
Ni      7.3718837514     2.8373759251    11.2494163988
Ni      8.6005751423     4.9655647667    11.2494114574
Ni      9.8292567615     7.0937267452    11.2495625813
Ni      8.6005926623     0.7092178577    11.2495796956
Ni      9.8292890684     2.8373698083    11.2494959671
Ni     11.0579686105     4.9655488349    11.2495458200
Ni     12.2866108182     7.0936914881    11.2496966585
Ni      9.8233827228     0.0021105132    13.3016360676
Ni     11.0521481040     2.1299410199    13.3037729917
Ni     12.2804602147     4.2570181103    13.3035932622
Ni     13.5096233003     6.3851467827    13.3026735503
Ni      2.4515414241     0.0019648075    13.3021787061
Ni      3.6799635552     2.1302232415    13.3031333834
Ni      4.9083942566     4.2580601334    13.3041239946
Ni      6.1369714589     6.3861358844    13.3020873573
Ni      4.9085149677     0.0014413272    13.3015363603
Ni      6.1372446332     2.1306823028    13.3041006322
Ni      7.3660383671     4.2582546470    13.3051296894
Ni      8.5943680146     6.3857585697    13.3033428642
Ni      7.3652442122     0.0018915094    13.3010820381
Ni      8.5944106740     2.1300759327    13.3029267233
Ni      9.8235023180     4.2571919126    13.3041664873
Ni     11.0521214373     6.3859394193    13.3021986658
Ni      2.4479356129     1.4221034828    15.3343486943
Ni      3.6754067404     3.5500320000    15.3352640504
Ni      4.9045446266     5.6791403666    15.3346387776
Ni      6.1338026013     7.8082795821    15.3315424295
Ni      4.9054448551     1.4209286284    15.3318048567
Ni      6.1335802529     3.5508205597    15.3336278602
Ni      7.3614128878     5.6797465807    15.3332084180
Ni      8.5914293320     7.8079563096    15.3320249194
Ni      7.3630125140     1.4203491641    15.3324184466
Ni      8.5920831193     3.5478715342    15.3338489398
Ni      9.8215158656     5.6787518364    15.3316100733
Ni     11.0497003995     7.8082783302    15.3320745511
Ni      9.8209697665     1.4208311636    15.3338299787
Ni     11.0500273091     3.5484761238    15.3371069510
Ni     12.2789681025     5.6777426383    15.3333395177
Ni     13.5069068703     7.8068204544    15.3309963137
Ni      1.2164126986     0.7137827224    17.3859141905
Ni      2.4436344171     2.8439986786    17.3890374050
Ni      3.6700122144     4.9750069902    17.3860659741
Ni      4.9017294857     7.1020686935    17.3829870319
Ni      3.6840659720     0.7041699994    17.3612894229
Ni      4.8904933397     2.8444817013    17.3564141444
Ni      6.1196688048     4.9815993934    17.3674376001
Ni      7.3566284516     7.1093300426    17.3744901047
Ni      6.1352555678     0.7016065461    17.3760515694
Ni      7.3698863964     2.8296193695    17.3544208523
Ni      8.5956006120     4.9635689273    17.3351066372
Ni      9.8245436023     7.1117738527    17.3660457467
Ni      8.5933371904     0.7063748615    17.3804532235
Ni      9.8239859299     2.8327008887    17.3781870579
Ni     11.0613541458     4.9713849777    17.3674167719
Ni     12.2809642595     7.1020140411    17.3802765257
O       8.9024843627     3.2774551488    20.0910260638
O       8.2567544153     5.8264933203    18.9428478895
O       9.2033048305     3.2803926824    22.9404758121
C       8.7808595464     4.4484107013    20.8960134432
C       9.1428413270     5.6415020424    20.0377685901
C       9.6823082104     4.3452280200    22.1125053992
H       7.7415407220     4.5659385480    21.2322803315
H      10.1705281285     5.4907928740    19.6654130892
H       9.1215580184     6.5458337198    20.6517937834
H       9.6723120487     5.2924266460    22.6611585609
H      10.7056434398     4.1325234699    21.7845140083
H       8.6434733304     2.5253406620    20.6494082933
H       6.1373016729     2.2853459044    18.3157786354
H       9.8589815956     3.1302366659    23.6408888686
O       2.4775126719     0.5243221392    18.9005768397
H       2.4855433789     1.2784211617    19.5218034243
80
Step 5 | NEB Image 5 | Cartesian Angstrom
Ni      1.2286497034     0.7093615225    11.2499999440
Ni      2.4572989609     2.8374461750    11.2499999440
Ni      3.6859482184     4.9655308275    11.2499999440
Ni      4.9145974759     7.0936154800    11.2499999440
Ni      3.6859497034     0.7093615225    11.2499999440
Ni      4.9145989609     2.8374461750    11.2499999440
Ni      6.1432482184     4.9655308275    11.2499999440
Ni      7.3718974759     7.0936154800    11.2499999440
Ni      6.1432497034     0.7093615225    11.2499999440
Ni      7.3718989609     2.8374461750    11.2499999440
Ni      8.6005482184     4.9655308275    11.2499999440
Ni      9.8291974759     7.0936154800    11.2499999440
Ni      8.6005497034     0.7093615225    11.2499999440
Ni      9.8291989609     2.8374461750    11.2499999440
Ni     11.0578482184     4.9655308275    11.2499999440
Ni     12.2864974759     7.0936154800    11.2499999440
Ni      9.8231926870     0.0024995631    13.3023446442
Ni     11.0518089676     2.1302240586    13.3047083557
Ni     12.2800508544     4.2570722939    13.3044621680
Ni     13.5092873083     6.3850384546    13.3032134512
Ni      2.4517696982     0.0021660497    13.3026623307
Ni      3.6803278881     2.1303359107    13.3041135630
Ni      4.9088074938     4.2579363814    13.3054287544
Ni      6.1372745671     6.3857877107    13.3032783798
Ni      4.9086517115     0.0018312594    13.3024060945
Ni      6.1374036838     2.1309748468    13.3056096270
Ni      7.3661495135     4.2582451239    13.3069522585
Ni      8.5943413203     6.3854189562    13.3048451696
Ni      7.3652044956     0.0023769003    13.3020219334
Ni      8.5942385662     2.1304695544    13.3043868044
Ni      9.8231946918     4.2572739512    13.3057506922
Ni     11.0517679695     6.3857120360    13.3033344194
Ni      2.4490339821     1.4222228929    15.3362210124
Ni      3.6772966574     3.5494520554    15.3385526461
Ni      4.9062018672     5.6779299780    15.3378106046
Ni      6.1346571942     7.8070606266    15.3335999053
Ni      4.9058225197     1.4219699914    15.3362206260
Ni      6.1346426084     3.5508505475    15.3401418518
Ni      7.3625330027     5.6784279498    15.3395242568
Ni      8.5915701206     7.8062468470    15.3354851546
Ni      7.3627071376     1.4224398724    15.3370388041
Ni      8.5913286772     3.5492677633    15.3408174188
Ni      9.8201850849     5.6778143804    15.3377746619
Ni     11.0486433115     7.8070023171    15.3347462049
Ni      9.8200953547     1.4222882677    15.3366654644
Ni     11.0486075444     3.5492992589    15.3407265960
Ni     12.2774144623     5.6772885732    15.3359640033
Ni     13.5061541972     7.8063455902    15.3319299253
Ni      1.2187910631     0.7145173608    17.3879334314
Ni      2.4472474227     2.8420654806    17.3934581627
Ni      3.6755426811     4.9714604374    17.3911199588
Ni      4.9045369929     7.0990999797    17.3858410289
Ni      3.6755273590     0.7130852450    17.3897672789
Ni      4.9037000473     2.8423806074    17.3934481142
Ni      6.1319553005     4.9726957480    17.3963328007
Ni      7.3614524743     7.0997441935    17.3897409983
Ni      6.1332850561     0.7119051795    17.3902534707
Ni      7.3623531846     2.8409773484    17.3961534740
Ni      8.5911690953     4.9716069348    17.3936888912
Ni      9.8197669951     7.1000577029    17.3889506467
Ni      8.5911411426     0.7131642395    17.3880087950
Ni      9.8198330590     2.8408219131    17.3957136598
Ni     11.0487030798     4.9704125685    17.3927698418
Ni     12.2763266601     7.0989938309    17.3852102935
O       9.3819344244     4.1358166692    20.0930362367
O       7.4403591999     5.7710500252    18.8010456662
O       8.6054614657     3.3490556865    22.7703843692
C       8.1664603160     4.5686069475    20.7700096311
C       7.7641571257     5.9228005922    20.1887078083
C       8.3912004598     4.6889035721    22.2787219386
H       7.3485584428     3.8274455412    20.5710354409
H       8.5939941550     6.6612606078    20.2727262356
H       6.8675792875     6.3118286823    20.7285291220
H       7.5127131407     5.1500412147    22.7730789076
H       9.2780443246     5.3384479547    22.4478370724
H       9.6348023466     3.2728259917    20.4951539629
H       4.4134518168     1.3599542848    19.7391102444
H       8.7500633813     3.3953291848    23.7317250903
O       3.5190441201     1.0401590876    20.0091886335
H       2.9303167551     1.7729858078    19.7218291788
