80
Step 1 | NEB Image 1 | Cartesian Angstrom
Ni      1.2286497034     0.7093615225    11.2499999440
Ni      2.4572989609     2.8374461750    11.2499999440
Ni      3.6859482184     4.9655308275    11.2499999440
Ni      4.9145974759     7.0936154800    11.2499999440
Ni      3.6859497034     0.7093615225    11.2499999440
Ni      4.9145989609     2.8374461750    11.2499999440
Ni      6.1432482184     4.9655308275    11.2499999440
Ni      7.3718974759     7.0936154800    11.2499999440
Ni      6.1432497034     0.7093615225    11.2499999440
Ni      7.3718989609     2.8374461750    11.2499999440
Ni      8.6005482184     4.9655308275    11.2499999440
Ni      9.8291974759     7.0936154800    11.2499999440
Ni      8.6005497034     0.7093615225    11.2499999440
Ni      9.8291989609     2.8374461750    11.2499999440
Ni     11.0578482184     4.9655308275    11.2499999440
Ni     12.2864974759     7.0936154800    11.2499999440
Ni      9.8231926870     0.0024995631    13.3023446442
Ni     11.0518089676     2.1302240586    13.3047083557
Ni     12.2800508544     4.2570722939    13.3044621680
Ni     13.5092873083     6.3850384546    13.3032134512
Ni      2.4517696982     0.0021660497    13.3026623307
Ni      3.6803278881     2.1303359107    13.3041135630
Ni      4.9088074938     4.2579363814    13.3054287544
Ni      6.1372745671     6.3857877107    13.3032783798
Ni      4.9086517115     0.0018312594    13.3024060945
Ni      6.1374036838     2.1309748468    13.3056096270
Ni      7.3661495135     4.2582451239    13.3069522585
Ni      8.5943413203     6.3854189562    13.3048451696
Ni      7.3652044956     0.0023769003    13.3020219334
Ni      8.5942385662     2.1304695544    13.3043868044
Ni      9.8231946918     4.2572739512    13.3057506922
Ni     11.0517679695     6.3857120360    13.3033344194
Ni      2.4490339821     1.4222228929    15.3362210124
Ni      3.6772966574     3.5494520554    15.3385526461
Ni      4.9062018672     5.6779299780    15.3378106046
Ni      6.1346571942     7.8070606266    15.3335999053
Ni      4.9058225197     1.4219699914    15.3362206260
Ni      6.1346426084     3.5508505475    15.3401418518
Ni      7.3625330027     5.6784279498    15.3395242568
Ni      8.5915701206     7.8062468470    15.3354851546
Ni      7.3627071376     1.4224398724    15.3370388041
Ni      8.5913286772     3.5492677633    15.3408174188
Ni      9.8201850849     5.6778143804    15.3377746619
Ni     11.0486433115     7.8070023171    15.3347462049
Ni      9.8200953547     1.4222882677    15.3366654644
Ni     11.0486075444     3.5492992589    15.3407265960
Ni     12.2774144623     5.6772885732    15.3359640033
Ni     13.5061541972     7.8063455902    15.3319299253
Ni      1.2187910631     0.7145173608    17.3879334314
Ni      2.4472474227     2.8420654806    17.3934581627
Ni      3.6755426811     4.9714604374    17.3911199588
Ni      4.9045369929     7.0990999797    17.3858410289
Ni      3.6755273590     0.7130852450    17.3897672789
Ni      4.9037000473     2.8423806074    17.3934481142
Ni      6.1319553005     4.9726957480    17.3963328007
Ni      7.3614524743     7.0997441935    17.3897409983
Ni      6.1332850561     0.7119051795    17.3902534707
Ni      7.3623531846     2.8409773484    17.3961534740
Ni      8.5911690953     4.9716069348    17.3936888912
Ni      9.8197669951     7.1000577029    17.3889506467
Ni      8.5911411426     0.7131642395    17.3880087950
Ni      9.8198330590     2.8408219131    17.3957136598
Ni     11.0487030798     4.9704125685    17.3927698418
Ni     12.2763266601     7.0989938309    17.3852102935
O       8.1853233808     3.4574048182    21.7117206478
O       8.5869329741     5.0599815235    19.5762271001
O      10.2109211163     3.6451020548    23.8826602062
C       9.3606393600     4.2890487236    21.7367471584
C       9.7574736302     4.6321502783    20.3055951979
C      10.5272793641     3.6720453941    22.4918474794
H       9.0423459569     5.1976070563    22.2680419510
H      10.2036708160     3.7499198429    19.8025973096
H      10.4835571337     5.4542343167    20.2475656164
H      11.4351836342     4.2717022800    22.2942344717
H      10.7115000118     2.6514065461    22.0984614952
H       8.4384371395     2.5707271966    21.3925898339
H       7.8511829079     4.4818016084    19.8831003151
H      11.0040911060     3.3843978098    24.3788521822
O       2.4676593393     1.4045078651    18.8058894197
H       2.5804189712     1.3115658959    19.7657035449
80
Step 2 | NEB Image 2 | Cartesian Angstrom
Ni      1.2285699494     0.7093259219    11.2498728961
Ni      2.4571914471     2.8374330506    11.2497951038
Ni      3.6858319151     4.9655643154    11.2497427672
Ni      4.9145089992     7.0936957287    11.2497605206
Ni      3.6858760879     0.7092942919    11.2497762425
Ni      4.9145095008     2.8374133159    11.2496667830
Ni      6.1431723985     4.9655687685    11.2496265636
Ni      7.3718585076     7.0937078063    11.2497033251
Ni      6.1432158792     0.7092683556    11.2497231266
Ni      7.3718757649     2.8373985433    11.2496185077
Ni      8.6005504255     4.9655623914    11.2496248993
Ni      9.8292187174     7.0936935125    11.2497352294
Ni      8.6005679080     0.7092714420    11.2497504774
Ni      9.8292409373     2.8374047586    11.2496965173
Ni     11.0579039510     4.9655521778    11.2497339009
Ni     12.2865490181     7.0936662310    11.2498303185
Ni      9.8232754531     0.0022787955    13.3019694741
Ni     11.0519656089     2.1300692256    13.3041683939
Ni     12.2802442238     4.2570752967    13.3039568695
Ni     13.5094381735     6.3851210096    13.3029244399
Ni      2.4516127373     0.0019954669    13.3022830473
Ni      3.6800842937     2.1302404002    13.3034555623
Ni      4.9084557331     4.2579879047    13.3045163451
Ni      6.1370322465     6.3860570838    13.3024529952
Ni      4.9085637126     0.0015642550    13.3018708266
Ni      6.1372353606     2.1307401495    13.3046346924
Ni      7.3660152890     4.2582763915    13.3057375940
Ni      8.5942994212     6.3856797714    13.3039384524
Ni      7.3652017590     0.0020616373    13.3014846030
Ni      8.5942984283     2.1302128705    13.3034715508
Ni      9.8233135422     4.2572757773    13.3047791954
Ni     11.0519078252     6.3858894561    13.3026840353
Ni      2.4483921722     1.4220942735    15.3345611532
Ni      3.6762705939     3.5495135159    15.3368169316
Ni      4.9046437038     5.6788503470    15.3352370723
Ni      6.1340960659     7.8079537845    15.3324058646
Ni      4.9056539033     1.4213874753    15.3339104518
Ni      6.1331315880     3.5504561534    15.3355462021
Ni      7.3617346247     5.6796558058    15.3355711118
Ni      8.5912205749     7.8072964589    15.3337473591
Ni      7.3625474900     1.4206112728    15.3340837122
Ni      8.5915606393     3.5487493171    15.3362817278
Ni      9.8203911225     5.6787050038    15.3342831646
Ni     11.0489781772     7.8077924204    15.3333603513
Ni      9.8204512184     1.4213345199    15.3350182944
Ni     11.0492478451     3.5489425162    15.3382684673
Ni     12.2781798168     5.6777922148    15.3343408305
Ni     13.5064629222     7.8066407513    15.3314503919
Ni      1.2146973836     0.7129370422    17.3841609493
Ni      2.4447482505     2.8459334875    17.3888526065
Ni      3.6707296746     4.9727553065    17.3878961034
Ni      4.9021018264     7.1018499863    17.3837158652
Ni      3.6898812357     0.7017309452    17.3688667573
Ni      4.8966181447     2.8371903104    17.3870761079
Ni      6.1203739031     4.9859561405    17.3659550170
Ni      7.3585475948     7.1040406037    17.3854568383
Ni      6.1320618763     0.7086351212    17.3886605341
Ni      7.3647283949     2.8228725012    17.3562428625
Ni      8.5841451642     4.9761045826    17.3627943307
Ni      9.8194711904     7.1060838313    17.3782841626
Ni      8.5916603756     0.7095922089    17.3851717027
Ni      9.8199820344     2.8334313856    17.3826237164
Ni     11.0558135896     4.9777566334    17.3724744710
Ni     12.2778052206     7.1009079350    17.3828669587
O       8.0918878005     3.3816704201    21.2649588873
O       8.6994461021     5.3278682950    19.1776046124
O       9.8509833248     3.8684833108    23.6283778364
C       9.1456460944     4.3282907577    21.3745345093
C       9.6942331248     4.7700924717    20.0134939705
C      10.2876808154     3.8553378335    22.2721273227
H       8.6822941166     5.2165693499    21.8784312860
H      10.1512849028     3.8563159713    19.5392180898
H      10.5226576345     5.4895650362    20.1560220004
H      11.1727450163     4.4923322873    22.1299810541
H      10.5627980591     2.8134569609    21.9532597693
H       8.3438320214     2.7335647065    20.5704149849
H       6.1725050794     3.5632130287    18.3335035743
H      10.5871864104     3.5963792539    24.2005178126
O       2.5135244698     1.4543991337    18.7878151073
H       2.6451219603     1.4818831974    19.7738352993
80
Step 3 | NEB Image 3 | Cartesian Angstrom
Ni      1.2285279246     0.7093137497    11.2498126905
Ni      2.4571344059     2.8374326264    11.2496897650
Ni      3.6857741850     4.9655860079    11.2496072226
Ni      4.9144640138     7.0937370911    11.2496271136
Ni      3.6858281508     0.7092616527    11.2496345877
Ni      4.9144594922     2.8374017536    11.2494575894
Ni      6.1431327901     4.9655904059    11.2493912432
Ni      7.3718404374     7.0937615317    11.2494961891
Ni      6.1431968689     0.7092112459    11.2495147053
Ni      7.3718708295     2.8373674365    11.2493444844
Ni      8.6005660841     4.9655738949    11.2493412285
Ni      9.8292525187     7.0937447219    11.2495154041
Ni      8.6005920455     0.7092025452    11.2495372005
Ni      9.8292900048     2.8373643778    11.2494441981
Ni     11.0579705476     4.9655558426    11.2495001150
Ni     12.2866132385     7.0937031109    11.2496694051
Ni      9.8233872249     0.0020794093    13.3015842927
Ni     11.0521571904     2.1299183736    13.3036923895
Ni     12.2804768129     4.2570231824    13.3034974244
Ni     13.5096378541     6.3851713969    13.3026217406
Ni      2.4514973755     0.0019246973    13.3020713843
Ni      3.6799080104     2.1302111187    13.3030200790
Ni      4.9082863508     4.2580546321    13.3039719134
Ni      6.1368929384     6.3861933370    13.3019271634
Ni      4.9084993919     0.0013880331    13.3014230328
Ni      6.1371783312     2.1306311272    13.3039260379
Ni      7.3659703048     4.2582692078    13.3048910459
Ni      8.5943251939     6.3858284923    13.3031786537
Ni      7.3652310461     0.0018301075    13.3009917210
Ni      8.5944012512     2.1300265711    13.3027544072
Ni      9.8234946590     4.2572052456    13.3039795120
Ni     11.0521180210     6.3859923811    13.3020768556
Ni      2.4477404521     1.4221481547    15.3339097680
Ni      3.6752753248     3.5498842222    15.3352963670
Ni      4.9040872203     5.6792792965    15.3341190379
Ni      6.1336501324     7.8084726083    15.3313646000
Ni      4.9055058228     1.4209179543    15.3315031769
Ni      6.1328718590     3.5506364122    15.3328053567
Ni      7.3610917422     5.6801410749    15.3324703594
Ni      8.5912441320     7.8081687690    15.3318435451
Ni      7.3627856629     1.4198015227    15.3318184358
Ni      8.5920931258     3.5478778095    15.3328407813
Ni      9.8213207361     5.6790857359    15.3308834213
Ni     11.0496386121     7.8084731459    15.3318920062
Ni      9.8210044178     1.4206893064    15.3335910370
Ni     11.0500427640     3.5483547997    15.3365702436
Ni     12.2791310207     5.6779429001    15.3328594404
Ni     13.5069277224     7.8069036227    15.3309171642
Ni      1.2152798593     0.7135348362    17.3850497402
Ni      2.4435444134     2.8443006778    17.3895889407
Ni      3.6687325097     4.9746037632    17.3856383802
Ni      4.9010374697     7.1027433494    17.3826193632
Ni      3.6901097588     0.7000295542    17.3515722100
Ni      4.8877008405     2.8386843354    17.3632144441
Ni      6.1170768223     4.9862806289    17.3600988007
Ni      7.3556063461     7.1096275167    17.3755267405
Ni      6.1329712911     0.7024181586    17.3797717536
Ni      7.3707510418     2.8244544784    17.3408412602
Ni      8.5894265987     4.9675960249    17.3294456031
Ni      9.8229243258     7.1133438218    17.3658741558
Ni      8.5932049470     0.7054727808    17.3797049487
Ni      9.8235337147     2.8316285000    17.3771547885
Ni     11.0642879846     4.9731348337    17.3585044102
Ni     12.2810421423     7.1028704773    17.3797843941
O       8.6222290342     3.2043837983    20.3675490016
O       8.6332306573     5.8226241395    18.9875878419
O       9.2924400185     3.4159939554    23.1872389399
C       8.9034600843     4.4308112996    21.0479259221
C       9.4950860954     5.4119332480    20.0396199415
C       9.9158448545     4.2153473183    22.1704565213
H       7.9792861997     4.8518174784    21.4787512136
H      10.4064543501     4.9359354315    19.6131893479
H       9.8024951946     6.3164734686    20.5845217611
H      10.2318340527     5.1918365925    22.5783388091
H      10.7978857423     3.6991446092    21.7607759430
H       8.3971064323     2.5298493215    21.0362371097
H       6.1116824047     3.5316524869    18.2910193772
H       9.9613812626     3.2369989928    23.8765821081
O       2.4870821436     0.4627994166    18.8640968973
H       2.5230168443     1.1523278173    19.5497347457
80
Step 4 | NEB Image 4 | Cartesian Angstrom
Ni      1.2285473314     0.7093212621    11.2498397422
Ni      2.4571567385     2.8374374541    11.2497129496
Ni      3.6858036337     4.9655881864    11.2496332215
Ni      4.9144897910     7.0937280233    11.2496556136
Ni      3.6858393789     0.7092703403    11.2496595417
Ni      4.9144820090     2.8374083323    11.2494771925
Ni      6.1431598538     4.9655870525    11.2494155251
Ni      7.3718601723     7.0937498281    11.2495074695
Ni      6.1432063933     0.7092176352    11.2495190617
Ni      7.3718907508     2.8373687640    11.2493518413
Ni      8.6005880582     4.9655632970    11.2493418836
Ni      9.8292738151     7.0937356303    11.2495038263
Ni      8.6006031409     0.7091997127    11.2495204336
Ni      9.8293088615     2.8373567855    11.2494268092
Ni     11.0579949729     4.9655455753    11.2494803407
Ni     12.2866358057     7.0936987601    11.2496487562
Ni      9.8234258937     0.0020490625    13.3015121392
Ni     11.0522213405     2.1298940764    13.3036306801
Ni     12.2805451469     4.2569934403    13.3034692101
Ni     13.5096957586     6.3851506011    13.3025843028
Ni      2.4515242739     0.0019626004    13.3021649991
Ni      3.6799287718     2.1302187000    13.3030292648
Ni      4.9083984769     4.2580918680    13.3039999751
Ni      6.1369682608     6.3861535247    13.3019780834
Ni      4.9084988938     0.0014045729    13.3014292068
Ni      6.1372669725     2.1306716568    13.3039256170
Ni      7.3660673783     4.2582416933    13.3049416109
Ni      8.5944087685     6.3857720829    13.3031407451
Ni      7.3652655283     0.0018375358    13.3009399855
Ni      8.5944599545     2.1300324232    13.3027475642
Ni      9.8235828609     4.2571538060    13.3039637301
Ni     11.0522109799     6.3859454140    13.3020314897
Ni      2.4478036893     1.4220908878    15.3343774658
Ni      3.6750839234     3.5502896498    15.3345994683
Ni      4.9046266914     5.6792273977    15.3345233234
Ni      6.1337241324     7.8083633159    15.3312320143
Ni      4.9053382799     1.4207376424    15.3310150249
Ni      6.1339646027     3.5510205039    15.3330446484
Ni      7.3613732953     5.6796761391    15.3324287798
Ni      8.5915674601     7.8081711667    15.3313602493
Ni      7.3632704337     1.4203900535    15.3318918577
Ni      8.5922945327     3.5475069479    15.3331183608
Ni      9.8220357580     5.6786777757    15.3307086580
Ni     11.0500170685     7.8084245361    15.3315920851
Ni      9.8211736396     1.4206583976    15.3334008481
Ni     11.0503471406     3.5483210481    15.3367712926
Ni     12.2792462400     5.6776663788    15.3330634812
Ni     13.5070842991     7.8068710116    15.3308307873
Ni      1.2174040483     0.7141788744    17.3868399509
Ni      2.4431743541     2.8431811673    17.3888634166
Ni      3.6700569252     4.9760656214    17.3854134044
Ni      4.9017625974     7.1019840235    17.3827771884
Ni      3.6800071389     0.7063029776    17.3610137283
Ni      4.8888032981     2.8492010545    17.3417552876
Ni      6.1200327906     4.9785486787    17.3699107949
Ni      7.3561352658     7.1114379940    17.3696625927
Ni      6.1372574628     0.6984572561    17.3697438055
Ni      7.3717296347     2.8337143487    17.3574085542
Ni      8.6020934149     4.9572877641    17.3252549777
Ni      9.8271057626     7.1136632156    17.3609917087
Ni      8.5940647864     0.7053085696    17.3787429927
Ni      9.8257499057     2.8326336466    17.3765211987
Ni     11.0627634503     4.9683665842    17.3679103436
Ni     12.2822381404     7.1022164493    17.3793513626
O       9.1230368327     3.4375983561    20.0199075340
O       7.7894989020     5.7463373065    18.8570384631
O       8.9798040578     3.2756956276    22.8166300182
C       8.4679335765     4.4569599492    20.8125865324
C       8.5367254728     5.7887683290    20.0725981329
C       9.1585793804     4.5520731488    22.1706203617
H       7.4189316011     4.1810359904    20.9558021074
H       9.5784730782     6.0438555363    19.8596824096
H       8.1024454637     6.5819823463    20.7161168341
H       8.6992751606     5.3586821552    22.7648148057
H      10.2201523077     4.7711392736    22.0218384530
H       9.0311940735     2.6217708856    20.4616971790
H       6.1300627115     2.1332321667    18.2918747719
H       9.5504642529     3.2411425410    23.5925670064
O       2.4686798135     0.5109581889    18.9157903452
H       2.4870074484     1.2568162416    19.5027053901
80
Step 5 | NEB Image 5 | Cartesian Angstrom
Ni      1.2286497034     0.7093615225    11.2499999440
Ni      2.4572989609     2.8374461750    11.2499999440
Ni      3.6859482184     4.9655308275    11.2499999440
Ni      4.9145974759     7.0936154800    11.2499999440
Ni      3.6859497034     0.7093615225    11.2499999440
Ni      4.9145989609     2.8374461750    11.2499999440
Ni      6.1432482184     4.9655308275    11.2499999440
Ni      7.3718974759     7.0936154800    11.2499999440
Ni      6.1432497034     0.7093615225    11.2499999440
Ni      7.3718989609     2.8374461750    11.2499999440
Ni      8.6005482184     4.9655308275    11.2499999440
Ni      9.8291974759     7.0936154800    11.2499999440
Ni      8.6005497034     0.7093615225    11.2499999440
Ni      9.8291989609     2.8374461750    11.2499999440
Ni     11.0578482184     4.9655308275    11.2499999440
Ni     12.2864974759     7.0936154800    11.2499999440
Ni      9.8231926870     0.0024995631    13.3023446442
Ni     11.0518089676     2.1302240586    13.3047083557
Ni     12.2800508544     4.2570722939    13.3044621680
Ni     13.5092873083     6.3850384546    13.3032134512
Ni      2.4517696982     0.0021660497    13.3026623307
Ni      3.6803278881     2.1303359107    13.3041135630
Ni      4.9088074938     4.2579363814    13.3054287544
Ni      6.1372745671     6.3857877107    13.3032783798
Ni      4.9086517115     0.0018312594    13.3024060945
Ni      6.1374036838     2.1309748468    13.3056096270
Ni      7.3661495135     4.2582451239    13.3069522585
Ni      8.5943413203     6.3854189562    13.3048451696
Ni      7.3652044956     0.0023769003    13.3020219334
Ni      8.5942385662     2.1304695544    13.3043868044
Ni      9.8231946918     4.2572739512    13.3057506922
Ni     11.0517679695     6.3857120360    13.3033344194
Ni      2.4490339821     1.4222228929    15.3362210124
Ni      3.6772966574     3.5494520554    15.3385526461
Ni      4.9062018672     5.6779299780    15.3378106046
Ni      6.1346571942     7.8070606266    15.3335999053
Ni      4.9058225197     1.4219699914    15.3362206260
Ni      6.1346426084     3.5508505475    15.3401418518
Ni      7.3625330027     5.6784279498    15.3395242568
Ni      8.5915701206     7.8062468470    15.3354851546
Ni      7.3627071376     1.4224398724    15.3370388041
Ni      8.5913286772     3.5492677633    15.3408174188
Ni      9.8201850849     5.6778143804    15.3377746619
Ni     11.0486433115     7.8070023171    15.3347462049
Ni      9.8200953547     1.4222882677    15.3366654644
Ni     11.0486075444     3.5492992589    15.3407265960
Ni     12.2774144623     5.6772885732    15.3359640033
Ni     13.5061541972     7.8063455902    15.3319299253
Ni      1.2187910631     0.7145173608    17.3879334314
Ni      2.4472474227     2.8420654806    17.3934581627
Ni      3.6755426811     4.9714604374    17.3911199588
Ni      4.9045369929     7.0990999797    17.3858410289
Ni      3.6755273590     0.7130852450    17.3897672789
Ni      4.9037000473     2.8423806074    17.3934481142
Ni      6.1319553005     4.9726957480    17.3963328007
Ni      7.3614524743     7.0997441935    17.3897409983
Ni      6.1332850561     0.7119051795    17.3902534707
Ni      7.3623531846     2.8409773484    17.3961534740
Ni      8.5911690953     4.9716069348    17.3936888912
Ni      9.8197669951     7.1000577029    17.3889506467
Ni      8.5911411426     0.7131642395    17.3880087950
Ni      9.8198330590     2.8408219131    17.3957136598
Ni     11.0487030798     4.9704125685    17.3927698418
Ni     12.2763266601     7.0989938309    17.3852102935
O       9.3819344244     4.1358166692    20.0930362367
O       7.4403591999     5.7710500252    18.8010456662
O       8.6054614657     3.3490556865    22.7703843692
C       8.1664603160     4.5686069475    20.7700096311
C       7.7641571257     5.9228005922    20.1887078083
C       8.3912004598     4.6889035721    22.2787219386
H       7.3485584428     3.8274455412    20.5710354409
H       8.5939941550     6.6612606078    20.2727262356
H       6.8675792875     6.3118286823    20.7285291220
H       7.5127131407     5.1500412147    22.7730789076
H       9.2780443246     5.3384479547    22.4478370724
H       9.6348023466     3.2728259917    20.4951539629
H       4.4134518168     1.3599542848    19.7391102444
H       8.7500633813     3.3953291848    23.7317250903
O       3.5190441201     1.0401590876    20.0091886335
H       2.9303167551     1.7729858078    19.7218291788
