80
Step 1 | NEB Image 1 | Cartesian Angstrom
Ni      1.2286497034     0.7093615225    11.2499999440
Ni      2.4572989609     2.8374461750    11.2499999440
Ni      3.6859482184     4.9655308275    11.2499999440
Ni      4.9145974759     7.0936154800    11.2499999440
Ni      3.6859497034     0.7093615225    11.2499999440
Ni      4.9145989609     2.8374461750    11.2499999440
Ni      6.1432482184     4.9655308275    11.2499999440
Ni      7.3718974759     7.0936154800    11.2499999440
Ni      6.1432497034     0.7093615225    11.2499999440
Ni      7.3718989609     2.8374461750    11.2499999440
Ni      8.6005482184     4.9655308275    11.2499999440
Ni      9.8291974759     7.0936154800    11.2499999440
Ni      8.6005497034     0.7093615225    11.2499999440
Ni      9.8291989609     2.8374461750    11.2499999440
Ni     11.0578482184     4.9655308275    11.2499999440
Ni     12.2864974759     7.0936154800    11.2499999440
Ni      9.8231926870     0.0024995631    13.3023446442
Ni     11.0518089676     2.1302240586    13.3047083557
Ni     12.2800508544     4.2570722939    13.3044621680
Ni     13.5092873083     6.3850384546    13.3032134512
Ni      2.4517696982     0.0021660497    13.3026623307
Ni      3.6803278881     2.1303359107    13.3041135630
Ni      4.9088074938     4.2579363814    13.3054287544
Ni      6.1372745671     6.3857877107    13.3032783798
Ni      4.9086517115     0.0018312594    13.3024060945
Ni      6.1374036838     2.1309748468    13.3056096270
Ni      7.3661495135     4.2582451239    13.3069522585
Ni      8.5943413203     6.3854189562    13.3048451696
Ni      7.3652044956     0.0023769003    13.3020219334
Ni      8.5942385662     2.1304695544    13.3043868044
Ni      9.8231946918     4.2572739512    13.3057506922
Ni     11.0517679695     6.3857120360    13.3033344194
Ni      2.4490339821     1.4222228929    15.3362210124
Ni      3.6772966574     3.5494520554    15.3385526461
Ni      4.9062018672     5.6779299780    15.3378106046
Ni      6.1346571942     7.8070606266    15.3335999053
Ni      4.9058225197     1.4219699914    15.3362206260
Ni      6.1346426084     3.5508505475    15.3401418518
Ni      7.3625330027     5.6784279498    15.3395242568
Ni      8.5915701206     7.8062468470    15.3354851546
Ni      7.3627071376     1.4224398724    15.3370388041
Ni      8.5913286772     3.5492677633    15.3408174188
Ni      9.8201850849     5.6778143804    15.3377746619
Ni     11.0486433115     7.8070023171    15.3347462049
Ni      9.8200953547     1.4222882677    15.3366654644
Ni     11.0486075444     3.5492992589    15.3407265960
Ni     12.2774144623     5.6772885732    15.3359640032
Ni     13.5061541972     7.8063455902    15.3319299253
Ni      1.2187910631     0.7145173608    17.3879334314
Ni      2.4472474227     2.8420654806    17.3934581627
Ni      3.6755426811     4.9714604374    17.3911199588
Ni      4.9045369929     7.0990999797    17.3858410289
Ni      3.6755273590     0.7130852450    17.3897672789
Ni      4.9037000473     2.8423806074    17.3934481142
Ni      6.1319553005     4.9726957480    17.3963328007
Ni      7.3614524743     7.0997441935    17.3897409983
Ni      6.1332850561     0.7119051795    17.3902534707
Ni      7.3623531846     2.8409773484    17.3961534740
Ni      8.5911690953     4.9716069348    17.3936888912
Ni      9.8197669951     7.1000577029    17.3889506467
Ni      8.5911411426     0.7131642395    17.3880087950
Ni      9.8198330590     2.8408219131    17.3957136598
Ni     11.0487030798     4.9704125685    17.3927698418
Ni     12.2763266601     7.0989938309    17.3852102935
O       8.1853233808     3.4574048182    21.7117206478
O       8.5869329741     5.0599815235    19.5762271001
O      10.2109211163     3.6451020548    23.8826602062
C       9.3606393600     4.2890487236    21.7367471584
C       9.7574736302     4.6321502783    20.3055951979
C      10.5272793641     3.6720453941    22.4918474794
H       9.0423459569     5.1976070563    22.2680419510
H      10.2036708160     3.7499198429    19.8025973096
H      10.4835571337     5.4542343167    20.2475656164
H      11.4351836342     4.2717022800    22.2942344717
H      10.7115000118     2.6514065461    22.0984614952
H       8.4384371395     2.5707271966    21.3925898339
H       7.8511829079     4.4818016084    19.8831003151
H      11.0040911060     3.3843978098    24.3788521822
O       2.4676593393     1.4045078651    18.8058894197
H       2.5804189712     1.3115658959    19.7657035449
80
Step 2 | NEB Image 2 | Cartesian Angstrom
Ni      1.2285320511     0.7093124290    11.2498160550
Ni      2.4571401947     2.8374301608    11.2496993802
Ni      3.6857784785     4.9655822211    11.2496209120
Ni      4.9144677607     7.0937332785    11.2496432938
Ni      3.6858364350     0.7092638656    11.2496579185
Ni      4.9144654961     2.8374006961    11.2494916580
Ni      6.1431364609     4.9655875908    11.2494298219
Ni      7.3718411633     7.0937542002    11.2495366489
Ni      6.1431991781     0.7092200938    11.2495598093
Ni      7.3718683742     2.8373728997    11.2494002756
Ni      8.6005587578     4.9655747626    11.2494030130
Ni      9.8292402580     7.0937357215    11.2495685816
Ni      8.6005839380     0.7092177828    11.2495903202
Ni      9.8292745534     2.8373756415    11.2495053607
Ni     11.0579493404     4.9655584444    11.2495598374
Ni     12.2865923582     7.0936955191    11.2497132770
Ni      9.8233495039     0.0021317040    13.3016957037
Ni     11.0520955079     2.1299603883    13.3038145480
Ni     12.2804026626     4.2570491958    13.3036181892
Ni     13.5095711777     6.3851638139    13.3027102629
Ni      2.4515213468     0.0019243477    13.3020966852
Ni      3.6799440977     2.1302060760    13.3030984193
Ni      4.9082965875     4.2580323922    13.3040517508
Ni      6.1369109122     6.3861818813    13.3020151896
Ni      4.9085128164     0.0014194574    13.3015318505
Ni      6.1371713006     2.1306363791    13.3040728132
Ni      7.3659641955     4.2582791921    13.3050558758
Ni      8.5943035635     6.3858094861    13.3033640788
Ni      7.3652160387     0.0018786375    13.3011224380
Ni      8.5943630661     2.1300650208    13.3029172587
Ni      9.8234302289     4.2572401179    13.3041709959
Ni     11.0520437254     6.3859786918    13.3022400078
Ni      2.4479256877     1.4220970753    15.3338874249
Ni      3.6755519316     3.5497137710    15.3356894604
Ni      4.9040387336     5.6792569404    15.3341397170
Ni      6.1337522054     7.8084020840    15.3316292284
Ni      4.9055451911     1.4210296827    15.3322067364
Ni      6.1326842105     3.5504669011    15.3332058408
Ni      7.3612392479     5.6801571542    15.3331754464
Ni      8.5911597060     7.8079580234    15.3324187621
Ni      7.3626341172     1.4198205757    15.3323190955
Ni      8.5918808220     3.5481979733    15.3335902385
Ni      9.8209067051     5.6790842596    15.3318261439
Ni     11.0493834206     7.8083034053    15.3323258190
Ni      9.8208072045     1.4208100479    15.3339517493
Ni     11.0497845173     3.5485671074    15.3368956160
Ni     12.2788243423     5.6779736655    15.3332470634
Ni     13.5067638209     7.8068362274    15.3310792172
Ni      1.2141601028     0.7129246190    17.3838498874
Ni      2.4436290905     2.8458714043    17.3883214892
Ni      3.6687202698     4.9739569004    17.3860847216
Ni      4.9010566880     7.1028697642    17.3827217044
Ni      3.6929683921     0.6985183931    17.3556368140
Ni      4.8905724979     2.8368217599    17.3736568238
Ni      6.1163226740     4.9888507345    17.3567544957
Ni      7.3564382036     7.1077750895    17.3795154327
Ni      6.1322455662     0.7048008650    17.3838380973
Ni      7.3683132677     2.8199826225    17.3401248254
Ni      8.5853509525     4.9726984922    17.3393878487
Ni      9.8211590568     7.1110456364    17.3697732403
Ni      8.5925556641     0.7067461313    17.3817824112
Ni      9.8218295838     2.8310110168    17.3771820895
Ni     11.0616397311     4.9768770150    17.3610881577
Ni     12.2797655382     7.1023136258    17.3808062008
O       8.0499290400     3.2483378592    21.2695877003
O       8.4629485914     5.2021294693    19.1833152045
O       9.6522467090     3.7187302403    23.6830703340
C       8.9284735798     4.3551447720    21.4606637466
C       9.4760218656     4.9454940143    20.1348753973
C      10.1169314947     4.0006801331    22.3586248212
H       8.3134153607     5.1118704490    21.9757635771
H      10.2319277882     4.2297503377    19.7294206159
H      10.0236978130     5.8786945227    20.3739921135
H      10.8403400138     4.8378431033    22.3649969823
H      10.6300932036     3.1177421969    21.9237419550
H       8.5483614854     2.5315668235    20.8290957768
H       6.2631665412     3.6306060284    18.3218456375
H      10.4100392740     3.4825780715    24.2311002229
O       2.5266128914     1.4455267814    18.7895543050
H       2.6706554268     1.4324602252    19.7532310413
80
Step 3 | NEB Image 3 | Cartesian Angstrom
Ni      1.2285091640     0.7093096822    11.2497873026
Ni      2.4571089928     2.8374336902    11.2496441641
Ni      3.6857490907     4.9655961586    11.2495479427
Ni      4.9144441177     7.0937550167    11.2495671028
Ni      3.6858051332     0.7092479028    11.2495675535
Ni      4.9144365640     2.8373977992    11.2493594973
Ni      6.1431148867     4.9656001982    11.2492806658
Ni      7.3718325208     7.0937861751    11.2493955303
Ni      6.1431880995     0.7091846851    11.2494111818
Ni      7.3718696129     2.8373526856    11.2492103222
Ni      8.6005752357     4.9655780951    11.2492003099
Ni      9.8292712712     7.0937692824    11.2494036444
Ni      8.6006052282     0.7091683050    11.2494281144
Ni      9.8293163592     2.8373432076    11.2493160091
Ni     11.0580064981     4.9655561210    11.2493797380
Ni     12.2866481916     7.0937213478    11.2495852445
Ni      9.8234488733     0.0019764988    13.3013800716
Ni     11.0522612396     2.1298391631    13.3034478211
Ni     12.2806030898     4.2569900748    13.3032584883
Ni     13.5097480230     6.3851953026    13.3024599344
Ni      2.4514396761     0.0018970791    13.3019744701
Ni      3.6798209557     2.1302028177    13.3028128791
Ni      4.9082130589     4.2580907164    13.3037225908
Ni      6.1368278541     6.3862521471    13.3016791634
Ni      4.9084677999     0.0013038396    13.3011939143
Ni      6.1371576442     2.1305859699    13.3035784202
Ni      7.3659532363     4.2582619045    13.3044797859
Ni      8.5943438656     6.3858969207    13.3027913566
Ni      7.3652491718     0.0017159057    13.3007355784
Ni      8.5944590451     2.1299350275    13.3023946768
Ni      9.8235954392     4.2571610716    13.3035730358
Ni     11.0522350794     6.3860403586    13.3017593724
Ni      2.4473894590     1.4221997192    15.3336618205
Ni      3.6747542898     3.5501037038    15.3345332287
Ni      4.9038867060     5.6794536843    15.3336754026
Ni      6.1334228877     7.8087102838    15.3308309953
Ni      4.9054348230     1.4206864617    15.3302241583
Ni      6.1328395528     3.5507853704    15.3315471377
Ni      7.3607570176     5.6803307220    15.3309148999
Ni      8.5912884726     7.8086138191    15.3308250968
Ni      7.3629418870     1.4194661865    15.3306862555
Ni      8.5924048172     3.5473849459    15.3311207639
Ni      9.8218753741     5.6792443090    15.3290858995
Ni     11.0500154562     7.8088254713    15.3311092654
Ni      9.8213164404     1.4203814020    15.3328611144
Ni     11.0504743028     3.5480159364    15.3357443221
Ni     12.2796559068     5.6779922503    15.3320783813
Ni     13.5071882857     7.8070412836    15.3306294355
Ni      1.2160539574     0.7140812627    17.3859968483
Ni      2.4430628239     2.8428378859    17.3906175482
Ni      3.6679443962     4.9756039738    17.3845519246
Ni      4.9006019479     7.1030332025    17.3821467002
Ni      3.6889566154     0.7000144257    17.3424384948
Ni      4.8826957939     2.8398911281    17.3492066431
Ni      6.1161657599     4.9852347235    17.3594486871
Ni      7.3540150269     7.1126949156    17.3697805905
Ni      6.1335557681     0.6988976942    17.3745330316
Ni      7.3743487080     2.8272384314    17.3348686512
Ni      8.5932247145     4.9619162397    17.3115132054
Ni      9.8250544818     7.1173477635    17.3592182291
Ni      8.5941173315     0.7032177832    17.3765197725
Ni      9.8257432038     2.8312719841    17.3751302764
Ni     11.0690170207     4.9694607531    17.3514568214
Ni     12.2829299969     7.1039452168    17.3780697408
O       8.5848436411     3.0555657848    20.5265376391
O       8.1641537453     5.4566584679    19.0545465902
O       9.2506564546     3.4296181699    23.3449644983
C       8.6970661299     4.3231426328    21.1856293639
C       9.0814339457     5.3690075259    20.1392327896
C       9.7435503212     4.2788476894    22.2912706476
H       7.7248702519     4.5955003736    21.6404442560
H      10.0935974883     5.1154464422    19.7686144530
H       9.1345086465     6.3547507943    20.6304867364
H       9.9412552209     5.2948467127    22.6680739063
H      10.6797375446     3.8671758906    21.8778846751
H       8.7432342122     2.3579260821    21.1780101064
H       6.1191067071     3.1524324795    18.3630133360
H       9.9339722933     3.3574399667    24.0264147833
O       2.5500528499     0.7611616001    18.9088004997
H       2.7033828836     1.5243709467    19.5071326992
80
Step 4 | NEB Image 4 | Cartesian Angstrom
Ni      1.2285591041     0.7093253554    11.2498567031
Ni      2.4571718011     2.8374388688    11.2497368349
Ni      3.6858205724     4.9655850107    11.2496629617
Ni      4.9145035822     7.0937186564    11.2496852566
Ni      3.6858499961     0.7092781570    11.2496891935
Ni      4.9144957760     2.8374120754    11.2495171608
Ni      6.1431729357     4.9655825484    11.2494609581
Ni      7.3718678923     7.0937379240    11.2495445297
Ni      6.1432118399     0.7092288256    11.2495543323
Ni      7.3718963863     2.8373743109    11.2493989409
Ni      8.6005908072     4.9655586849    11.2493886670
Ni      9.8292735313     7.0937249537    11.2495368273
Ni      8.6006019508     0.7092103817    11.2495510551
Ni      9.8293055079     2.8373614697    11.2494637578
Ni     11.0579901842     4.9655423232    11.2495134400
Ni     12.2866310115     7.0936916775    11.2496696769
Ni      9.8234175561     0.0020741332    13.3015564699
Ni     11.0522062655     2.1299124918    13.3036932141
Ni     12.2805246321     4.2569938352    13.3035362905
Ni     13.5096782879     6.3851373117    13.3026233528
Ni      2.4515493802     0.0019843487    13.3022229020
Ni      3.6799626393     2.1302263913    13.3031046227
Ni      4.9084541773     4.2580900291    13.3040997676
Ni      6.1370093022     6.3861203293    13.3020786695
Ni      4.9085094174     0.0014379660    13.3015030415
Ni      6.1372982002     2.1307005641    13.3040428114
Ni      7.3660981469     4.2582358453    13.3050941264
Ni      8.5944248941     6.3857336224    13.3032551132
Ni      7.3652693237     0.0018774592    13.3010070221
Ni      8.5944578220     2.1300645815    13.3028632462
Ni      9.8235754097     4.2571518710    13.3040898799
Ni     11.0522001778     6.3859170775    13.3021179637
Ni      2.4479205158     1.4220732772    15.3346062185
Ni      3.6751985227     3.5503287268    15.3346870636
Ni      4.9048564733     5.6791379140    15.3348206593
Ni      6.1338134987     7.8082491647    15.3313696142
Ni      4.9053243868     1.4207734945    15.3312829977
Ni      6.1342771441     3.5510903055    15.3335691260
Ni      7.3615412374     5.6794797017    15.3329261772
Ni      8.5916441564     7.8080304367    15.3315484692
Ni      7.3633500895     1.4206711758    15.3322799622
Ni      8.5922620283     3.5475537421    15.3337462004
Ni      9.8220648414     5.6785154458    15.3312075688
Ni     11.0500047119     7.8083039607    15.3317545705
Ni      9.8211284996     1.4207596001    15.3335877714
Ni     11.0502933806     3.5484014034    15.3371000910
Ni     12.2791259327     5.6775731371    15.3333459857
Ni     13.5070494089     7.8068215428    15.3308943723
Ni      1.2178863853     0.7142743678    17.3871985535
Ni      2.4433077841     2.8430734312    17.3886943807
Ni      3.6707279484     4.9761141948    17.3857389178
Ni      4.9021218684     7.1016340070    17.3830068917
Ni      3.6774076010     0.7081814224    17.3659396388
Ni      4.8904200545     2.8514683656    17.3403327161
Ni      6.1213886749     4.9764916746    17.3735473794
Ni      7.3567174476     7.1109904278    17.3697938007
Ni      6.1381219025     0.6984864304    17.3687403250
Ni      7.3710749128     2.8359535698    17.3640698213
Ni      8.6043628098     4.9560433802    17.3295227629
Ni      9.8275787396     7.1126152327    17.3618154555
Ni      8.5940356550     0.7059101905    17.3793347736
Ni      9.8257582438     2.8332594460    17.3773987821
Ni     11.0611119130     4.9677763726    17.3723599446
Ni     12.2820327649     7.1017607755    17.3797250033
O       9.1989587839     3.4093520535    20.1551303871
O       7.7687293902     5.6425352277    18.8934519184
O       8.9485720056     3.2844580659    22.9752922835
C       8.4579027740     4.3791898126    20.9131868026
C       8.4431743037     5.7052073024    20.1577331924
C       9.0903047845     4.5454163544    22.2899195202
H       7.4163604311     4.0284756861    21.0457655016
H       9.4848984644     6.0384158299    19.9948729164
H       7.9260481038     6.4573775822    20.7731707628
H       8.5898248610     5.3520136916    22.8510836335
H      10.1571135500     4.7985878192    22.1694844390
H       9.2598699164     2.6050301805    20.6997228139
H       6.0620863316     2.1955222236    18.3191080996
H       9.4558212342     3.3198765973    23.8009271537
O       2.6788363916     0.6981570814    18.9854734705
H       2.9371039561     1.4989723308    19.4870477842
80
Step 5 | NEB Image 5 | Cartesian Angstrom
Ni      1.2286497034     0.7093615225    11.2499999440
Ni      2.4572989609     2.8374461750    11.2499999440
Ni      3.6859482184     4.9655308275    11.2499999440
Ni      4.9145974759     7.0936154800    11.2499999440
Ni      3.6859497034     0.7093615225    11.2499999440
Ni      4.9145989609     2.8374461750    11.2499999440
Ni      6.1432482184     4.9655308275    11.2499999440
Ni      7.3718974759     7.0936154800    11.2499999440
Ni      6.1432497034     0.7093615225    11.2499999440
Ni      7.3718989609     2.8374461750    11.2499999440
Ni      8.6005482184     4.9655308275    11.2499999440
Ni      9.8291974759     7.0936154800    11.2499999440
Ni      8.6005497034     0.7093615225    11.2499999440
Ni      9.8291989609     2.8374461750    11.2499999440
Ni     11.0578482184     4.9655308275    11.2499999440
Ni     12.2864974759     7.0936154800    11.2499999440
Ni      9.8231926870     0.0024995631    13.3023446442
Ni     11.0518089676     2.1302240586    13.3047083557
Ni     12.2800508544     4.2570722939    13.3044621680
Ni     13.5092873083     6.3850384546    13.3032134512
Ni      2.4517696982     0.0021660497    13.3026623307
Ni      3.6803278881     2.1303359107    13.3041135630
Ni      4.9088074938     4.2579363814    13.3054287544
Ni      6.1372745671     6.3857877107    13.3032783798
Ni      4.9086517115     0.0018312594    13.3024060945
Ni      6.1374036838     2.1309748468    13.3056096270
Ni      7.3661495135     4.2582451239    13.3069522585
Ni      8.5943413203     6.3854189562    13.3048451696
Ni      7.3652044956     0.0023769003    13.3020219334
Ni      8.5942385662     2.1304695544    13.3043868044
Ni      9.8231946918     4.2572739512    13.3057506922
Ni     11.0517679695     6.3857120360    13.3033344194
Ni      2.4490339821     1.4222228929    15.3362210124
Ni      3.6772966574     3.5494520554    15.3385526461
Ni      4.9062018672     5.6779299780    15.3378106046
Ni      6.1346571942     7.8070606266    15.3335999053
Ni      4.9058225197     1.4219699914    15.3362206260
Ni      6.1346426084     3.5508505475    15.3401418518
Ni      7.3625330027     5.6784279498    15.3395242568
Ni      8.5915701206     7.8062468470    15.3354851546
Ni      7.3627071376     1.4224398724    15.3370388041
Ni      8.5913286772     3.5492677633    15.3408174188
Ni      9.8201850849     5.6778143804    15.3377746619
Ni     11.0486433115     7.8070023171    15.3347462049
Ni      9.8200953547     1.4222882677    15.3366654644
Ni     11.0486075444     3.5492992589    15.3407265960
Ni     12.2774144623     5.6772885732    15.3359640032
Ni     13.5061541972     7.8063455902    15.3319299253
Ni      1.2187910631     0.7145173608    17.3879334314
Ni      2.4472474227     2.8420654806    17.3934581627
Ni      3.6755426811     4.9714604374    17.3911199588
Ni      4.9045369929     7.0990999797    17.3858410289
Ni      3.6755273590     0.7130852450    17.3897672789
Ni      4.9037000473     2.8423806074    17.3934481142
Ni      6.1319553005     4.9726957480    17.3963328007
Ni      7.3614524743     7.0997441935    17.3897409983
Ni      6.1332850561     0.7119051795    17.3902534707
Ni      7.3623531846     2.8409773484    17.3961534740
Ni      8.5911690953     4.9716069348    17.3936888912
Ni      9.8197669951     7.1000577029    17.3889506467
Ni      8.5911411426     0.7131642395    17.3880087950
Ni      9.8198330590     2.8408219131    17.3957136598
Ni     11.0487030798     4.9704125685    17.3927698418
Ni     12.2763266601     7.0989938309    17.3852102935
O       9.3819344244     4.1358166692    20.0930362367
O       7.4403591999     5.7710500252    18.8010456662
O       8.6054614657     3.3490556865    22.7703843692
C       8.1664603160     4.5686069475    20.7700096311
C       7.7641571257     5.9228005922    20.1887078083
C       8.3912004598     4.6889035721    22.2787219386
H       7.3485584428     3.8274455412    20.5710354409
H       8.5939941550     6.6612606078    20.2727262356
H       6.8675792875     6.3118286823    20.7285291220
H       7.5127131407     5.1500412147    22.7730789076
H       9.2780443246     5.3384479547    22.4478370724
H       9.6348023466     3.2728259917    20.4951539629
H       4.4134518168     1.3599542848    19.7391102444
H       8.7500633813     3.3953291848    23.7317250903
O       3.5190441201     1.0401590876    20.0091886335
H       2.9303167551     1.7729858078    19.7218291788
