80
Step 1 | NEB Image 1 | Cartesian Angstrom
Ni      1.2286497034     0.7093615225    11.2499999440
Ni      2.4572989609     2.8374461750    11.2499999440
Ni      3.6859482184     4.9655308275    11.2499999440
Ni      4.9145974759     7.0936154800    11.2499999440
Ni      3.6859497034     0.7093615225    11.2499999440
Ni      4.9145989609     2.8374461750    11.2499999440
Ni      6.1432482184     4.9655308275    11.2499999440
Ni      7.3718974759     7.0936154800    11.2499999440
Ni      6.1432497034     0.7093615225    11.2499999440
Ni      7.3718989609     2.8374461750    11.2499999440
Ni      8.6005482184     4.9655308275    11.2499999440
Ni      9.8291974759     7.0936154800    11.2499999440
Ni      8.6005497034     0.7093615225    11.2499999440
Ni      9.8291989609     2.8374461750    11.2499999440
Ni     11.0578482184     4.9655308275    11.2499999440
Ni     12.2864974759     7.0936154800    11.2499999440
Ni      9.8231926870     0.0024995631    13.3023446442
Ni     11.0518089676     2.1302240586    13.3047083557
Ni     12.2800508544     4.2570722939    13.3044621680
Ni     13.5092873083     6.3850384546    13.3032134512
Ni      2.4517696982     0.0021660497    13.3026623307
Ni      3.6803278881     2.1303359107    13.3041135630
Ni      4.9088074938     4.2579363814    13.3054287544
Ni      6.1372745671     6.3857877107    13.3032783798
Ni      4.9086517115     0.0018312594    13.3024060945
Ni      6.1374036838     2.1309748468    13.3056096270
Ni      7.3661495135     4.2582451239    13.3069522585
Ni      8.5943413203     6.3854189562    13.3048451696
Ni      7.3652044956     0.0023769003    13.3020219334
Ni      8.5942385662     2.1304695544    13.3043868044
Ni      9.8231946918     4.2572739512    13.3057506922
Ni     11.0517679695     6.3857120360    13.3033344194
Ni      2.4490339821     1.4222228929    15.3362210124
Ni      3.6772966574     3.5494520554    15.3385526461
Ni      4.9062018672     5.6779299780    15.3378106046
Ni      6.1346571942     7.8070606266    15.3335999053
Ni      4.9058225197     1.4219699914    15.3362206260
Ni      6.1346426084     3.5508505475    15.3401418518
Ni      7.3625330027     5.6784279498    15.3395242568
Ni      8.5915701206     7.8062468470    15.3354851546
Ni      7.3627071376     1.4224398724    15.3370388041
Ni      8.5913286772     3.5492677633    15.3408174188
Ni      9.8201850849     5.6778143804    15.3377746619
Ni     11.0486433115     7.8070023171    15.3347462049
Ni      9.8200953547     1.4222882677    15.3366654644
Ni     11.0486075444     3.5492992589    15.3407265960
Ni     12.2774144623     5.6772885732    15.3359640033
Ni     13.5061541972     7.8063455902    15.3319299253
Ni      1.2187910631     0.7145173608    17.3879334314
Ni      2.4472474227     2.8420654806    17.3934581627
Ni      3.6755426811     4.9714604374    17.3911199588
Ni      4.9045369929     7.0990999797    17.3858410289
Ni      3.6755273590     0.7130852450    17.3897672789
Ni      4.9037000473     2.8423806074    17.3934481142
Ni      6.1319553005     4.9726957480    17.3963328007
Ni      7.3614524743     7.0997441935    17.3897409983
Ni      6.1332850561     0.7119051795    17.3902534707
Ni      7.3623531846     2.8409773484    17.3961534740
Ni      8.5911690953     4.9716069348    17.3936888912
Ni      9.8197669951     7.1000577029    17.3889506467
Ni      8.5911411426     0.7131642395    17.3880087950
Ni      9.8198330590     2.8408219131    17.3957136598
Ni     11.0487030798     4.9704125685    17.3927698418
Ni     12.2763266601     7.0989938309    17.3852102935
O       8.1853233808     3.4574048182    21.7117206478
O       8.5869329741     5.0599815235    19.5762271001
O      10.2109211163     3.6451020548    23.8826602062
C       9.3606393600     4.2890487236    21.7367471584
C       9.7574736302     4.6321502783    20.3055951979
C      10.5272793641     3.6720453941    22.4918474794
H       9.0423459569     5.1976070563    22.2680419510
H      10.2036708160     3.7499198429    19.8025973096
H      10.4835571337     5.4542343167    20.2475656164
H      11.4351836342     4.2717022800    22.2942344717
H      10.7115000118     2.6514065461    22.0984614952
H       8.4384371395     2.5707271966    21.3925898339
H       7.8511829079     4.4818016084    19.8831003151
H      11.0040911060     3.3843978098    24.3788521822
O       2.4676593393     1.4045078651    18.8058894197
H       2.5804189712     1.3115658959    19.7657035449
80
Step 2 | NEB Image 2 | Cartesian Angstrom
Ni      1.2285489598     0.7093181159    11.2498410711
Ni      2.4571630764     2.8374311252    11.2497419249
Ni      3.6858021423     4.9655740411    11.2496752359
Ni      4.9144860825     7.0937165845    11.2496959244
Ni      3.6858545791     0.7092772909    11.2497118716
Ni      4.9144852747     2.8374060351    11.2495714110
Ni      6.1431524881     4.9655791174    11.2495194617
Ni      7.3718487902     7.0937332586    11.2496134992
Ni      6.1432066909     0.7092420102    11.2496357486
Ni      7.3718713221     2.8373846309    11.2495012158
Ni      8.6005543378     4.9655694977    11.2495062328
Ni      9.8292295412     7.0937163933    11.2496468865
Ni      8.6005760725     0.7092427725    11.2496658023
Ni      9.8292582336     2.8373895454    11.2495951909
Ni     11.0579272610     4.9655560243    11.2496421083
Ni     12.2865711980     7.0936819511    11.2497690232
Ni      9.8233131046     0.0022014106    13.3018270920
Ni     11.0520321855     2.1300123598    13.3039818275
Ni     12.2803255324     4.2570635098    13.3037788396
Ni     13.5095058994     6.3851443686    13.3028132635
Ni      2.4515637524     0.0019551112    13.3021804290
Ni      3.6800090142     2.1302203111    13.3032620483
Ni      4.9083668202     4.2580106113    13.3042620033
Ni      6.1369656522     6.3861265194    13.3022149166
Ni      4.9085364016     0.0014857905    13.3016912839
Ni      6.1371983453     2.1306819195    13.3043330283
Ni      7.3659857738     4.2582791098    13.3053701323
Ni      8.5942993953     6.3857510525    13.3036342289
Ni      7.3652081614     0.0019634942    13.3012943619
Ni      8.5943307271     2.1301334871    13.3031761099
Ni      9.8233723437     4.2572595659    13.3044565352
Ni     11.0519763729     6.3859383984    13.3024511859
Ni      2.4481494913     1.4220895902    15.3341768514
Ni      3.6758949260     3.5496079007    15.3362216427
Ni      4.9042955202     5.6790785659    15.3346170549
Ni      6.1339131133     7.8081997753    15.3319959692
Ni      4.9055964221     1.4211971095    15.3330255125
Ni      6.1328576821     3.5504429141    15.3342650225
Ni      7.3614715626     5.6799414135    15.3342943260
Ni      8.5911766925     7.8076470970    15.3330601854
Ni      7.3625797816     1.4201657843    15.3331412728
Ni      8.5917176230     3.5484734861    15.3348429939
Ni      9.8206362588     5.6789192767    15.3329996809
Ni     11.0491788051     7.8080622839    15.3328237797
Ni      9.8206302737     1.4210509096    15.3344550454
Ni     11.0495225962     3.5487545842    15.3375279371
Ni     12.2785095548     5.6778982973    15.3337663572
Ni     13.5066146395     7.8067436556    15.3312587014
Ni      1.2142632276     0.7128584362    17.3838448664
Ni      2.4441215263     2.8460837619    17.3883968940
Ni      3.6695898331     4.9733642399    17.3869198062
Ni      4.9015121309     7.1024426545    17.3831636469
Ni      3.6919523393     0.6997403779    17.3618611719
Ni      4.8935302287     2.8367845343    17.3806484624
Ni      6.1179890538     4.9878893188    17.3603511624
Ni      7.3574501536     7.1059450481    17.3825442167
Ni      6.1320902301     0.7067320621    17.3863823238
Ni      7.3664754612     2.8207177910    17.3470409925
Ni      8.5843740027     4.9747547474    17.3506762375
Ni      9.8202292673     7.1086283464    17.3739032682
Ni      8.5920934191     0.7081273467    17.3834925872
Ni      9.8208331188     2.8319845945    17.3795333168
Ni     11.0588024921     4.9776934717    17.3663387284
Ni     12.2787690434     7.1016381887    17.3818174617
O       8.0724976366     3.3098607048    21.2234235640
O       8.5634020083     5.2855599833    19.1712179144
O       9.7299943554     3.8220681569    23.6377293677
C       9.0446619059     4.3573795245    21.3861406912
C       9.5920983347     4.8552837651    20.0395541599
C      10.2050831944     3.9329260194    22.2823864544
H       8.4984738901     5.1704256339    21.8808434003
H      10.1836869294     4.0162955861    19.5826813505
H      10.3131993566     5.6795157193    20.2225667497
H      11.0167559215     4.6829076844    22.2165187198
H      10.6025945862     2.9646627449    21.9246683425
H       8.4489619730     2.6327753356    20.6227850087
H       6.1409785373     3.5409124871    18.3123151072
H      10.4635284763     3.5685240827    24.2002196139
O       2.5132788158     1.4366450056    18.7694060457
H       2.6481317347     1.4482491971    19.7792411751
80
Step 3 | NEB Image 3 | Cartesian Angstrom
Ni      1.2285173749     0.7093110333    11.2497979926
Ni      2.4571201660     2.8374327837    11.2496641236
Ni      3.6857598307     4.9655913805    11.2495741278
Ni      4.9144526896     7.0937471643    11.2495940418
Ni      3.6858158571     0.7092537860    11.2495986603
Ni      4.9144467843     2.8373991579    11.2494050591
Ni      6.1431226436     4.9655957651    11.2493320523
Ni      7.3718357557     7.0937749829    11.2494433516
Ni      6.1431920079     0.7091969473    11.2494610473
Ni      7.3718695695     2.8373596067    11.2492744378
Ni      8.6005701230     4.9655766157    11.2492682787
Ni      9.8292613930     7.0937577997    11.2494583778
Ni      8.6005983934     0.7091848724    11.2494817857
Ni      9.8293028493     2.8373538182    11.2493788339
Ni     11.0579880488     4.9655565349    11.2494391772
Ni     12.2866302087     7.0937126421    11.2496272233
Ni      9.8234169913     0.0020275918    13.3014829439
Ni     11.0522078074     2.1298788254    13.3035688096
Ni     12.2805384086     4.2570083128    13.3033768519
Ni     13.5096912237     6.3851843880    13.3025414227
Ni      2.4514671672     0.0019079232    13.3020176605
Ni      3.6798624841     2.1302051578    13.3029104298
Ni      4.9082439053     4.2580719762    13.3038371933
Ni      6.1368570034     6.3862266172    13.3017947070
Ni      4.9084829592     0.0013433587    13.3013059857
Ni      6.1371642891     2.1306048710    13.3037450290
Ni      7.3659585811     4.2582667987    13.3046750638
Ni      8.5943320444     6.3858661775    13.3029812401
Ni      7.3652389819     0.0017706746    13.3008627740
Ni      8.5944285491     2.1299788451    13.3025691812
Ni      9.8235427148     4.2571854758    13.3037716531
Ni     11.0521739726     6.3860187595    13.3019171798
Ni      2.4475644638     1.4221696642    15.3337551277
Ni      3.6750153333     3.5499824832    15.3349146799
Ni      4.9039558865     5.6793799532    15.3338552359
Ni      6.1335327120     7.8086023630    15.3310946054
Ni      4.9054711809     1.4208006508    15.3308696538
Ni      6.1328134154     3.5506925788    15.3321247040
Ni      7.3609176752     5.6802595199    15.3316696639
Ni      8.5912537459     7.8083961970    15.3313422313
Ni      7.3628492481     1.4196018250    15.3312329152
Ni      8.5922395291     3.5476435492    15.3319485978
Ni      9.8215732265     5.6791820212    15.3299826825
Ni     11.0498154508     7.8086528100    15.3315049156
Ni      9.8211539750     1.4205273294    15.3332214976
Ni     11.0502521112     3.5481915259    15.3361350960
Ni     12.2793879021     5.6779792556    15.3324629672
Ni     13.5070527122     7.8069736638    15.3307752820
Ni      1.2155262379     0.7137456052    17.3853859880
Ni      2.4432724752     2.8437225780    17.3899697228
Ni      3.6682526104     4.9750773532    17.3850710528
Ni      4.9007771973     7.1029437610    17.3823543642
Ni      3.6899904962     0.6997144172    17.3468240255
Ni      4.8852340952     2.8390224234    17.3568462127
Ni      6.1163776588     4.9861634200    17.3590446796
Ni      7.3548061503     7.1111135701    17.3728490043
Ni      6.1331710030     0.7007673094    17.3774271719
Ni      7.3724477604     2.8252512198    17.3370650004
Ni      8.5908957069     4.9651831093    17.3205692445
Ni      9.8238562238     7.1153130064    17.3626300098
Ni      8.5936273494     0.7043597363    17.3781878334
Ni      9.8245313140     2.8312945655    17.3759465168
Ni     11.0666325779     4.9716510143    17.3547293793
Ni     12.2819307092     7.1034128341    17.3789491941
O       8.6320554846     3.1168958846    20.4437910917
O       8.3519540466     5.6441609042    19.0338557394
O       9.2904393960     3.4163314142    23.2472676878
C       8.8136619829     4.3758539340    21.1024166589
C       9.2872617105     5.3961996518    20.0742223923
C       9.8420308227     4.2614222803    22.2188655829
H       7.8557353280     4.7128199026    21.5392652629
H      10.2492612269     5.0320478196    19.6512864986
H       9.4906864019     6.3533526519    20.5915525792
H      10.0826018926     5.2611547006    22.6185369798
H      10.7670667760     3.8131067337    21.8067768499
H       8.4549149492     2.4437052716    21.1320815247
H       6.0910416581     3.5792291281    18.2738662655
H       9.9606366715     3.2802859137    23.9276071717
O       2.4845191252     0.4847085464    18.8816737975
H       2.5093654938     1.2235454193    19.5210909391
80
Step 4 | NEB Image 4 | Cartesian Angstrom
Ni      1.2285523404     0.7093231108    11.2498471263
Ni      2.4571632251     2.8374381018    11.2497237206
Ni      3.6858108602     4.9655866627    11.2496466651
Ni      4.9144955874     7.0937238004    11.2496687783
Ni      3.6858439264     0.7092738667    11.2496724976
Ni      4.9144878145     2.8374100273    11.2494951057
Ni      6.1431652380     4.9655850297    11.2494358121
Ni      7.3718632662     7.0937445941    11.2495239183
Ni      6.1432086680     0.7092226481    11.2495346482
Ni      7.3718929312     2.8373712707    11.2493728151
Ni      8.6005889225     4.9655613336    11.2493626715
Ni      9.8292734050     7.0937309999    11.2495185057
Ni      8.6006024808     0.7092045192    11.2495341140
Ni      9.8293071431     2.8373589285    11.2494433462
Ni     11.0579925797     4.9655442065    11.2494950804
Ni     12.2866334702     7.0936957004    11.2496581018
Ni      9.8234219271     0.0020605083    13.3015321902
Ni     11.0522140790     2.1299023855    13.3036590670
Ni     12.2805355579     4.2569935644    13.3034986042
Ni     13.5096877822     6.3851450481    13.3026013672
Ni      2.4515347922     0.0019721703    13.3021894593
Ni      3.6799434151     2.1302225736    13.3030634796
Ni      4.9084218023     4.2580905046    13.3040458294
Ni      6.1369852243     6.3861387739    13.3020229837
Ni      4.9085036205     0.0014193834    13.3014612321
Ni      6.1372796244     2.1306844972    13.3039781799
Ni      7.3660793995     4.2582393397    13.3050092162
Ni      8.5944146419     6.3857557075    13.3031914691
Ni      7.3652667964     0.0018552021    13.3009698308
Ni      8.5944583545     2.1300466912    13.3027988099
Ni      9.8235786401     4.2571531915    13.3040192577
Ni     11.0522053452     6.3859335574    13.3020693783
Ni      2.4478514882     1.4220868275    15.3344762038
Ni      3.6751365338     3.5503014195    15.3346533498
Ni      4.9047242982     5.6791849081    15.3346575994
Ni      6.1337616300     7.8083130153    15.3312945543
Ni      4.9053361349     1.4207578237    15.3311368693
Ni      6.1340886170     3.5510488247    15.3332828018
Ni      7.3614400900     5.6795941300    15.3326493789
Ni      8.5915975393     7.8081097071    15.3314475680
Ni      7.3632987167     1.4205084828    15.3320620906
Ni      8.5922802560     3.5475301227    15.3333902121
Ni      9.8220418559     5.6786117340    15.3309235797
Ni     11.0500079191     7.8083734330    15.3316657652
Ni      9.8211534741     1.4207053565    15.3334861617
Ni     11.0503200394     3.5483528496    15.3369147340
Ni     12.2791953825     5.6776286007    15.3331799854
Ni     13.5070682218     7.8068504573    15.3308587243
Ni      1.2176191129     0.7142317631    17.3870096080
Ni      2.4432536690     2.8430933358    17.3888708824
Ni      3.6703458481     4.9760624638    17.3855667285
Ni      4.9019153264     7.1018301085    17.3828829743
Ni      3.6789522952     0.7070798373    17.3629370335
Ni      4.8894398375     2.8500186388    17.3413910411
Ni      6.1206417426     4.9776875973    17.3715325518
Ni      7.3563691973     7.1112273676    17.3697718049
Ni      6.1375585007     0.6985163061    17.3694413361
Ni      7.3714770235     2.8347011041    17.3601649358
Ni      8.6029344404     4.9568215049    17.3271105773
Ni      9.8272632951     7.1132297584    17.3614189496
Ni      8.5940469593     0.7055589294    17.3789808742
Ni      9.8257481676     2.8329431621    17.3769949262
Ni     11.0621153609     4.9680738219    17.3696661142
Ni     12.2821478427     7.1020385522    17.3795089345
O       9.1538293163     3.4462043625    20.0446719291
O       7.7700118046     5.7143971218    18.8614648465
O       8.9667554158     3.2862640908    22.8638167502
C       8.4587169232     4.4363241142    20.8344982656
C       8.4929543698     5.7640104491    20.0959932276
C       9.1168428433     4.5576274361    22.2022695878
H       7.4038652161     4.1255663975    20.9675601686
H       9.5506596450     6.0410586431    19.8879081549
H       8.0437465598     6.5469018853    20.7270482559
H       8.6318955813     5.3648381682    22.7867985606
H      10.1860883324     4.8056641524    22.0690183147
H       9.1040800606     2.5875008476    20.5482610328
H       6.1272165451     2.1394256778    18.2935624525
H       9.5118109106     3.2798032944    23.6562392132
O       2.4561774434     0.5063736140    18.9064479649
H       2.4625747141     1.2947960318    19.4922776629
80
Step 5 | NEB Image 5 | Cartesian Angstrom
Ni      1.2286497034     0.7093615225    11.2499999440
Ni      2.4572989609     2.8374461750    11.2499999440
Ni      3.6859482184     4.9655308275    11.2499999440
Ni      4.9145974759     7.0936154800    11.2499999440
Ni      3.6859497034     0.7093615225    11.2499999440
Ni      4.9145989609     2.8374461750    11.2499999440
Ni      6.1432482184     4.9655308275    11.2499999440
Ni      7.3718974759     7.0936154800    11.2499999440
Ni      6.1432497034     0.7093615225    11.2499999440
Ni      7.3718989609     2.8374461750    11.2499999440
Ni      8.6005482184     4.9655308275    11.2499999440
Ni      9.8291974759     7.0936154800    11.2499999440
Ni      8.6005497034     0.7093615225    11.2499999440
Ni      9.8291989609     2.8374461750    11.2499999440
Ni     11.0578482184     4.9655308275    11.2499999440
Ni     12.2864974759     7.0936154800    11.2499999440
Ni      9.8231926870     0.0024995631    13.3023446442
Ni     11.0518089676     2.1302240586    13.3047083557
Ni     12.2800508544     4.2570722939    13.3044621680
Ni     13.5092873083     6.3850384546    13.3032134512
Ni      2.4517696982     0.0021660497    13.3026623307
Ni      3.6803278881     2.1303359107    13.3041135630
Ni      4.9088074938     4.2579363814    13.3054287544
Ni      6.1372745671     6.3857877107    13.3032783798
Ni      4.9086517115     0.0018312594    13.3024060945
Ni      6.1374036838     2.1309748468    13.3056096270
Ni      7.3661495135     4.2582451239    13.3069522585
Ni      8.5943413203     6.3854189562    13.3048451696
Ni      7.3652044956     0.0023769003    13.3020219334
Ni      8.5942385662     2.1304695544    13.3043868044
Ni      9.8231946918     4.2572739512    13.3057506922
Ni     11.0517679695     6.3857120360    13.3033344194
Ni      2.4490339821     1.4222228929    15.3362210124
Ni      3.6772966574     3.5494520554    15.3385526461
Ni      4.9062018672     5.6779299780    15.3378106046
Ni      6.1346571942     7.8070606266    15.3335999053
Ni      4.9058225197     1.4219699914    15.3362206260
Ni      6.1346426084     3.5508505475    15.3401418518
Ni      7.3625330027     5.6784279498    15.3395242568
Ni      8.5915701206     7.8062468470    15.3354851546
Ni      7.3627071376     1.4224398724    15.3370388041
Ni      8.5913286772     3.5492677633    15.3408174188
Ni      9.8201850849     5.6778143804    15.3377746619
Ni     11.0486433115     7.8070023171    15.3347462049
Ni      9.8200953547     1.4222882677    15.3366654644
Ni     11.0486075444     3.5492992589    15.3407265960
Ni     12.2774144623     5.6772885732    15.3359640033
Ni     13.5061541972     7.8063455902    15.3319299253
Ni      1.2187910631     0.7145173608    17.3879334314
Ni      2.4472474227     2.8420654806    17.3934581627
Ni      3.6755426811     4.9714604374    17.3911199588
Ni      4.9045369929     7.0990999797    17.3858410289
Ni      3.6755273590     0.7130852450    17.3897672789
Ni      4.9037000473     2.8423806074    17.3934481142
Ni      6.1319553005     4.9726957480    17.3963328007
Ni      7.3614524743     7.0997441935    17.3897409983
Ni      6.1332850561     0.7119051795    17.3902534707
Ni      7.3623531846     2.8409773484    17.3961534740
Ni      8.5911690953     4.9716069348    17.3936888912
Ni      9.8197669951     7.1000577029    17.3889506467
Ni      8.5911411426     0.7131642395    17.3880087950
Ni      9.8198330590     2.8408219131    17.3957136598
Ni     11.0487030798     4.9704125685    17.3927698418
Ni     12.2763266601     7.0989938309    17.3852102935
O       9.3819344244     4.1358166692    20.0930362367
O       7.4403591999     5.7710500252    18.8010456662
O       8.6054614657     3.3490556865    22.7703843692
C       8.1664603160     4.5686069475    20.7700096311
C       7.7641571257     5.9228005922    20.1887078083
C       8.3912004598     4.6889035721    22.2787219386
H       7.3485584428     3.8274455412    20.5710354409
H       8.5939941550     6.6612606078    20.2727262356
H       6.8675792875     6.3118286823    20.7285291220
H       7.5127131407     5.1500412147    22.7730789076
H       9.2780443246     5.3384479547    22.4478370724
H       9.6348023466     3.2728259917    20.4951539629
H       4.4134518168     1.3599542848    19.7391102444
H       8.7500633813     3.3953291848    23.7317250903
O       3.5190441201     1.0401590876    20.0091886335
H       2.9303167551     1.7729858078    19.7218291788
