80
Step 1 | NEB Image 1 | Cartesian Angstrom
Ni      1.2286497034     0.7093615225    11.2499999440
Ni      2.4572989609     2.8374461750    11.2499999440
Ni      3.6859482184     4.9655308275    11.2499999440
Ni      4.9145974759     7.0936154800    11.2499999440
Ni      3.6859497034     0.7093615225    11.2499999440
Ni      4.9145989609     2.8374461750    11.2499999440
Ni      6.1432482184     4.9655308275    11.2499999440
Ni      7.3718974759     7.0936154800    11.2499999440
Ni      6.1432497034     0.7093615225    11.2499999440
Ni      7.3718989609     2.8374461750    11.2499999440
Ni      8.6005482184     4.9655308275    11.2499999440
Ni      9.8291974759     7.0936154800    11.2499999440
Ni      8.6005497034     0.7093615225    11.2499999440
Ni      9.8291989609     2.8374461750    11.2499999440
Ni     11.0578482184     4.9655308275    11.2499999440
Ni     12.2864974759     7.0936154800    11.2499999440
Ni      9.8231926870     0.0024995631    13.3023446442
Ni     11.0518089676     2.1302240586    13.3047083557
Ni     12.2800508544     4.2570722939    13.3044621680
Ni     13.5092873083     6.3850384546    13.3032134512
Ni      2.4517696982     0.0021660497    13.3026623307
Ni      3.6803278881     2.1303359107    13.3041135630
Ni      4.9088074938     4.2579363814    13.3054287544
Ni      6.1372745671     6.3857877107    13.3032783798
Ni      4.9086517115     0.0018312594    13.3024060945
Ni      6.1374036838     2.1309748468    13.3056096270
Ni      7.3661495135     4.2582451239    13.3069522585
Ni      8.5943413203     6.3854189562    13.3048451696
Ni      7.3652044956     0.0023769003    13.3020219334
Ni      8.5942385662     2.1304695544    13.3043868044
Ni      9.8231946918     4.2572739512    13.3057506922
Ni     11.0517679695     6.3857120360    13.3033344194
Ni      2.4490339821     1.4222228929    15.3362210124
Ni      3.6772966574     3.5494520554    15.3385526461
Ni      4.9062018672     5.6779299780    15.3378106046
Ni      6.1346571942     7.8070606266    15.3335999053
Ni      4.9058225197     1.4219699914    15.3362206260
Ni      6.1346426084     3.5508505475    15.3401418518
Ni      7.3625330027     5.6784279498    15.3395242568
Ni      8.5915701206     7.8062468470    15.3354851546
Ni      7.3627071376     1.4224398724    15.3370388041
Ni      8.5913286772     3.5492677633    15.3408174188
Ni      9.8201850849     5.6778143804    15.3377746619
Ni     11.0486433115     7.8070023171    15.3347462049
Ni      9.8200953547     1.4222882677    15.3366654644
Ni     11.0486075444     3.5492992589    15.3407265960
Ni     12.2774144623     5.6772885732    15.3359640033
Ni     13.5061541972     7.8063455902    15.3319299253
Ni      1.2187910631     0.7145173608    17.3879334314
Ni      2.4472474227     2.8420654806    17.3934581627
Ni      3.6755426811     4.9714604374    17.3911199588
Ni      4.9045369929     7.0990999797    17.3858410289
Ni      3.6755273590     0.7130852450    17.3897672789
Ni      4.9037000473     2.8423806074    17.3934481142
Ni      6.1319553005     4.9726957480    17.3963328007
Ni      7.3614524743     7.0997441935    17.3897409983
Ni      6.1332850561     0.7119051795    17.3902534707
Ni      7.3623531846     2.8409773484    17.3961534740
Ni      8.5911690953     4.9716069348    17.3936888912
Ni      9.8197669951     7.1000577029    17.3889506467
Ni      8.5911411426     0.7131642395    17.3880087950
Ni      9.8198330590     2.8408219131    17.3957136598
Ni     11.0487030798     4.9704125685    17.3927698418
Ni     12.2763266601     7.0989938309    17.3852102935
O       8.1853233808     3.4574048182    21.7117206478
O       8.5869329741     5.0599815235    19.5762271001
O      10.2109211163     3.6451020548    23.8826602062
C       9.3606393600     4.2890487236    21.7367471584
C       9.7574736302     4.6321502783    20.3055951979
C      10.5272793641     3.6720453941    22.4918474794
H       9.0423459569     5.1976070563    22.2680419510
H      10.2036708160     3.7499198429    19.8025973096
H      10.4835571337     5.4542343167    20.2475656164
H      11.4351836342     4.2717022800    22.2942344717
H      10.7115000118     2.6514065461    22.0984614952
H       8.4384371395     2.5707271966    21.3925898339
H       7.8511829079     4.4818016084    19.8831003151
H      11.0040911060     3.3843978098    24.3788521822
O       2.4676593393     1.4045078651    18.8058894197
H       2.5804189712     1.3115658959    19.7657035449
80
Step 2 | NEB Image 2 | Cartesian Angstrom
Ni      1.2285534654     0.7093197835    11.2498478942
Ni      2.4571691665     2.8374315309    11.2497533346
Ni      3.6858085291     4.9655719495    11.2496897287
Ni      4.9144910002     7.0937121097    11.2497097964
Ni      3.6858592064     0.7092809363    11.2497257151
Ni      4.9144904785     2.8374075910    11.2495919181
Ni      6.1431567623     4.9655768945    11.2495424921
Ni      7.3718508741     7.0937277900    11.2496328364
Ni      6.1432086647     0.7092476735    11.2496545741
Ni      7.3718722683     2.8373876236    11.2495264731
Ni      8.6005534827     4.9655679782    11.2495318003
Ni      9.8292271931     7.0937114706    11.2496659393
Ni      8.6005743039     0.7092489500    11.2496840694
Ni      9.8292544911     2.8373928316    11.2496170438
Ni     11.0579222161     4.9655552073    11.2496619167
Ni     12.2865663957     7.0936785653    11.2497822607
Ni      9.8233049461     0.0022181137    13.3018578651
Ni     11.0520177730     2.1300246438    13.3040220872
Ni     12.2803079328     4.2570661016    13.3038172727
Ni     13.5094912262     6.3851393461    13.3028372987
Ni      2.4515743055     0.0019637507    13.3022024710
Ni      3.6800252274     2.1302245968    13.3033036802
Ni      4.9083858893     4.2580056943    13.3043166584
Ni      6.1369799625     6.3861116237    13.3022661172
Ni      4.9085422836     0.0015026717    13.3017300113
Ni      6.1372062572     2.1306944000    13.3043979947
Ni      7.3659920844     4.2582785528    13.3054492358
Ni      8.5942993501     6.3857357387    13.3036998470
Ni      7.3652067534     0.0019846334    13.3013354332
Ni      8.5943237152     2.1301505833    13.3032397890
Ni      9.8233595902     4.2572631268    13.3045261184
Ni     11.0519615066     6.3859278809    13.3025014670
Ni      2.4482019514     1.4220904419    15.3342590830
Ni      3.6759760704     3.5495872730    15.3363500507
Ni      4.9043699580     5.6790296596    15.3347498412
Ni      6.1339525596     7.8081469236    15.3320844115
Ni      4.9056088131     1.4212381386    15.3332168013
Ni      6.1329159007     3.5504453173    15.3345403401
Ni      7.3615283045     5.6798802845    15.3345695254
Ni      8.5911858848     7.8075714710    15.3332087937
Ni      7.3625725042     1.4202612403    15.3333443639
Ni      8.5916834574     3.5485333669    15.3351530123
Ni      9.8205827243     5.6788733704    15.3332769652
Ni     11.0491352008     7.8080040522    15.3329397850
Ni      9.8205914234     1.4211119358    15.3345765674
Ni     11.0494631125     3.5487953928    15.3376873439
Ni     12.2784381454     5.6778756495    15.3338904043
Ni     13.5065817314     7.8067214415    15.3313001668
Ni      1.2143532440     0.7128736204    17.3839093506
Ni      2.4442558341     2.8460558827    17.3884907641
Ni      3.6698338767     4.9732322914    17.3871299539
Ni      4.9016384632     7.1023160912    17.3832821244
Ni      3.6915159502     0.7001628567    17.3633728796
Ni      4.8941992233     2.8368674040    17.3820506840
Ni      6.1184976326     4.9874819203    17.3615421355
Ni      7.3576873997     7.1055325238    17.3831779969
Ni      6.1320826410     0.7071455202    17.3868800598
Ni      7.3660948694     2.8211674364    17.3490101156
Ni      8.5843151104     4.9750566953    17.3532968552
Ni      9.8200625889     7.1080774189    17.3748511153
Ni      8.5919990303     0.7084443751    17.3838576275
Ni      9.8206464719     2.8322925839    17.3801946407
Ni     11.0581552624     4.9777169274    17.3676601304
Ni     12.2785593494     7.1014802759    17.3820448656
O       8.0794014184     3.3257610608    21.2347175936
O       8.5974786847     5.2979272961    19.1731247187
O       9.7576823922     3.8310957109    23.6367351098
C       9.0607725182     4.3519039502    21.3872908685
C       9.6169867178     4.8358060581    20.0350598112
C      10.2245246655     3.9128076769    22.2824472369
H       8.5388079790     5.1779147470    21.8817389174
H      10.1795532234     3.9831468244    19.5753028496
H      10.3610921660     5.6396255785    20.2128559712
H      11.0523402351     4.6416828660    22.1987995663
H      10.5944152656     2.9310666832    21.9314059032
H       8.4232594902     2.6550475046    20.6128545581
H       6.1434360671     3.5453313063    18.3138953512
H      10.4901994145     3.5747360628    24.2000821792
O       2.5166673817     1.4417682710    18.7891545202
H       2.6455277109     1.4563764849    19.7549799409
80
Step 3 | NEB Image 3 | Cartesian Angstrom
Ni      1.2285196556     0.7093115828    11.2498011424
Ni      2.4571232627     2.8374327011    11.2496697596
Ni      3.6857629063     4.9655901506    11.2495814328
Ni      4.9144551097     7.0937449497    11.2496013604
Ni      3.6858186013     0.7092555001    11.2496067017
Ni      4.9144495470     2.8373996878    11.2494168847
Ni      6.1431247996     4.9655945718    11.2493453706
Ni      7.3718367098     7.0937719980    11.2494553522
Ni      6.1431930611     0.7092001570    11.2494733096
Ni      7.3718697363     2.8373613803    11.2492904028
Ni      8.6005690640     4.9655760725    11.2492849764
Ni      9.8292592201     7.0937548668    11.2494715362
Ni      8.6005968635     0.7091889329    11.2494946115
Ni      9.8292997793     2.8373562932    11.2493939354
Ni     11.0579838692     4.9655564550    11.2494533018
Ni     12.2866261568     7.0937104833    11.2496370580
Ni      9.8234098751     0.0020396749    13.3015067345
Ni     11.0521957416     2.1298880764    13.3035975537
Ni     12.2805237757     4.2570119929    13.3034047847
Ni     13.5096785223     6.3851815379    13.3025601989
Ni      2.4514739549     0.0019114410    13.3020293456
Ni      3.6798727935     2.1302063749    13.3029353265
Ni      4.9082528696     4.2580677671    13.3038675246
Ni      6.1368647799     6.3862193535    13.3018245440
Ni      4.9084867174     0.0013534447    13.3013328682
Ni      6.1371669249     2.1306105208    13.3037863936
Ni      7.3659606853     4.2582675538    13.3047240939
Ni      8.5943299536     6.3858579286    13.3030267987
Ni      7.3652369292     0.0017842295    13.3008927527
Ni      8.5944218872     2.1299897244    13.3026116818
Ni      9.8235310807     4.2571904202    13.3038194809
Ni     11.0521604749     6.3860130115    13.3019542415
Ni      2.4476049143     1.4221645927    15.3337868570
Ni      3.6750762828     3.5499573329    15.3350056976
Ni      4.9039819147     5.6793578479    15.3339116416
Ni      6.1335593228     7.8085735574    15.3311573696
Ni      4.9054799080     1.4208283806    15.3310186000
Ni      6.1328196141     3.5506767505    15.3322775188
Ni      7.3609563816     5.6802356387    15.3318534475
Ni      8.5912493496     7.8083439126    15.3314607019
Ni      7.3628315928     1.4196434159    15.3313667151
Ni      8.5922041738     3.5477000927    15.3321516464
Ni      9.8215102048     5.6791625616    15.3301916780
Ni     11.0497722109     7.8086116737    15.3315959758
Ni      9.8211182338     1.4205643462    15.3333074207
Ni     11.0502020131     3.5482298972    15.3362333984
Ni     12.2793275958     5.6779727677    15.3325535023
Ni     13.5070227911     7.8069576684    15.3308085983
Ni      1.2154506714     0.7136897461    17.3852911583
Ni      2.4433345492     2.8438719703    17.3898745711
Ni      3.6683522528     4.9749601546    17.3852014500
Ni      4.9008315093     7.1029043895    17.3824129775
Ni      3.6900907211     0.6997405198    17.3478731751
Ni      4.8858033763     2.8388840810    17.3584496360
Ni      6.1165101443     4.9862502291    17.3591971511
Ni      7.3549889729     7.1107591477    17.3735057353
Ni      6.1331014372     0.7011727110    17.3780287075
Ni      7.3720437843     2.8249873042    17.3378169388
Ni      8.5904751934     4.9658127384    17.3226463642
Ni      9.8236146144     7.1148536146    17.3634058383
Ni      8.5935237853     0.7046190359    17.3785482180
Ni      9.8242839966     2.8313565202    17.3762141829
Ni     11.0660943624     4.9720388123    17.3555482968
Ni     12.2817163722     7.1032902016    17.3791457911
O       8.6196326239     3.1348751099    20.4311412979
O       8.4136898292     5.6772200491    19.0274207360
O       9.2938878776     3.4195533864    23.2409440398
C       8.8347559299     4.3857646820    21.0945696506
C       9.3362473813     5.3953833430    20.0685442668
C       9.8636511274     4.2461610713    22.2102682840
H       7.8847369488     4.7497509672    21.5342112793
H      10.2858287902     4.9995849128    19.6439190081
H       9.5676998427     6.3420329488    20.5869388963
H      10.1280798197     5.2418451544    22.6057991874
H      10.7731572602     3.7756124472    21.7952583463
H       8.4508494475     2.4605826977    21.1133650006
H       6.1007936584     3.5177757376    18.2877165533
H       9.9654448600     3.2735489168    23.9212464903
O       2.4893047184     0.4908855905    18.8773827381
H       2.5247489876     1.2166634165    19.5306219175
80
Step 4 | NEB Image 4 | Cartesian Angstrom
Ni      1.2285503702     0.7093223918    11.2498442419
Ni      2.4571606901     2.8374378430    11.2497196008
Ni      3.6858080145     4.9655872191    11.2496415359
Ni      4.9144932898     7.0937254157    11.2496637258
Ni      3.6858421624     0.7092725142    11.2496675182
Ni      4.9144855264     2.8374093695    11.2494883104
Ni      6.1431630830     4.9655858006    11.2494281029
Ni      7.3718620060     7.0937466085    11.2495176883
Ni      6.1432077671     0.7092207431    11.2495287610
Ni      7.3718920151     2.8373703264    11.2493649012
Ni      8.6005884918     4.9655621161    11.2493548469
Ni      9.8292734623     7.0937327831    11.2495130232
Ni      8.6006026801     0.7092027258    11.2495290301
Ni      9.8293077058     2.8373581533    11.2494371933
Ni     11.0579933740     4.9655447633    11.2494896048
Ni     12.2866342542     7.0936968740    11.2496546604
Ni      9.8234232647     0.0020563314    13.3015249231
Ni     11.0522165435     2.1298993530    13.3036486478
Ni     12.2805388913     4.2569936159    13.3034876062
Ni     13.5096905665     6.3851472386    13.3025950510
Ni      2.4515306885     0.0019684309    13.3021798269
Ni      3.6799377996     2.1302211279    13.3030506340
Ni      4.9084125201     4.2580908439    13.3040286042
Ni      6.1369784756     6.3861444616    13.3020059298
Ni      4.9085018478     0.0014137511    13.3014490947
Ni      6.1372744562     2.1306795255    13.3039584430
Ni      7.3660744041     4.2582403405    13.3049835890
Ni      8.5944120362     6.3857621233    13.3031725047
Ni      7.3652661656     0.0018485227    13.3009587832
Ni      8.5944587000     2.1300413003    13.3027795370
Ni      9.8235798487     4.2571536204    13.3039983736
Ni     11.0522070757     6.3859382420    13.3020552327
Ni      2.4478329412     1.4220888664    15.3344371963
Ni      3.6751175370     3.5502951279    15.3346367220
Ni      4.9046853367     5.6792008480    15.3346058597
Ni      6.1337470807     7.8083323546    15.3312715942
Ni      4.9053378549     1.4207512051    15.3310929326
Ni      6.1340369487     3.5510366202    15.3331927879
Ni      7.3614133332     5.6796270306    15.3325664776
Ni      8.5915847736     7.8081329151    15.3314166823
Ni      7.3632858115     1.4204613510    15.3319975954
Ni      8.5922849484     3.5475228782    15.3332863664
Ni      9.8220365296     5.6786384977    15.3308427441
Ni     11.0500097535     7.8083930363    15.3316391963
Ni      9.8211604704     1.4206879586    15.3334549020
Ni     11.0503289211     3.5483406737    15.3368598440
Ni     12.2792143397     5.6776440733    15.3331346906
Ni     13.5070736844     7.8068584230    15.3308484829
Ni      1.2175309314     0.7142105150    17.3869404613
Ni      2.4432267674     2.8431269107    17.3888774561
Ni      3.6702317965     4.9760565544    17.3855105326
Ni      4.9018547820     7.1018907753    17.3828429342
Ni      3.6793923778     0.7067610838    17.3621586561
Ni      4.8891896913     2.8496589362    17.3416243455
Ni      6.1204029572     4.9780426594    17.3708889910
Ni      7.3562772849     7.1112994092    17.3697551509
Ni      6.1374235345     0.6985115704    17.3696016482
Ni      7.3715719026     2.8342972165    17.3590537025
Ni      8.6025603887     4.9570396845    17.3264233640
Ni      9.8271852272     7.1133944501    17.3612801015
Ni      8.5940502990     0.7054638720    17.3788925841
Ni      9.8257407348     2.8328258533    17.3768258327
Ni     11.0623716326     4.9681978659    17.3689545787
Ni     12.2821777818     7.1021097952    17.3794504281
O       9.1378518487     3.4308928884    20.0524060138
O       7.7853053050     5.7178492248    18.8656600659
O       8.9740513101     3.2847904764    22.8612482686
C       8.4708871124     4.4354087328    20.8362146004
C       8.5175139715     5.7625874600    20.0928259353
C       9.1414000886     4.5501012272    22.1983661536
H       7.4114325961     4.1466371060    20.9790956668
H       9.5755338331     6.0218606876    19.8781114220
H       8.0842019426     6.5527077268    20.7237612926
H       8.6763388848     5.3655675303    22.7838577764
H      10.2113590034     4.7779262058    22.0533185094
H       9.0754497170     2.5911277448    20.5398059272
H       6.1260070478     2.1588757897    18.2928330478
H       9.5312022695     3.2704670556    23.6510410225
O       2.4728227134     0.5159758478    18.9101240064
H       2.4947652838     1.2906161365    19.5043179036
80
Step 5 | NEB Image 5 | Cartesian Angstrom
Ni      1.2286497034     0.7093615225    11.2499999440
Ni      2.4572989609     2.8374461750    11.2499999440
Ni      3.6859482184     4.9655308275    11.2499999440
Ni      4.9145974759     7.0936154800    11.2499999440
Ni      3.6859497034     0.7093615225    11.2499999440
Ni      4.9145989609     2.8374461750    11.2499999440
Ni      6.1432482184     4.9655308275    11.2499999440
Ni      7.3718974759     7.0936154800    11.2499999440
Ni      6.1432497034     0.7093615225    11.2499999440
Ni      7.3718989609     2.8374461750    11.2499999440
Ni      8.6005482184     4.9655308275    11.2499999440
Ni      9.8291974759     7.0936154800    11.2499999440
Ni      8.6005497034     0.7093615225    11.2499999440
Ni      9.8291989609     2.8374461750    11.2499999440
Ni     11.0578482184     4.9655308275    11.2499999440
Ni     12.2864974759     7.0936154800    11.2499999440
Ni      9.8231926870     0.0024995631    13.3023446442
Ni     11.0518089676     2.1302240586    13.3047083557
Ni     12.2800508544     4.2570722939    13.3044621680
Ni     13.5092873083     6.3850384546    13.3032134512
Ni      2.4517696982     0.0021660497    13.3026623307
Ni      3.6803278881     2.1303359107    13.3041135630
Ni      4.9088074938     4.2579363814    13.3054287544
Ni      6.1372745671     6.3857877107    13.3032783798
Ni      4.9086517115     0.0018312594    13.3024060945
Ni      6.1374036838     2.1309748468    13.3056096270
Ni      7.3661495135     4.2582451239    13.3069522585
Ni      8.5943413203     6.3854189562    13.3048451696
Ni      7.3652044956     0.0023769003    13.3020219334
Ni      8.5942385662     2.1304695544    13.3043868044
Ni      9.8231946918     4.2572739512    13.3057506922
Ni     11.0517679695     6.3857120360    13.3033344194
Ni      2.4490339821     1.4222228929    15.3362210124
Ni      3.6772966574     3.5494520554    15.3385526461
Ni      4.9062018672     5.6779299780    15.3378106046
Ni      6.1346571942     7.8070606266    15.3335999053
Ni      4.9058225197     1.4219699914    15.3362206260
Ni      6.1346426084     3.5508505475    15.3401418518
Ni      7.3625330027     5.6784279498    15.3395242568
Ni      8.5915701206     7.8062468470    15.3354851546
Ni      7.3627071376     1.4224398724    15.3370388041
Ni      8.5913286772     3.5492677633    15.3408174188
Ni      9.8201850849     5.6778143804    15.3377746619
Ni     11.0486433115     7.8070023171    15.3347462049
Ni      9.8200953547     1.4222882677    15.3366654644
Ni     11.0486075444     3.5492992589    15.3407265960
Ni     12.2774144623     5.6772885732    15.3359640033
Ni     13.5061541972     7.8063455902    15.3319299253
Ni      1.2187910631     0.7145173608    17.3879334314
Ni      2.4472474227     2.8420654806    17.3934581627
Ni      3.6755426811     4.9714604374    17.3911199588
Ni      4.9045369929     7.0990999797    17.3858410289
Ni      3.6755273590     0.7130852450    17.3897672789
Ni      4.9037000473     2.8423806074    17.3934481142
Ni      6.1319553005     4.9726957480    17.3963328007
Ni      7.3614524743     7.0997441935    17.3897409983
Ni      6.1332850561     0.7119051795    17.3902534707
Ni      7.3623531846     2.8409773484    17.3961534740
Ni      8.5911690953     4.9716069348    17.3936888912
Ni      9.8197669951     7.1000577029    17.3889506467
Ni      8.5911411426     0.7131642395    17.3880087950
Ni      9.8198330590     2.8408219131    17.3957136598
Ni     11.0487030798     4.9704125685    17.3927698418
Ni     12.2763266601     7.0989938309    17.3852102935
O       9.3819344244     4.1358166692    20.0930362367
O       7.4403591999     5.7710500252    18.8010456662
O       8.6054614657     3.3490556865    22.7703843692
C       8.1664603160     4.5686069475    20.7700096311
C       7.7641571257     5.9228005922    20.1887078083
C       8.3912004598     4.6889035721    22.2787219386
H       7.3485584428     3.8274455412    20.5710354409
H       8.5939941550     6.6612606078    20.2727262356
H       6.8675792875     6.3118286823    20.7285291220
H       7.5127131407     5.1500412147    22.7730789076
H       9.2780443246     5.3384479547    22.4478370724
H       9.6348023466     3.2728259917    20.4951539629
H       4.4134518168     1.3599542848    19.7391102444
H       8.7500633813     3.3953291848    23.7317250903
O       3.5190441201     1.0401590876    20.0091886335
H       2.9303167551     1.7729858078    19.7218291788
