80
Step 1 | NEB Image 1 | Cartesian Angstrom
Ni      1.2286497034     0.7093615225    11.2499999440
Ni      2.4572989609     2.8374461750    11.2499999440
Ni      3.6859482184     4.9655308275    11.2499999440
Ni      4.9145974759     7.0936154800    11.2499999440
Ni      3.6859497034     0.7093615225    11.2499999440
Ni      4.9145989609     2.8374461750    11.2499999440
Ni      6.1432482184     4.9655308275    11.2499999440
Ni      7.3718974759     7.0936154800    11.2499999440
Ni      6.1432497034     0.7093615225    11.2499999440
Ni      7.3718989609     2.8374461750    11.2499999440
Ni      8.6005482184     4.9655308275    11.2499999440
Ni      9.8291974759     7.0936154800    11.2499999440
Ni      8.6005497034     0.7093615225    11.2499999440
Ni      9.8291989609     2.8374461750    11.2499999440
Ni     11.0578482184     4.9655308275    11.2499999440
Ni     12.2864974759     7.0936154800    11.2499999440
Ni      9.8231926870     0.0024995631    13.3023446442
Ni     11.0518089676     2.1302240586    13.3047083557
Ni     12.2800508544     4.2570722939    13.3044621680
Ni     13.5092873083     6.3850384546    13.3032134512
Ni      2.4517696982     0.0021660497    13.3026623307
Ni      3.6803278881     2.1303359107    13.3041135630
Ni      4.9088074938     4.2579363814    13.3054287544
Ni      6.1372745671     6.3857877107    13.3032783798
Ni      4.9086517115     0.0018312594    13.3024060945
Ni      6.1374036838     2.1309748468    13.3056096270
Ni      7.3661495135     4.2582451239    13.3069522585
Ni      8.5943413203     6.3854189562    13.3048451696
Ni      7.3652044956     0.0023769003    13.3020219334
Ni      8.5942385662     2.1304695544    13.3043868044
Ni      9.8231946918     4.2572739512    13.3057506922
Ni     11.0517679695     6.3857120360    13.3033344194
Ni      2.4490339821     1.4222228929    15.3362210124
Ni      3.6772966574     3.5494520554    15.3385526461
Ni      4.9062018672     5.6779299780    15.3378106046
Ni      6.1346571942     7.8070606266    15.3335999053
Ni      4.9058225197     1.4219699914    15.3362206260
Ni      6.1346426084     3.5508505475    15.3401418518
Ni      7.3625330027     5.6784279498    15.3395242568
Ni      8.5915701206     7.8062468470    15.3354851546
Ni      7.3627071376     1.4224398724    15.3370388041
Ni      8.5913286772     3.5492677633    15.3408174188
Ni      9.8201850849     5.6778143804    15.3377746619
Ni     11.0486433115     7.8070023171    15.3347462049
Ni      9.8200953547     1.4222882677    15.3366654644
Ni     11.0486075444     3.5492992589    15.3407265960
Ni     12.2774144623     5.6772885732    15.3359640033
Ni     13.5061541972     7.8063455902    15.3319299253
Ni      1.2187910631     0.7145173608    17.3879334314
Ni      2.4472474227     2.8420654806    17.3934581627
Ni      3.6755426811     4.9714604374    17.3911199588
Ni      4.9045369929     7.0990999797    17.3858410289
Ni      3.6755273590     0.7130852450    17.3897672789
Ni      4.9037000473     2.8423806074    17.3934481142
Ni      6.1319553005     4.9726957480    17.3963328007
Ni      7.3614524743     7.0997441935    17.3897409983
Ni      6.1332850561     0.7119051795    17.3902534707
Ni      7.3623531846     2.8409773484    17.3961534740
Ni      8.5911690953     4.9716069348    17.3936888912
Ni      9.8197669951     7.1000577029    17.3889506467
Ni      8.5911411426     0.7131642395    17.3880087950
Ni      9.8198330590     2.8408219131    17.3957136598
Ni     11.0487030798     4.9704125685    17.3927698418
Ni     12.2763266601     7.0989938309    17.3852102935
O       8.1853233808     3.4574048182    21.7117206478
O       8.5869329741     5.0599815235    19.5762271001
O      10.2109211163     3.6451020548    23.8826602062
C       9.3606393600     4.2890487236    21.7367471584
C       9.7574736302     4.6321502783    20.3055951979
C      10.5272793641     3.6720453941    22.4918474794
H       9.0423459569     5.1976070563    22.2680419510
H      10.2036708160     3.7499198429    19.8025973096
H      10.4835571337     5.4542343167    20.2475656164
H      11.4351836342     4.2717022800    22.2942344717
H      10.7115000118     2.6514065461    22.0984614952
H       8.4384371395     2.5707271966    21.3925898339
H       7.8511829079     4.4818016084    19.8831003151
H      11.0040911060     3.3843978098    24.3788521822
O       2.4676593393     1.4045078651    18.8058894197
H       2.5804189712     1.3115658959    19.7657035449
80
Step 2 | NEB Image 2 | Cartesian Angstrom
Ni      1.2287304319     0.7093919211    11.2501227908
Ni      2.4574081419     2.8374538897    11.2502052035
Ni      3.6860628922     4.9654934085    11.2502604839
Ni      4.9146856097     7.0935349858    11.2502486604
Ni      3.6860320902     0.7094272280    11.2502469083
Ni      4.9146919683     2.8374745151    11.2503663240
Ni      6.1433246246     4.9654909821    11.2504112890
Ni      7.3719347553     7.0935176197    11.2503440657
Ni      6.1432849511     0.7094627829    11.2503340735
Ni      7.3719161211     2.8374995906    11.2504490646
Ni      8.6005334458     4.9655032871    11.2504537729
Ni      9.8291564648     7.0935277955    11.2503371256
Ni      8.6005187327     0.7094711954    11.2503229725
Ni      9.8291332292     2.8375040898    11.2503867541
Ni     11.0577597074     4.9655157418    11.2503498763
Ni     12.2864133659     7.0935553811    11.2502332550
Ni      9.8230502027     0.0027946323    13.3028858972
Ni     11.0515564493     2.1304404546    13.3054199895
Ni     12.2797425376     4.2571154116    13.3051399531
Ni     13.5090311313     6.3849489948    13.3036354270
Ni      2.4519566126     0.0023223594    13.3030563569
Ni      3.6806157231     2.1304146413    13.3048564521
Ni      4.9091497286     4.2578500562    13.3064078800
Ni      6.1375297184     6.3855197818    13.3041925337
Ni      4.9087562817     0.0021322226    13.3030905600
Ni      6.1375466818     2.1311999520    13.3067647412
Ni      7.3662629809     4.2582338498    13.3083599854
Ni      8.5943423463     6.3851452446    13.3060059556
Ni      7.3651807594     0.0027524207    13.3027464944
Ni      8.5941165161     2.1307734072    13.3055156798
Ni      9.8229722524     4.2573336243    13.3069819419
Ni     11.0515087854     6.3855243834    13.3042204130
Ni      2.4499527365     1.4222493319    15.3377095560
Ni      3.6787270749     3.5490977603    15.3408346684
Ni      4.9075515629     5.6770454408    15.3402128334
Ni      6.1353542405     7.8061146932    15.3351638320
Ni      4.9060450516     1.4227006213    15.3395840916
Ni      6.1357086255     3.5509157544    15.3450718496
Ni      7.3635310279     5.6773245282    15.3444029468
Ni      8.5917446914     7.8049095408    15.3380955456
Ni      7.3625902451     1.4241582929    15.3406401252
Ni      8.5907410322     3.5503077839    15.3463132997
Ni      9.8192690513     5.6769897674    15.3426507269
Ni     11.0478872677     7.8059752820    15.3367847248
Ni      9.8194204928     1.4233772845    15.3388150814
Ni     11.0475650001     3.5500034650    15.3435620985
Ni     12.2761687423     5.6768778619    15.3381444092
Ni     13.5055816317     7.8059546519    15.3326567487
Ni      1.2205817291     0.7148900636    17.3892829102
Ni      2.4496854865     2.8412961517    17.3954199060
Ni      3.6799519504     4.9691412236    17.3948674656
Ni      4.9068137536     7.0967929275    17.3879741018
Ni      3.6673172807     0.7208915275    17.4162814009
Ni      4.9153144120     2.8439620401    17.4175866738
Ni      6.1412739493     4.9650054626    17.4183725544
Ni      7.3656022639     7.0925332045    17.4006875661
Ni      6.1331706538     0.7190904962    17.3988173993
Ni      7.3558532003     2.8497491884    17.4316932098
Ni      8.5905249979     4.9764231906    17.4396469808
Ni      9.8169526381     7.0904490512    17.4056039726
Ni      8.5895214509     0.7187020812    17.3942920643
Ni      9.8166947367     2.8465152238    17.4077600095
Ni     11.0374543307     4.9702695485    17.4160958625
Ni     12.2727160900     7.0962400814    17.3891706371
O       8.3652908000     3.5542426604    22.4128017692
O       8.5475911509     4.3882816936    19.5433183976
O      11.0978353948     3.9637603469    23.7942272104
C       9.6189851275     4.0127130061    21.8615439113
C       9.6378197996     3.8000872472    20.2910288935
C      10.8233698930     3.2836375115    22.5449382881
H       9.7298161439     5.0729877303    22.1659806213
H       9.6724850791     2.7001394890    20.0972814947
H      10.5705799170     4.2316073490    19.8629000123
H      11.7228247052     3.3000507711    21.8810479702
H      10.5081784888     2.2285792380    22.7006704955
H       8.0159279059     2.9365227381    21.7377210469
H       7.2838758796     4.2266059329    18.7348513538
H      11.8829875323     3.6080017897    24.2545134874
O       2.5208441569     1.6511589672    18.8560855024
H       2.6481348017     1.7024493471    19.8211162666
80
Step 3 | NEB Image 3 | Cartesian Angstrom
Ni      1.2286195712     0.7093464338    11.2499502685
Ni      2.4572584393     2.8374396005    11.2499219189
Ni      3.6859033927     4.9655424679    11.2499028040
Ni      4.9145636392     7.0936460237    11.2499113040
Ni      3.6859241694     0.7093354322    11.2499213571
Ni      4.9145658752     2.8374323299    11.2498824706
Ni      6.1432194830     4.9655447500    11.2498685052
Ni      7.3718821354     7.0936490941    11.2499005554
Ni      6.1432372189     0.7093283252    11.2499109534
Ni      7.3718883772     2.8374296788    11.2498740440
Ni      8.6005454350     4.9655440301    11.2498796997
Ni      9.8291998634     7.0936424461    11.2499199564
Ni      8.6005529550     0.7093328327    11.2499260878
Ni      9.8292081012     2.8374351529    11.2499083471
Ni     11.0578599939     4.9655407837    11.2499227579
Ni     12.2865077114     7.0936321283    11.2499536845
Ni      9.8232069705     0.0024368593    13.3022496274
Ni     11.0518409695     2.1301828239    13.3045520849
Ni     12.2800913387     4.2570868024    13.3043193981
Ni     13.5093143592     6.3850679319    13.3031417335
Ni      2.4517185263     0.0020968468    13.3025219694
Ni      3.6802477975     2.1302945966    13.3038871181
Ni      4.9086706075     4.2579459766    13.3050999640
Ni      6.1371858990     6.3858908864    13.3029892292
Ni      4.9086229412     0.0017392445    13.3022451608
Ni      6.1373321878     2.1308825386    13.3052898971
Ni      7.3660923661     4.2582628334    13.3065448383
Ni      8.5943135498     6.3855146835    13.3045728919
Ni      7.3651957999     0.0022740967    13.3018711961
Ni      8.5942434132     2.1303853030    13.3040995556
Ni      9.8232100579     4.2572924536    13.3054553676
Ni     11.0517867858     6.3857767215    13.3031545953
Ni      2.4488695511     1.4221440721    15.3355383196
Ni      3.6770223159     3.5493908993    15.3380481701
Ni      4.9055472710     5.6782915626    15.3367791687
Ni      6.1344826075     7.8073860319    15.3332515127
Ni      4.9057736505     1.4217905120    15.3356443856
Ni      6.1339379011     3.5506048463    15.3384854046
Ni      7.3622866069     5.6789321679    15.3382843994
Ni      8.5913862560     7.8065638530    15.3350748743
Ni      7.3625664189     1.4217106692    15.3360988306
Ni      8.5913141172     3.5492209912    15.3393656521
Ni      9.8200582819     5.6781729963    15.3368441471
Ni     11.0486491905     7.8072349765    15.3344065581
Ni      9.8201386979     1.4219635475    15.3361825840
Ni     11.0487354039     3.5492639923    15.3398983305
Ni     12.2775671543     5.6775074670    15.3355066143
Ni     13.5061955566     7.8064303798    15.3318186501
Ni      1.2165622534     0.7135642478    17.3857919925
Ni      2.4462755374     2.8444403231    17.3909319795
Ni      3.6735900929     4.9716586644    17.3900415000
Ni      4.9035624502     7.1002772749    17.3850324838
Ni      3.6827785902     0.7077284873    17.3834315884
Ni      4.9023149358     2.8393630514    17.3961531967
Ni      6.1268815911     4.9793656092    17.3823289156
Ni      7.3607060209     7.1005392869    17.3900346846
Ni      6.1324343941     0.7117900794    17.3916593464
Ni      7.3620627459     2.8313675433    17.3796710292
Ni      8.5862752190     4.9760172485    17.3862690961
Ni      9.8187553336     7.1013173130    17.3866135450
Ni      8.5910206188     0.7123718081    17.3879259077
Ni      9.8190241166     2.8375096874    17.3904144759
Ni     11.0502131467     4.9753014588    17.3859149087
Ni     12.2762730135     7.0994797451    17.3847851729
O       8.3773036364     3.4484696864    20.7958212303
O       9.1142270607     5.5907566172    19.0839637016
O       9.8660906057     3.7086725190    23.4577549643
C       9.3741232987     4.3840649616    21.2134822410
C      10.0151995516     4.8748688056    19.9230348227
C      10.4384855598     3.7922517059    22.1429220788
H       8.9211654506     5.2512420626    21.7373717419
H      10.4071758023     3.9520773771    19.4074013404
H      10.8806266046     5.5158766805    20.1549579318
H      11.3371590434     4.4399887706    22.1452327541
H      10.7389759361     2.7900383149    21.7797202097
H       8.0381412921     2.9255947094    21.5347707799
H       6.2332539805     3.6187099500    18.3641693380
H      10.5458225892     3.3706188527    24.0632029278
O       2.4884980200     0.6548204887    18.9122661122
H       2.5667869605     1.3632906429    19.5796817323
80
Step 4 | NEB Image 4 | Cartesian Angstrom
Ni      1.2285408695     0.7093181630    11.2498300579
Ni      2.4571492431     2.8374353247    11.2497043578
Ni      3.6857935486     4.9655873617    11.2496236792
Ni      4.9144811695     7.0937313764    11.2496460284
Ni      3.6858362692     0.7092670203    11.2496525741
Ni      4.9144747779     2.8374056098    11.2494720831
Ni      6.1431510218     4.9655881695    11.2494091606
Ni      7.3718536369     7.0937535472    11.2495066329
Ni      6.1432033561     0.7092158060    11.2495214933
Ni      7.3718838338     2.8373685926    11.2493536347
Ni      8.6005800340     4.9655671986    11.2493469095
Ni      9.8292654107     7.0937380248    11.2495127864
Ni      8.6005985652     0.7092019088    11.2495312142
Ni      9.8293009573     2.8373604898    11.2494383807
Ni     11.0579845416     4.9655495271    11.2494929702
Ni     12.2866259378     7.0936995260    11.2496603163
Ni      9.8234085496     0.0020643112    13.3015484156
Ni     11.0521930302     2.1299066540    13.3036631041
Ni     12.2805138888     4.2570072843    13.3034916467
Ni     13.5096683783     6.3851569126    13.3026071638
Ni      2.4515178681     0.0019482386    13.3021348815
Ni      3.6799250697     2.1302139749    13.3030302206
Ni      4.9083604045     4.2580772541    13.3039914292
Ni      6.1369445831     6.3861678979    13.3019653532
Ni      4.9085000806     0.0014009634    13.3014384768
Ni      6.1372358758     2.1306564920    13.3039368504
Ni      7.3660343924     4.2582524183    13.3049366901
Ni      8.5943785826     6.3857900603    13.3031714876
Ni      7.3652522094     0.0018390385    13.3009709261
Ni      8.5944360206     2.1300335161    13.3027645874
Ni      9.8235460853     4.2571758806    13.3039877569
Ni     11.0521713019     6.3859601443    13.3020645303
Ni      2.4478074992     1.4220972821    15.3342039724
Ni      3.6751762728     3.5501355926    15.3348567634
Ni      4.9044280687     5.6792537018    15.3343627279
Ni      6.1337109724     7.8083981612    15.3313015373
Ni      4.9053941274     1.4208039264    15.3312550078
Ni      6.1335719438     3.5508660358    15.3329712497
Ni      7.3613008860     5.6798409061    15.3325063014
Ni      8.5914476144     7.8081490110    15.3315846525
Ni      7.3630919637     1.4201842706    15.3319129950
Ni      8.5921982399     3.5476701269    15.3330967931
Ni      9.8217452261     5.6788166336    15.3308769275
Ni     11.0498603516     7.8084213373    15.3317403323
Ni      9.8210918700     1.4206746453    15.3334982120
Ni     11.0502173849     3.5483639393    15.3367295673
Ni     12.2791677956     5.6777646369    15.3330450668
Ni     13.5070116529     7.8068735364    15.3308788876
Ni      1.2164871503     0.7138469795    17.3860161907
Ni      2.4432640461     2.8438671665    17.3887865443
Ni      3.6695730296     4.9755211234    17.3855121635
Ni      4.9015054405     7.1022827403    17.3827138978
Ni      3.6838450801     0.7039289504    17.3585190935
Ni      4.8888697283     2.8455581057    17.3501157041
Ni      6.1188091885     4.9815902010    17.3658243257
Ni      7.3560768544     7.1106170294    17.3721112474
Ni      6.1357926919     0.7000493960    17.3735262952
Ni      7.3710288522     2.8297868029    17.3515716461
Ni      8.5973646941     4.9614374981    17.3278427066
Ni      9.8255010261     7.1132468729    17.3630232182
Ni      8.5936924789     0.7055316922    17.3793667690
Ni      9.8247662076     2.8320987846    17.3765158778
Ni     11.0628671003     4.9706164789    17.3651702646
Ni     12.2816650596     7.1023471300    17.3796310393
O       8.9775616016     3.3253765719    20.0310198572
O       8.1113995880     5.8259748920    18.9146536632
O       9.1215415492     3.2684624455    22.8686336891
C       8.6906376001     4.4638446507    20.8537031084
C       8.9707136533     5.7201547707    20.0456881988
C       9.5328519648     4.4201527819    22.1179785506
H       7.6242164586     4.4585203118    21.1318386051
H      10.0263513509     5.6987856890    19.7145264680
H       8.8206936559     6.6038372437    20.6802386255
H       9.3825566724     5.3413651959    22.7013943256
H      10.5943611424     4.3421684057    21.8386375444
H       8.7465992909     2.5283765182    20.5395666631
H       6.1341724180     2.2072712990    18.3020694922
H       9.7540328655     3.1316506109    23.5924782051
O       2.4739035850     0.5069428899    18.9024681475
H       2.4762882064     1.2658778430    19.5174961429
80
Step 5 | NEB Image 5 | Cartesian Angstrom
Ni      1.2286497034     0.7093615225    11.2499999440
Ni      2.4572989609     2.8374461750    11.2499999440
Ni      3.6859482184     4.9655308275    11.2499999440
Ni      4.9145974759     7.0936154800    11.2499999440
Ni      3.6859497034     0.7093615225    11.2499999440
Ni      4.9145989609     2.8374461750    11.2499999440
Ni      6.1432482184     4.9655308275    11.2499999440
Ni      7.3718974759     7.0936154800    11.2499999440
Ni      6.1432497034     0.7093615225    11.2499999440
Ni      7.3718989609     2.8374461750    11.2499999440
Ni      8.6005482184     4.9655308275    11.2499999440
Ni      9.8291974759     7.0936154800    11.2499999440
Ni      8.6005497034     0.7093615225    11.2499999440
Ni      9.8291989609     2.8374461750    11.2499999440
Ni     11.0578482184     4.9655308275    11.2499999440
Ni     12.2864974759     7.0936154800    11.2499999440
Ni      9.8231926870     0.0024995631    13.3023446442
Ni     11.0518089676     2.1302240586    13.3047083557
Ni     12.2800508544     4.2570722939    13.3044621680
Ni     13.5092873083     6.3850384546    13.3032134512
Ni      2.4517696982     0.0021660497    13.3026623307
Ni      3.6803278881     2.1303359107    13.3041135630
Ni      4.9088074938     4.2579363814    13.3054287544
Ni      6.1372745671     6.3857877107    13.3032783798
Ni      4.9086517115     0.0018312594    13.3024060945
Ni      6.1374036838     2.1309748468    13.3056096270
Ni      7.3661495135     4.2582451239    13.3069522585
Ni      8.5943413203     6.3854189562    13.3048451696
Ni      7.3652044956     0.0023769003    13.3020219334
Ni      8.5942385662     2.1304695544    13.3043868044
Ni      9.8231946918     4.2572739512    13.3057506922
Ni     11.0517679695     6.3857120360    13.3033344194
Ni      2.4490339821     1.4222228929    15.3362210124
Ni      3.6772966574     3.5494520554    15.3385526461
Ni      4.9062018672     5.6779299780    15.3378106046
Ni      6.1346571942     7.8070606266    15.3335999053
Ni      4.9058225197     1.4219699914    15.3362206260
Ni      6.1346426084     3.5508505475    15.3401418518
Ni      7.3625330027     5.6784279498    15.3395242568
Ni      8.5915701206     7.8062468470    15.3354851546
Ni      7.3627071376     1.4224398724    15.3370388041
Ni      8.5913286772     3.5492677633    15.3408174188
Ni      9.8201850849     5.6778143804    15.3377746619
Ni     11.0486433115     7.8070023171    15.3347462049
Ni      9.8200953547     1.4222882677    15.3366654644
Ni     11.0486075444     3.5492992589    15.3407265960
Ni     12.2774144623     5.6772885732    15.3359640033
Ni     13.5061541972     7.8063455902    15.3319299253
Ni      1.2187910631     0.7145173608    17.3879334314
Ni      2.4472474227     2.8420654806    17.3934581627
Ni      3.6755426811     4.9714604374    17.3911199588
Ni      4.9045369929     7.0990999797    17.3858410289
Ni      3.6755273590     0.7130852450    17.3897672789
Ni      4.9037000473     2.8423806074    17.3934481142
Ni      6.1319553005     4.9726957480    17.3963328007
Ni      7.3614524743     7.0997441935    17.3897409983
Ni      6.1332850561     0.7119051795    17.3902534707
Ni      7.3623531846     2.8409773484    17.3961534740
Ni      8.5911690953     4.9716069348    17.3936888912
Ni      9.8197669951     7.1000577029    17.3889506467
Ni      8.5911411426     0.7131642395    17.3880087950
Ni      9.8198330590     2.8408219131    17.3957136598
Ni     11.0487030798     4.9704125685    17.3927698418
Ni     12.2763266601     7.0989938309    17.3852102935
O       9.3819344244     4.1358166692    20.0930362367
O       7.4403591999     5.7710500252    18.8010456662
O       8.6054614657     3.3490556865    22.7703843692
C       8.1664603160     4.5686069475    20.7700096311
C       7.7641571257     5.9228005922    20.1887078083
C       8.3912004598     4.6889035721    22.2787219386
H       7.3485584428     3.8274455412    20.5710354409
H       8.5939941550     6.6612606078    20.2727262356
H       6.8675792875     6.3118286823    20.7285291220
H       7.5127131407     5.1500412147    22.7730789076
H       9.2780443246     5.3384479547    22.4478370724
H       9.6348023466     3.2728259917    20.4951539629
H       4.4134518168     1.3599542848    19.7391102444
H       8.7500633813     3.3953291848    23.7317250903
O       3.5190441201     1.0401590876    20.0091886335
H       2.9303167551     1.7729858078    19.7218291788
