80
Step 1 | NEB Image 1 | Cartesian Angstrom
Ni      1.2286497034     0.7093615225    11.2499999440
Ni      2.4572989609     2.8374461750    11.2499999440
Ni      3.6859482184     4.9655308275    11.2499999440
Ni      4.9145974759     7.0936154800    11.2499999440
Ni      3.6859497034     0.7093615225    11.2499999440
Ni      4.9145989609     2.8374461750    11.2499999440
Ni      6.1432482184     4.9655308275    11.2499999440
Ni      7.3718974759     7.0936154800    11.2499999440
Ni      6.1432497034     0.7093615225    11.2499999440
Ni      7.3718989609     2.8374461750    11.2499999440
Ni      8.6005482184     4.9655308275    11.2499999440
Ni      9.8291974759     7.0936154800    11.2499999440
Ni      8.6005497034     0.7093615225    11.2499999440
Ni      9.8291989609     2.8374461750    11.2499999440
Ni     11.0578482184     4.9655308275    11.2499999440
Ni     12.2864974759     7.0936154800    11.2499999440
Ni      9.8231926870     0.0024995631    13.3023446442
Ni     11.0518089676     2.1302240586    13.3047083557
Ni     12.2800508544     4.2570722939    13.3044621680
Ni     13.5092873083     6.3850384546    13.3032134512
Ni      2.4517696982     0.0021660497    13.3026623307
Ni      3.6803278881     2.1303359107    13.3041135630
Ni      4.9088074938     4.2579363814    13.3054287544
Ni      6.1372745671     6.3857877107    13.3032783798
Ni      4.9086517115     0.0018312594    13.3024060945
Ni      6.1374036838     2.1309748468    13.3056096270
Ni      7.3661495135     4.2582451239    13.3069522585
Ni      8.5943413203     6.3854189562    13.3048451696
Ni      7.3652044956     0.0023769003    13.3020219334
Ni      8.5942385662     2.1304695544    13.3043868044
Ni      9.8231946918     4.2572739512    13.3057506922
Ni     11.0517679695     6.3857120360    13.3033344194
Ni      2.4490339821     1.4222228929    15.3362210124
Ni      3.6772966574     3.5494520554    15.3385526461
Ni      4.9062018672     5.6779299780    15.3378106046
Ni      6.1346571942     7.8070606266    15.3335999053
Ni      4.9058225197     1.4219699914    15.3362206260
Ni      6.1346426084     3.5508505475    15.3401418518
Ni      7.3625330027     5.6784279498    15.3395242568
Ni      8.5915701206     7.8062468470    15.3354851546
Ni      7.3627071376     1.4224398724    15.3370388041
Ni      8.5913286772     3.5492677633    15.3408174188
Ni      9.8201850849     5.6778143804    15.3377746619
Ni     11.0486433115     7.8070023171    15.3347462049
Ni      9.8200953547     1.4222882677    15.3366654644
Ni     11.0486075444     3.5492992589    15.3407265960
Ni     12.2774144623     5.6772885732    15.3359640032
Ni     13.5061541972     7.8063455902    15.3319299253
Ni      1.2187910631     0.7145173608    17.3879334314
Ni      2.4472474227     2.8420654806    17.3934581627
Ni      3.6755426811     4.9714604374    17.3911199588
Ni      4.9045369929     7.0990999797    17.3858410289
Ni      3.6755273590     0.7130852450    17.3897672789
Ni      4.9037000473     2.8423806074    17.3934481142
Ni      6.1319553005     4.9726957480    17.3963328007
Ni      7.3614524743     7.0997441935    17.3897409983
Ni      6.1332850561     0.7119051795    17.3902534707
Ni      7.3623531846     2.8409773484    17.3961534740
Ni      8.5911690953     4.9716069348    17.3936888912
Ni      9.8197669951     7.1000577029    17.3889506467
Ni      8.5911411426     0.7131642395    17.3880087950
Ni      9.8198330590     2.8408219131    17.3957136598
Ni     11.0487030798     4.9704125685    17.3927698418
Ni     12.2763266601     7.0989938309    17.3852102935
O       8.1853233808     3.4574048182    21.7117206478
O       8.5869329741     5.0599815235    19.5762271001
O      10.2109211163     3.6451020548    23.8826602062
C       9.3606393600     4.2890487236    21.7367471584
C       9.7574736302     4.6321502783    20.3055951979
C      10.5272793641     3.6720453941    22.4918474794
H       9.0423459569     5.1976070563    22.2680419510
H      10.2036708160     3.7499198429    19.8025973096
H      10.4835571337     5.4542343167    20.2475656164
H      11.4351836342     4.2717022800    22.2942344717
H      10.7115000118     2.6514065461    22.0984614952
H       8.4384371395     2.5707271966    21.3925898339
H       7.8511829079     4.4818016084    19.8831003151
H      11.0040911060     3.3843978098    24.3788521822
O       2.4676593393     1.4045078651    18.8058894197
H       2.5804189712     1.3115658959    19.7657035449
80
Step 2 | NEB Image 2 | Cartesian Angstrom
Ni      1.2285278287     0.7093111973    11.2498100024
Ni      2.4571344721     2.8374301038    11.2496888469
Ni      3.6857726698     4.9655843725    11.2496073687
Ni      4.9144632293     7.0937374144    11.2496299633
Ni      3.6858316478     0.7092605973    11.2496437867
Ni      4.9144604749     2.8373995275    11.2494708229
Ni      6.1431324629     4.9655897500    11.2494063805
Ni      7.3718393225     7.0937595675    11.2495160483
Ni      6.1431972674     0.7092144029    11.2495391038
Ni      7.3718678366     2.8373698056    11.2493730427
Ni      8.6005602602     4.9655759330    11.2493748433
Ni      9.8292435615     7.0937408293    11.2495467870
Ni      8.6005863066     0.7092109476    11.2495691891
Ni      9.8292793780     2.8373716520    11.2494803531
Ni     11.0579558905     4.9655588359    11.2495366801
Ni     12.2865986758     7.0936991910    11.2496973577
Ni      9.8233604978     0.0021119843    13.3016576562
Ni     11.0521143621     2.1299454761    13.3037674429
Ni     12.2804255734     4.2570441101    13.3035726644
Ni     13.5095908426     6.3851688664    13.3026803253
Ni      2.4515098343     0.0019172123    13.3020754357
Ni      3.6799265460     2.1302031307    13.3030551252
Ni      4.9082794873     4.2580389272    13.3039975565
Ni      6.1368969013     6.3861955278    13.3019628194
Ni      4.9085064293     0.0014019114    13.3014873942
Ni      6.1371654189     2.1306254346    13.3040024304
Ni      7.3659594996     4.2582785513    13.3049716730
Ni      8.5943059210     6.3858243951    13.3032887474
Ni      7.3652188597     0.0018556279    13.3010736462
Ni      8.5943731258     2.1300465053    13.3028460737
Ni      9.8234479851     4.2572332571    13.3040916538
Ni     11.0520643525     6.3859890250    13.3021798680
Ni      2.4478609274     1.4221024660    15.3338214690
Ni      3.6754536089     3.5497495800    15.3355400120
Ni      4.9039820443     5.6792997789    15.3340274386
Ni      6.1337077831     7.8084539085    15.3315261756
Ni      4.9055308425     1.4209834460    15.3319690403
Ni      6.1326557146     3.5504837636    15.3329328063
Ni      7.3611748501     5.6802065267    15.3328676864
Ni      8.5911612312     7.8080445979    15.3322310132
Ni      7.3626565845     1.4197386611    15.3320940194
Ni      8.5919330992     3.5481124434    15.3332479882
Ni      9.8209971446     5.6791230570    15.3314893015
Ni     11.0494480125     7.8083710583    15.3321808471
Ni      9.8208616423     1.4207460032    15.3338105087
Ni     11.0498626656     3.5485089803    15.3367264867
Ni     12.2789183676     5.6779893164    15.3330996722
Ni     13.5068095339     7.8068623772    15.3310265336
Ni      1.2142116767     0.7129817319    17.3839325338
Ni      2.4435099604     2.8457139145    17.3883939351
Ni      3.6685183802     4.9741369926    17.3858609021
Ni      4.9009491049     7.1029606484    17.3826122350
Ni      3.6930173569     0.6983329845    17.3539007868
Ni      4.8896865725     2.8369456637    17.3713413694
Ni      6.1159863810     4.9889038700    17.3561439706
Ni      7.3561454319     7.1083249357    17.3785448983
Ni      6.1323260971     0.7041936083    17.3829800548
Ni      7.3689071263     2.8201127894    17.3385537300
Ni      8.5858438567     4.9718809530    17.3360901025
Ni      9.8214914474     7.1117645030    17.3685532248
Ni      8.5927066760     0.7063381412    17.3812432534
Ni      9.8221759312     2.8308279761    17.3766380589
Ni     11.0624827841     4.9764331231    17.3596808511
Ni     12.2800834102     7.1025095882    17.3805016692
O       8.0534083580     3.2165786119    21.2476951684
O       8.4311247836     5.2055035886    19.1810902643
O       9.6032281610     3.6938812717    23.6703395298
C       8.8888818610     4.3558227385    21.4642852330
C       9.4352865325     4.9814796673    20.1499776633
C      10.0879292931     4.0213052829    22.3683290469
H       8.2499884472     5.0811300818    21.9831338172
H      10.2279732117     4.3073659911    19.7519539459
H       9.9314767945     5.9361474337    20.4122583065
H      10.7709179904     4.8884194011    22.4031606381
H      10.6363369716     3.1750753652    21.9198304452
H       8.5809805064     2.5066520665    20.8685846669
H       6.3544057527     3.6785443705    18.3379162638
H      10.3924526005     3.4591728486    24.2346797943
O       2.5321361812     1.4347441424    18.7836550600
H       2.6825932572     1.4330770300    19.7571290413
80
Step 3 | NEB Image 3 | Cartesian Angstrom
Ni      1.2285064587     0.7093094130    11.2497839622
Ni      2.4571053034     2.8374341606    11.2496376733
Ni      3.6857456460     4.9655978343    11.2495393369
Ni      4.9144413344     7.0937575729    11.2495580525
Ni      3.6858013606     0.7092460433    11.2495566898
Ni      4.9144331199     2.8373975055    11.2493436283
Ni      6.1431123348     4.9656016990    11.2492627495
Ni      7.3718315143     7.0937899911    11.2493784588
Ni      6.1431867794     0.7091804417    11.2493931263
Ni      7.3718698124     2.8373502517    11.2491873067
Ni      8.6005772921     4.9655784478    11.2491756816
Ni      9.8292751112     7.0937733282    11.2493835199
Ni      8.6006078576     0.7091622914    11.2494083012
Ni      9.8293215096     2.8373392287    11.2492929062
Ni     11.0580135441     4.9655557859    11.2493577154
Ni     12.2866550811     7.0937244810    11.2495695480
Ni      9.8234611553     0.0019575064    13.3013412889
Ni     11.0522816831     2.1298242902    13.3034029815
Ni     12.2806278077     4.2569826548    13.3032144425
Ni     13.5097698770     6.3851990823    13.3024291497
Ni      2.4514297564     0.0018940171    13.3019599250
Ni      3.6798060214     2.1302026162    13.3027784690
Ni      4.9082033045     4.2580979135    13.3036832570
Ni      6.1368179309     6.3862603915    13.3016387673
Ni      4.9084623410     0.0012899032    13.3011526553
Ni      6.1371562683     2.1305801423    13.3035184854
Ni      7.3659521208     4.2582596746    13.3044101018
Ni      8.5943489887     6.3859073460    13.3027214487
Ni      7.3652533260     0.0016961627    13.3006882013
Ni      8.5944709446     2.1299192671    13.3023310729
Ni      9.8236158917     4.2571511599    13.3035000934
Ni     11.0522587670     6.3860477284    13.3017004662
Ni      2.4473235137     1.4222129127    15.3336369792
Ni      3.6746564560     3.5501523880    15.3343921110
Ni      4.9038708541     5.6794763811    15.3336226214
Ni      6.1333827435     7.8087470573    15.3307334363
Ni      4.9054213955     1.4206447103    15.3299804629
Ni      6.1328619955     3.5508260927    15.3313488866
Ni      7.3606981193     5.6803499798    15.3306397580
Ni      8.5913052962     7.8086938568    15.3306289761
Ni      7.3629807121     1.4194255013    15.3304876971
Ni      8.5924700340     3.5472841262    15.3308205545
Ni      9.8219963027     5.6792625918    15.3287495504
Ni     11.0500939497     7.8088893061    15.3309596588
Ni      9.8213795424     1.4203296876    15.3327278563
Ni     11.0505594018     3.5479475215    15.3356050926
Ni     12.2797586023     5.6779935740    15.3319351275
Ni     13.5072408511     7.8070663949    15.3305740421
Ni      1.2163000323     0.7142297579    17.3862741195
Ni      2.4429973554     2.8424488333    17.3909162846
Ni      3.6678570940     4.9758074245    17.3843666287
Ni      4.9005499485     7.1030479404    17.3820791200
Ni      3.6884248508     0.7002250472    17.3408237705
Ni      4.8817218866     2.8402842095    17.3461580935
Ni      6.1161705091     4.9847542121    17.3598504089
Ni      7.3537169474     7.1133026018    17.3685696941
Ni      6.1337214468     0.6981650383    17.3733716749
Ni      7.3751010202     2.8281861332    17.3342905789
Ni      8.5942243715     4.9605560664    17.3080824407
Ni      9.8255427934     7.1181257578    17.3579180495
Ni      8.5943119834     0.7027826419    17.3758655164
Ni      9.8262335284     2.8313206774    17.3749016919
Ni     11.0699283033     4.9685149946    17.3502886993
Ni     12.2833236839     7.1041461214    17.3777314301
O       8.6210034959     3.0426831545    20.5176346345
O       8.1252521511     5.4502810067    19.0457583378
O       9.2100175168     3.4173128418    23.3204662814
C       8.6717919196     4.3195610272    21.1795257217
C       9.0203312753     5.3931576709    20.1525140095
C       9.6949255637     4.2949710904    22.3048190800
H       7.6750985523     4.5444531424    21.6247700128
H      10.0544498627     5.1994555746    19.7991991584
H       9.0133516852     6.3788321630    20.6545799515
H       9.8473566106     5.3194456634    22.7035000178
H      10.6556530034     3.9345774236    21.9020798649
H       8.8156313512     2.3644693025    21.1568987834
H       6.1315947536     3.0394175912    18.3780454648
H       9.9011619918     3.3528656004    24.0377969815
O       2.5684477133     0.7893898371    18.9175080545
H       2.7535220185     1.5532120987    19.4958582507
80
Step 4 | NEB Image 4 | Cartesian Angstrom
Ni      1.2285620262     0.7093262543    11.2498607508
Ni      2.4571754851     2.8374391483    11.2497423036
Ni      3.6858247415     4.9655843248    11.2496697664
Ni      4.9145070478     7.0937165104    11.2496922533
Ni      3.6858526633     0.7092799343    11.2496964451
Ni      4.9144992480     2.8374128957    11.2495266163
Ni      6.1431763137     4.9655814986    11.2494717634
Ni      7.3718699333     7.0937350630    11.2495535306
Ni      6.1432132301     0.7092314666    11.2495630318
Ni      7.3718979010     2.8373756159    11.2494103793
Ni      8.6005916273     4.9655575711    11.2494001412
Ni      9.8292735391     7.0937223083    11.2495450255
Ni      8.6006016821     0.7092129610    11.2495586616
Ni      9.8293047297     2.8373626321    11.2494728770
Ni     11.0579890361     4.9655415498    11.2495217273
Ni     12.2866298191     7.0936898935    11.2496749665
Ni      9.8234153914     0.0020802763    13.3015677089
Ni     11.0522025004     2.1299171247    13.3037085631
Ni     12.2805193988     4.2569942817    13.3035534556
Ni     13.5096736401     6.3851338985    13.3026336032
Ni      2.4515559240     0.0019894028    13.3022374724
Ni      3.6799711574     2.1302277371    13.3031222777
Ni      4.9084681818     4.2580897641    13.3041224311
Ni      6.1370199219     6.3861125816    13.3021026347
Ni      4.9085119532     0.0014460235    13.3015218988
Ni      6.1373062285     2.1307072575    13.3040710761
Ni      7.3661064143     4.2582344348    13.3051312160
Ni      8.5944293365     6.3857240179    13.3032836548
Ni      7.3652703381     0.0018872572    13.3010239307
Ni      8.5944573789     2.1300724365    13.3028918633
Ni      9.8235736295     4.2571516594    13.3041215327
Ni     11.0521974512     6.3859098424    13.3021401850
Ni      2.4479527555     1.4220656806    15.3346606516
Ni      3.6752268320     3.5503399816    15.3347002366
Ni      4.9049120651     5.6791192610    15.3348873821
Ni      6.1338369498     7.8082218130    15.3314032772
Ni      4.9053185351     1.4207797507    15.3313508030
Ni      6.1343581097     3.5511063510    15.3336902251
Ni      7.3615876379     5.6794307497    15.3330490796
Ni      8.5916638348     7.8079947811    15.3315957227
Ni      7.3633720602     1.4207409102    15.3323767369
Ni      8.5922518692     3.5475664969    15.3339047800
Ni      9.8220718083     5.6784734647    15.3313386622
Ni     11.0500016369     7.8082723292    15.3317959283
Ni      9.8211158416     1.4207827104    15.3336332381
Ni     11.0502804300     3.5484254492    15.3371814855
Ni     12.2790926007     5.6775492854    15.3334224959
Ni     13.5070398689     7.8068082709    15.3309111626
Ni      1.2179827681     0.7142806809    17.3872581265
Ni      2.4433237613     2.8430990131    17.3885757660
Ni      3.6708888282     4.9761367898    17.3858121726
Ni      4.9022098500     7.1015540522    17.3830578840
Ni      3.6767681828     0.7086387886    17.3673254193
Ni      4.8908894385     2.8521137155    17.3399243153
Ni      6.1216852577     4.9760100505    17.3743357632
Ni      7.3568803293     7.1108745145    17.3698325703
Ni      6.1383760962     0.6984860729    17.3684477127
Ni      7.3708653167     2.8364189572    17.3657469186
Ni      8.6049641789     4.9557524387    17.3306536087
Ni      9.8277068100     7.1123219535    17.3620038361
Ni      8.5940249040     0.7060768073    17.3795152302
Ni      9.8257437075     2.8333708402    17.3775348602
Ni     11.0606342211     4.9677103529    17.3735841184
Ni     12.2819694344     7.1016303718    17.3798296598
O       9.2247597281     3.4291128819    20.1620690380
O       7.7594306430     5.6357790742    18.8943465993
O       8.9432175407     3.2803142463    22.9903133775
C       8.4516689327     4.3783182229    20.9161274205
C       8.4141168999     5.7050400071    20.1685932278
C       9.0706334016     4.5490075336    22.3031677100
H       7.4167792476     3.9986042123    21.0393117186
H       9.4485702451     6.0725503011    20.0243640655
H       7.8651753905     6.4435880982    20.7828361671
H       8.5395281515     5.3463602456    22.8680202078
H      10.1270378772     4.8258369308    22.2009944773
H       9.2973953314     2.6164686943    20.7069301123
H       5.9208124975     2.2190774488    18.4045173961
H       9.4245824776     3.3208893169    23.8065419645
O       2.7525922195     0.6838983324    19.0078346340
H       3.0283649658     1.5576223501    19.4884954137
80
Step 5 | NEB Image 5 | Cartesian Angstrom
Ni      1.2286497034     0.7093615225    11.2499999440
Ni      2.4572989609     2.8374461750    11.2499999440
Ni      3.6859482184     4.9655308275    11.2499999440
Ni      4.9145974759     7.0936154800    11.2499999440
Ni      3.6859497034     0.7093615225    11.2499999440
Ni      4.9145989609     2.8374461750    11.2499999440
Ni      6.1432482184     4.9655308275    11.2499999440
Ni      7.3718974759     7.0936154800    11.2499999440
Ni      6.1432497034     0.7093615225    11.2499999440
Ni      7.3718989609     2.8374461750    11.2499999440
Ni      8.6005482184     4.9655308275    11.2499999440
Ni      9.8291974759     7.0936154800    11.2499999440
Ni      8.6005497034     0.7093615225    11.2499999440
Ni      9.8291989609     2.8374461750    11.2499999440
Ni     11.0578482184     4.9655308275    11.2499999440
Ni     12.2864974759     7.0936154800    11.2499999440
Ni      9.8231926870     0.0024995631    13.3023446442
Ni     11.0518089676     2.1302240586    13.3047083557
Ni     12.2800508544     4.2570722939    13.3044621680
Ni     13.5092873083     6.3850384546    13.3032134512
Ni      2.4517696982     0.0021660497    13.3026623307
Ni      3.6803278881     2.1303359107    13.3041135630
Ni      4.9088074938     4.2579363814    13.3054287544
Ni      6.1372745671     6.3857877107    13.3032783798
Ni      4.9086517115     0.0018312594    13.3024060945
Ni      6.1374036838     2.1309748468    13.3056096270
Ni      7.3661495135     4.2582451239    13.3069522585
Ni      8.5943413203     6.3854189562    13.3048451696
Ni      7.3652044956     0.0023769003    13.3020219334
Ni      8.5942385662     2.1304695544    13.3043868044
Ni      9.8231946918     4.2572739512    13.3057506922
Ni     11.0517679695     6.3857120360    13.3033344194
Ni      2.4490339821     1.4222228929    15.3362210124
Ni      3.6772966574     3.5494520554    15.3385526461
Ni      4.9062018672     5.6779299780    15.3378106046
Ni      6.1346571942     7.8070606266    15.3335999053
Ni      4.9058225197     1.4219699914    15.3362206260
Ni      6.1346426084     3.5508505475    15.3401418518
Ni      7.3625330027     5.6784279498    15.3395242568
Ni      8.5915701206     7.8062468470    15.3354851546
Ni      7.3627071376     1.4224398724    15.3370388041
Ni      8.5913286772     3.5492677633    15.3408174188
Ni      9.8201850849     5.6778143804    15.3377746619
Ni     11.0486433115     7.8070023171    15.3347462049
Ni      9.8200953547     1.4222882677    15.3366654644
Ni     11.0486075444     3.5492992589    15.3407265960
Ni     12.2774144623     5.6772885732    15.3359640032
Ni     13.5061541972     7.8063455902    15.3319299253
Ni      1.2187910631     0.7145173608    17.3879334314
Ni      2.4472474227     2.8420654806    17.3934581627
Ni      3.6755426811     4.9714604374    17.3911199588
Ni      4.9045369929     7.0990999797    17.3858410289
Ni      3.6755273590     0.7130852450    17.3897672789
Ni      4.9037000473     2.8423806074    17.3934481142
Ni      6.1319553005     4.9726957480    17.3963328007
Ni      7.3614524743     7.0997441935    17.3897409983
Ni      6.1332850561     0.7119051795    17.3902534707
Ni      7.3623531846     2.8409773484    17.3961534740
Ni      8.5911690953     4.9716069348    17.3936888912
Ni      9.8197669951     7.1000577029    17.3889506467
Ni      8.5911411426     0.7131642395    17.3880087950
Ni      9.8198330590     2.8408219131    17.3957136598
Ni     11.0487030798     4.9704125685    17.3927698418
Ni     12.2763266601     7.0989938309    17.3852102935
O       9.3819344244     4.1358166692    20.0930362367
O       7.4403591999     5.7710500252    18.8010456662
O       8.6054614657     3.3490556865    22.7703843692
C       8.1664603160     4.5686069475    20.7700096311
C       7.7641571257     5.9228005922    20.1887078083
C       8.3912004598     4.6889035721    22.2787219386
H       7.3485584428     3.8274455412    20.5710354409
H       8.5939941550     6.6612606078    20.2727262356
H       6.8675792875     6.3118286823    20.7285291220
H       7.5127131407     5.1500412147    22.7730789076
H       9.2780443246     5.3384479547    22.4478370724
H       9.6348023466     3.2728259917    20.4951539629
H       4.4134518168     1.3599542848    19.7391102444
H       8.7500633813     3.3953291848    23.7317250903
O       3.5190441201     1.0401590876    20.0091886335
H       2.9303167551     1.7729858078    19.7218291788
