80
Step 1 | NEB Image 1 | Cartesian Angstrom
Ni      1.2286497034     0.7093615225    11.2499999440
Ni      2.4572989609     2.8374461750    11.2499999440
Ni      3.6859482184     4.9655308275    11.2499999440
Ni      4.9145974759     7.0936154800    11.2499999440
Ni      3.6859497034     0.7093615225    11.2499999440
Ni      4.9145989609     2.8374461750    11.2499999440
Ni      6.1432482184     4.9655308275    11.2499999440
Ni      7.3718974759     7.0936154800    11.2499999440
Ni      6.1432497034     0.7093615225    11.2499999440
Ni      7.3718989609     2.8374461750    11.2499999440
Ni      8.6005482184     4.9655308275    11.2499999440
Ni      9.8291974759     7.0936154800    11.2499999440
Ni      8.6005497034     0.7093615225    11.2499999440
Ni      9.8291989609     2.8374461750    11.2499999440
Ni     11.0578482184     4.9655308275    11.2499999440
Ni     12.2864974759     7.0936154800    11.2499999440
Ni      9.8231926870     0.0024995631    13.3023446442
Ni     11.0518089676     2.1302240586    13.3047083557
Ni     12.2800508544     4.2570722939    13.3044621680
Ni     13.5092873083     6.3850384546    13.3032134512
Ni      2.4517696982     0.0021660497    13.3026623307
Ni      3.6803278881     2.1303359107    13.3041135630
Ni      4.9088074938     4.2579363814    13.3054287544
Ni      6.1372745671     6.3857877107    13.3032783798
Ni      4.9086517115     0.0018312594    13.3024060945
Ni      6.1374036838     2.1309748468    13.3056096270
Ni      7.3661495135     4.2582451239    13.3069522585
Ni      8.5943413203     6.3854189562    13.3048451696
Ni      7.3652044956     0.0023769003    13.3020219334
Ni      8.5942385662     2.1304695544    13.3043868044
Ni      9.8231946918     4.2572739512    13.3057506922
Ni     11.0517679695     6.3857120360    13.3033344194
Ni      2.4490339821     1.4222228929    15.3362210124
Ni      3.6772966574     3.5494520554    15.3385526461
Ni      4.9062018672     5.6779299780    15.3378106046
Ni      6.1346571942     7.8070606266    15.3335999053
Ni      4.9058225197     1.4219699914    15.3362206260
Ni      6.1346426084     3.5508505475    15.3401418518
Ni      7.3625330027     5.6784279498    15.3395242568
Ni      8.5915701206     7.8062468470    15.3354851546
Ni      7.3627071376     1.4224398724    15.3370388041
Ni      8.5913286772     3.5492677633    15.3408174188
Ni      9.8201850849     5.6778143804    15.3377746619
Ni     11.0486433115     7.8070023171    15.3347462049
Ni      9.8200953547     1.4222882677    15.3366654644
Ni     11.0486075444     3.5492992589    15.3407265960
Ni     12.2774144623     5.6772885732    15.3359640033
Ni     13.5061541972     7.8063455902    15.3319299253
Ni      1.2187910631     0.7145173608    17.3879334314
Ni      2.4472474227     2.8420654806    17.3934581627
Ni      3.6755426811     4.9714604374    17.3911199588
Ni      4.9045369929     7.0990999797    17.3858410289
Ni      3.6755273590     0.7130852450    17.3897672789
Ni      4.9037000473     2.8423806074    17.3934481142
Ni      6.1319553005     4.9726957480    17.3963328007
Ni      7.3614524743     7.0997441935    17.3897409983
Ni      6.1332850561     0.7119051795    17.3902534707
Ni      7.3623531846     2.8409773484    17.3961534740
Ni      8.5911690953     4.9716069348    17.3936888912
Ni      9.8197669951     7.1000577029    17.3889506467
Ni      8.5911411426     0.7131642395    17.3880087950
Ni      9.8198330590     2.8408219131    17.3957136598
Ni     11.0487030798     4.9704125685    17.3927698418
Ni     12.2763266601     7.0989938309    17.3852102935
O       8.1853233808     3.4574048182    21.7117206478
O       8.5869329741     5.0599815235    19.5762271001
O      10.2109211163     3.6451020548    23.8826602062
C       9.3606393600     4.2890487236    21.7367471584
C       9.7574736302     4.6321502783    20.3055951979
C      10.5272793641     3.6720453941    22.4918474794
H       9.0423459569     5.1976070563    22.2680419510
H      10.2036708160     3.7499198429    19.8025973096
H      10.4835571337     5.4542343167    20.2475656164
H      11.4351836342     4.2717022800    22.2942344717
H      10.7115000118     2.6514065461    22.0984614952
H       8.4384371395     2.5707271966    21.3925898339
H       7.8511829079     4.4818016084    19.8831003151
H      11.0040911060     3.3843978098    24.3788521822
O       2.4676593393     1.4045078651    18.8058894197
H       2.5804189712     1.3115658959    19.7657035449
80
Step 2 | NEB Image 2 | Cartesian Angstrom
Ni      1.2285804700     0.7093300575    11.2498890817
Ni      2.4572056626     2.8374342295    11.2498219033
Ni      3.6858469547     4.9655595537    11.2497766941
Ni      4.9145205313     7.0936852216    11.2497927199
Ni      3.6858865771     0.7093029232    11.2498077749
Ni      4.9145215459     2.8374171609    11.2497135932
Ni      6.1431823711     4.9655636237    11.2496790991
Ni      7.3718634386     7.0936951955    11.2497467786
Ni      6.1432204421     0.7092813275    11.2497649653
Ni      7.3718782048     2.8374053377    11.2496750381
Ni      8.6005489012     4.9655586641    11.2496816942
Ni      9.8292139917     7.0936823603    11.2497769847
Ni      8.6005642690     0.7092851482    11.2497903477
Ni      9.8292331071     2.8374118010    11.2497444082
Ni     11.0578934314     4.9655500069    11.2497769598
Ni     12.2865390656     7.0936586737    11.2498587810
Ni      9.8232587355     0.0023149847    13.3020349176
Ni     11.0519356676     2.1300955438    13.3042559146
Ni     12.2802075950     4.2570794699    13.3040399636
Ni     13.5094080457     6.3851095334    13.3029753631
Ni      2.4516362214     0.0020163421    13.3023340847
Ni      3.6801205051     2.1302512079    13.3035499127
Ni      4.9085007763     4.2579777407    13.3046421177
Ni      6.1370652012     6.3860220345    13.3025696086
Ni      4.9085768481     0.0016024992    13.3019555390
Ni      6.1372548706     2.1307698624    13.3047798845
Ni      7.3660308054     4.2582742801    13.3059153944
Ni      8.5943008772     6.3856444058    13.3040820572
Ni      7.3651995054     0.0021087899    13.3015733311
Ni      8.5942844668     2.1302510736    13.3036122692
Ni      9.8232877822     4.2572816200    13.3049318350
Ni     11.0518777617     6.3858652489    13.3027923339
Ni      2.4485035170     1.4221008849    15.3347611123
Ni      3.6764446264     3.5494766233    15.3370974450
Ni      4.9048267335     5.6787337092    15.3355562924
Ni      6.1341828728     7.8078318658    15.3325984375
Ni      4.9056811830     1.4214781468    15.3343164481
Ni      6.1332852682     3.5504751570    15.3361795829
Ni      7.3618588529     5.6795075960    15.3361791787
Ni      8.5912490089     7.8071308371    15.3340606746
Ni      7.3625411288     1.4208394031    15.3345337831
Ni      8.5914951299     3.5488686184    15.3369694719
Ni      9.8202940820     5.6785950525    15.3348764822
Ni     11.0488928228     7.8076656964    15.3336059680
Ni      9.8203731582     1.4214724675    15.3352831675
Ni     11.0491244516     3.5490235930    15.3386270137
Ni     12.2780322313     5.6777355365    15.3346082288
Ni     13.5063964891     7.8065926810    15.3315375211
Ni      1.2150042623     0.7130237668    17.3844137878
Ni      2.4450682841     2.8457356655    17.3891909023
Ni      3.6713187082     4.9724852836    17.3883689254
Ni      4.9024044377     7.1015345158    17.3839942115
Ni      3.6886118944     0.7028644095    17.3721584821
Ni      4.8979936579     2.8375152464    17.3896612396
Ni      6.1216628789     4.9847738798    17.3690984022
Ni      7.3590508321     7.1031910974    17.3866748319
Ni      6.1320910559     0.7094488496    17.3895555183
Ni      7.3640090556     2.8243143149    17.3610287087
Ni      8.5843074526     4.9764369342    17.3683222198
Ni      9.8192031414     7.1049413121    17.3802688982
Ni      8.5914837334     0.7102537877    17.3858839455
Ni      9.8196668369     2.8342282870    17.3842288004
Ni     11.0544732719     4.9775104849    17.3754305747
Ni     12.2774010331     7.1005742496    17.3833333144
O       8.0975333184     3.4038928995    21.3182882745
O       8.7210547154     5.2938031310    19.1917805184
O       9.9214113983     3.8838506467    23.6438113231
C       9.1824835569     4.3295967108    21.4003998151
C       9.7173432870     4.7156233385    20.0112230617
C      10.3286304604     3.8056868596    22.2750379453
H       8.7704130934     5.2258407042    21.8925819981
H      10.1300668799     3.7790108666    19.5441275246
H      10.5756558812     5.4086002873    20.1242779824
H      11.2396553875     4.4102294582    22.1009549111
H      10.5465365154     2.7590460108    21.9816770581
H       8.3005742923     2.7610199157    20.6137685867
H       6.1956120238     3.5762397775    18.3469129647
H      10.6599123862     3.5983954939    24.2071894960
O       2.5146171593     1.4616327112    18.7964040135
H       2.6430423320     1.4941191545    19.7610675893
80
Step 3 | NEB Image 3 | Cartesian Angstrom
Ni      1.2285328219     0.7093152061    11.2498197475
Ni      2.4571410541     2.8374327110    11.2497020770
Ni      3.6857809316     4.9655834943    11.2496230479
Ni      4.9144692619     7.0937322573    11.2496426437
Ni      3.6858336913     0.7092654782    11.2496509858
Ni      4.9144653032     2.8374031345    11.2494818288
Ni      6.1431374008     4.9655878888    11.2494185037
Ni      7.3718425487     7.0937552905    11.2495200917
Ni      6.1431990766     0.7092178694    11.2495386936
Ni      7.3718714340     2.8373710362    11.2493760770
Ni      8.6005643224     4.9655725279    11.2493738764
Ni      9.8292486851     7.0937388028    11.2495406320
Ni      8.6005893017     0.7092104738    11.2495616581
Ni      9.8292844144     2.8373689937    11.2494731572
Ni     11.0579629649     4.9655553770    11.2495269023
Ni     12.2866059342     7.0936988635    11.2496878057
Ni      9.8233745346     0.0021022467    13.3016282597
Ni     11.0521353937     2.1299356145    13.3037469423
Ni     12.2804503483     4.2570289775    13.3035500037
Ni     13.5096151824     6.3851655643    13.3026562585
Ni      2.4515106450     0.0019330547    13.3020959830
Ni      3.6799283157     2.1302146619    13.3030704523
Ni      4.9083061579     4.2580470378    13.3040351590
Ni      6.1369090941     6.3861774059    13.3019880525
Ni      4.9085068045     0.0014084090    13.3014743864
Ni      6.1371851161     2.1306439278    13.3040077195
Ni      7.3659756392     4.2582699283    13.3049887378
Ni      8.5943223996     6.3858112188    13.3032658232
Ni      7.3652277782     0.0018567778    13.3010481293
Ni      8.5943896095     2.1300480408    13.3028368471
Ni      9.8234741228     4.2572131050    13.3040712919
Ni     11.0520941892     6.3859804428    13.3021462935
Ni      2.4478147148     1.4221426310    15.3339868792
Ni      3.6753891139     3.5498425802    15.3354710731
Ni      4.9041534256     5.6792288542    15.3342508456
Ni      6.1337013062     7.8084123299    15.3314839735
Ni      4.9055229164     1.4209720188    15.3317778793
Ni      6.1329045498     3.5506173511    15.3331236831
Ni      7.3611653415     5.6800837509    15.3328268057
Ni      8.5912423597     7.8080686977    15.3320605933
Ni      7.3627593548     1.4198966339    15.3320789675
Ni      8.5920331670     3.5479764144    15.3332365411
Ni      9.8212163927     5.6790410254    15.3312716818
Ni     11.0495639926     7.8083951858    15.3320594925
Ni      9.8209417966     1.4207639090    15.3337547018
Ni     11.0499523235     3.5484211420    15.3367662058
Ni     12.2790230044     5.6779248210    15.3330287128
Ni     13.5068750653     7.8068735600    15.3309778934
Ni      1.2152264502     0.7134729961    17.3849616127
Ni      2.4436861335     2.8444704830    17.3895224011
Ni      3.6689681518     4.9743934575    17.3858991656
Ni      4.9011626256     7.1026361935    17.3827475673
Ni      3.6900473071     0.7002490178    17.3535488035
Ni      4.8887113966     2.8385264526    17.3658987178
Ni      6.1174766935     4.9862090567    17.3608363006
Ni      7.3559413262     7.1089927868    17.3766464682
Ni      6.1328707952     0.7031212813    17.3807708704
Ni      7.3700747246     2.8243286429    17.3426621213
Ni      8.5888526640     4.9685339641    17.3332455471
Ni      9.8225388421     7.1125192687    17.3672883049
Ni      8.5930312868     0.7059411130    17.3803210522
Ni      9.8231374951     2.8318509917    17.3778032412
Ni     11.0633268083     4.9736281649    17.3601103760
Ni     12.2806774669     7.1026472838    17.3801340583
O       8.6052136691     3.2344112543    20.3587398446
O       8.7692052553     5.8799982057    18.9691508053
O       9.3008220476     3.4322158316    23.1795043275
C       8.9496288905     4.4500598796    21.0309639800
C       9.5965899472     5.4041671844    20.0264750227
C       9.9541574082     4.1929533909    22.1543154100
H       8.0442035043     4.9128768965    21.4658457412
H      10.4778518623     4.8717941779    19.5985017802
H       9.9609160358     6.2859126508    20.5748419962
H      10.3205457190     5.1548124937    22.5511832969
H      10.8097266090     3.6317893912    21.7394807949
H       8.3626046431     2.5727959860    21.0284880684
H       6.1114013289     3.5421489404    18.2944320195
H       9.9608400774     3.2305964509    23.8727554056
O       2.4873102724     0.4580293566    18.8731863901
H       2.5266661192     1.1610406771    19.5508800021
80
Step 4 | NEB Image 4 | Cartesian Angstrom
Ni      1.2285455141     0.7093205444    11.2498370569
Ni      2.4571544486     2.8374371296    11.2497094313
Ni      3.6858009589     4.9655885385    11.2496289139
Ni      4.9144876056     7.0937294017    11.2496513721
Ni      3.6858379232     0.7092691529    11.2496555345
Ni      4.9144799193     2.8374076827    11.2494719820
Ni      6.1431577628     4.9655876786    11.2494095816
Ni      7.3718588658     7.0937515094    11.2495029510
Ni      6.1432055596     0.7092161491    11.2495150045
Ni      7.3718896656     2.8373680736    11.2493462824
Ni      8.6005872511     4.9655641053    11.2493366006
Ni      9.8292733289     7.0937370567    11.2495004757
Ni      8.6006029953     0.7091985656    11.2495174832
Ni      9.8293087666     2.8373564661    11.2494231411
Ni     11.0579948826     4.9655462257    11.2494772316
Ni     12.2866357410     7.0936996457    11.2496470349
Ni      9.8234257452     0.0020470377    13.3015092579
Ni     11.0522213076     2.1298927096    13.3036252756
Ni     12.2805455407     4.2569943764    13.3034628040
Ni     13.5096959944     6.3851525589    13.3025812725
Ni      2.4515209555     0.0019589959    13.3021562204
Ni      3.6799245312     2.1302173309    13.3030200764
Ni      4.9083894434     4.2580911974    13.3039869863
Ni      6.1369619660     6.3861585319    13.3019650237
Ni      4.9084976971     0.0014003039    13.3014211535
Ni      6.1372613274     2.1306671119    13.3039121688
Ni      7.3660617600     4.2582430904    13.3049229336
Ni      8.5944050231     6.3857778030    13.3031291479
Ni      7.3652642387     0.0018328499    13.3009340666
Ni      8.5944586913     2.1300286313    13.3027348615
Ni      9.8235814003     4.2571555279    13.3039503477
Ni     11.0522097011     6.3859496819    13.3020235212
Ni      2.4477908851     1.4220925407    15.3343384476
Ni      3.6750761857     3.5502754979    15.3346033223
Ni      4.9045861733     5.6792406867    15.3344757151
Ni      6.1337129828     7.8083794082    15.3312199754
Ni      4.9053428901     1.4207369382    15.3309989043
Ni      6.1339030285     3.5510019160    15.3329750772
Ni      7.3613498924     5.6797100753    15.3323744026
Ni      8.5915507883     7.8081863036    15.3313524207
Ni      7.3632500507     1.4203433334    15.3318471297
Ni      8.5922916528     3.5475121779    15.3330429534
Ni      9.8220135362     5.6787055880    15.3306620111
Ni     11.0500084545     7.8084382337    15.3315825509
Ni      9.8211733673     1.4206468617    15.3333846120
Ni     11.0503452968     3.5483153281    15.3367294058
Ni     12.2792545961     5.6776836137    15.3330303569
Ni     13.5070835457     7.8068768002    15.3308265792
Ni      1.2172814448     0.7141415418    17.3867364544
Ni      2.4431596953     2.8432520009    17.3888582736
Ni      3.6699443991     4.9760275997    17.3853790057
Ni      4.9017029631     7.1020467488    17.3827441726
Ni      3.6805650961     0.7059242429    17.3603100165
Ni      4.8886331401     2.8487186286    17.3424478922
Ni      6.1197820477     4.9789969360    17.3691846362
Ni      7.3560670684     7.1114371800    17.3698061603
Ni      6.1370708113     0.6985542053    17.3700950947
Ni      7.3717500119     2.8331710977    17.3562462434
Ni      8.6015290871     4.9577076561    17.3249323359
Ni      9.8269490345     7.1137524051    17.3610200805
Ni      8.5940433675     0.7052558825    17.3787215711
Ni      9.8256812205     2.8325130830    17.3763947057
Ni     11.0629487781     4.9686029415    17.3672360466
Ni     12.2822224446     7.1022745208    17.3793280318
O       9.1092847731     3.4393401832    20.0092299895
O       7.8170918137     5.7535416575    18.8623285310
O       8.9879258125     3.2738126018    22.8144733123
C       8.4914778930     4.4574073801    20.8151505465
C       8.5717557855     5.7867627571    20.0750830769
C       9.1906318450     4.5382212570    22.1653338404
H       7.4268643812     4.2073053155    20.9724208481
H       9.6306997528     6.0142421947    19.8454952006
H       8.1698952751     6.5892586846    20.7126600647
H       8.7647284126     5.3630026855    22.7635803010
H      10.2641232991     4.7308410261    22.0006697666
H       8.9987475314     2.5907001611    20.4737058108
H       6.1289622979     2.1605405845    18.2922497805
H       9.5758267008     3.2265625959    23.5936894366
O       2.4708181293     0.5012063329    18.9060389301
H       2.4873579045     1.2668114770    19.5131525315
80
Step 5 | NEB Image 5 | Cartesian Angstrom
Ni      1.2286497034     0.7093615225    11.2499999440
Ni      2.4572989609     2.8374461750    11.2499999440
Ni      3.6859482184     4.9655308275    11.2499999440
Ni      4.9145974759     7.0936154800    11.2499999440
Ni      3.6859497034     0.7093615225    11.2499999440
Ni      4.9145989609     2.8374461750    11.2499999440
Ni      6.1432482184     4.9655308275    11.2499999440
Ni      7.3718974759     7.0936154800    11.2499999440
Ni      6.1432497034     0.7093615225    11.2499999440
Ni      7.3718989609     2.8374461750    11.2499999440
Ni      8.6005482184     4.9655308275    11.2499999440
Ni      9.8291974759     7.0936154800    11.2499999440
Ni      8.6005497034     0.7093615225    11.2499999440
Ni      9.8291989609     2.8374461750    11.2499999440
Ni     11.0578482184     4.9655308275    11.2499999440
Ni     12.2864974759     7.0936154800    11.2499999440
Ni      9.8231926870     0.0024995631    13.3023446442
Ni     11.0518089676     2.1302240586    13.3047083557
Ni     12.2800508544     4.2570722939    13.3044621680
Ni     13.5092873083     6.3850384546    13.3032134512
Ni      2.4517696982     0.0021660497    13.3026623307
Ni      3.6803278881     2.1303359107    13.3041135630
Ni      4.9088074938     4.2579363814    13.3054287544
Ni      6.1372745671     6.3857877107    13.3032783798
Ni      4.9086517115     0.0018312594    13.3024060945
Ni      6.1374036838     2.1309748468    13.3056096270
Ni      7.3661495135     4.2582451239    13.3069522585
Ni      8.5943413203     6.3854189562    13.3048451696
Ni      7.3652044956     0.0023769003    13.3020219334
Ni      8.5942385662     2.1304695544    13.3043868044
Ni      9.8231946918     4.2572739512    13.3057506922
Ni     11.0517679695     6.3857120360    13.3033344194
Ni      2.4490339821     1.4222228929    15.3362210124
Ni      3.6772966574     3.5494520554    15.3385526461
Ni      4.9062018672     5.6779299780    15.3378106046
Ni      6.1346571942     7.8070606266    15.3335999053
Ni      4.9058225197     1.4219699914    15.3362206260
Ni      6.1346426084     3.5508505475    15.3401418518
Ni      7.3625330027     5.6784279498    15.3395242568
Ni      8.5915701206     7.8062468470    15.3354851546
Ni      7.3627071376     1.4224398724    15.3370388041
Ni      8.5913286772     3.5492677633    15.3408174188
Ni      9.8201850849     5.6778143804    15.3377746619
Ni     11.0486433115     7.8070023171    15.3347462049
Ni      9.8200953547     1.4222882677    15.3366654644
Ni     11.0486075444     3.5492992589    15.3407265960
Ni     12.2774144623     5.6772885732    15.3359640033
Ni     13.5061541972     7.8063455902    15.3319299253
Ni      1.2187910631     0.7145173608    17.3879334314
Ni      2.4472474227     2.8420654806    17.3934581627
Ni      3.6755426811     4.9714604374    17.3911199588
Ni      4.9045369929     7.0990999797    17.3858410289
Ni      3.6755273590     0.7130852450    17.3897672789
Ni      4.9037000473     2.8423806074    17.3934481142
Ni      6.1319553005     4.9726957480    17.3963328007
Ni      7.3614524743     7.0997441935    17.3897409983
Ni      6.1332850561     0.7119051795    17.3902534707
Ni      7.3623531846     2.8409773484    17.3961534740
Ni      8.5911690953     4.9716069348    17.3936888912
Ni      9.8197669951     7.1000577029    17.3889506467
Ni      8.5911411426     0.7131642395    17.3880087950
Ni      9.8198330590     2.8408219131    17.3957136598
Ni     11.0487030798     4.9704125685    17.3927698418
Ni     12.2763266601     7.0989938309    17.3852102935
O       9.3819344244     4.1358166692    20.0930362367
O       7.4403591999     5.7710500252    18.8010456662
O       8.6054614657     3.3490556865    22.7703843692
C       8.1664603160     4.5686069475    20.7700096311
C       7.7641571257     5.9228005922    20.1887078083
C       8.3912004598     4.6889035721    22.2787219386
H       7.3485584428     3.8274455412    20.5710354409
H       8.5939941550     6.6612606078    20.2727262356
H       6.8675792875     6.3118286823    20.7285291220
H       7.5127131407     5.1500412147    22.7730789076
H       9.2780443246     5.3384479547    22.4478370724
H       9.6348023466     3.2728259917    20.4951539629
H       4.4134518168     1.3599542848    19.7391102444
H       8.7500633813     3.3953291848    23.7317250903
O       3.5190441201     1.0401590876    20.0091886335
H       2.9303167551     1.7729858078    19.7218291788
