80
Step 1 | NEB Image 1 | Cartesian Angstrom
Ni      1.2286497034     0.7093615225    11.2499999440
Ni      2.4572989609     2.8374461750    11.2499999440
Ni      3.6859482184     4.9655308275    11.2499999440
Ni      4.9145974759     7.0936154800    11.2499999440
Ni      3.6859497034     0.7093615225    11.2499999440
Ni      4.9145989609     2.8374461750    11.2499999440
Ni      6.1432482184     4.9655308275    11.2499999440
Ni      7.3718974759     7.0936154800    11.2499999440
Ni      6.1432497034     0.7093615225    11.2499999440
Ni      7.3718989609     2.8374461750    11.2499999440
Ni      8.6005482184     4.9655308275    11.2499999440
Ni      9.8291974759     7.0936154800    11.2499999440
Ni      8.6005497034     0.7093615225    11.2499999440
Ni      9.8291989609     2.8374461750    11.2499999440
Ni     11.0578482184     4.9655308275    11.2499999440
Ni     12.2864974759     7.0936154800    11.2499999440
Ni      9.8231926870     0.0024995631    13.3023446442
Ni     11.0518089676     2.1302240586    13.3047083557
Ni     12.2800508544     4.2570722939    13.3044621680
Ni     13.5092873083     6.3850384546    13.3032134512
Ni      2.4517696982     0.0021660497    13.3026623307
Ni      3.6803278881     2.1303359107    13.3041135630
Ni      4.9088074938     4.2579363814    13.3054287544
Ni      6.1372745671     6.3857877107    13.3032783798
Ni      4.9086517115     0.0018312594    13.3024060945
Ni      6.1374036838     2.1309748468    13.3056096270
Ni      7.3661495135     4.2582451239    13.3069522585
Ni      8.5943413203     6.3854189562    13.3048451696
Ni      7.3652044956     0.0023769003    13.3020219334
Ni      8.5942385662     2.1304695544    13.3043868044
Ni      9.8231946918     4.2572739512    13.3057506922
Ni     11.0517679695     6.3857120360    13.3033344194
Ni      2.4490339821     1.4222228929    15.3362210124
Ni      3.6772966574     3.5494520554    15.3385526461
Ni      4.9062018672     5.6779299780    15.3378106046
Ni      6.1346571942     7.8070606266    15.3335999053
Ni      4.9058225197     1.4219699914    15.3362206260
Ni      6.1346426084     3.5508505475    15.3401418518
Ni      7.3625330027     5.6784279498    15.3395242568
Ni      8.5915701206     7.8062468470    15.3354851546
Ni      7.3627071376     1.4224398724    15.3370388041
Ni      8.5913286772     3.5492677633    15.3408174188
Ni      9.8201850849     5.6778143804    15.3377746619
Ni     11.0486433115     7.8070023171    15.3347462049
Ni      9.8200953547     1.4222882677    15.3366654644
Ni     11.0486075444     3.5492992589    15.3407265960
Ni     12.2774144623     5.6772885732    15.3359640033
Ni     13.5061541972     7.8063455902    15.3319299253
Ni      1.2187910631     0.7145173608    17.3879334314
Ni      2.4472474227     2.8420654806    17.3934581627
Ni      3.6755426811     4.9714604374    17.3911199588
Ni      4.9045369929     7.0990999797    17.3858410289
Ni      3.6755273590     0.7130852450    17.3897672789
Ni      4.9037000473     2.8423806074    17.3934481142
Ni      6.1319553005     4.9726957480    17.3963328007
Ni      7.3614524743     7.0997441935    17.3897409983
Ni      6.1332850561     0.7119051795    17.3902534707
Ni      7.3623531846     2.8409773484    17.3961534740
Ni      8.5911690953     4.9716069348    17.3936888912
Ni      9.8197669951     7.1000577029    17.3889506467
Ni      8.5911411426     0.7131642395    17.3880087950
Ni      9.8198330590     2.8408219131    17.3957136598
Ni     11.0487030798     4.9704125685    17.3927698418
Ni     12.2763266601     7.0989938309    17.3852102935
O       8.1853233808     3.4574048182    21.7117206478
O       8.5869329741     5.0599815235    19.5762271001
O      10.2109211163     3.6451020548    23.8826602062
C       9.3606393600     4.2890487236    21.7367471584
C       9.7574736302     4.6321502783    20.3055951979
C      10.5272793641     3.6720453941    22.4918474794
H       9.0423459569     5.1976070563    22.2680419510
H      10.2036708160     3.7499198429    19.8025973096
H      10.4835571337     5.4542343167    20.2475656164
H      11.4351836342     4.2717022800    22.2942344717
H      10.7115000118     2.6514065461    22.0984614952
H       8.4384371395     2.5707271966    21.3925898339
H       7.8511829079     4.4818016084    19.8831003151
H      11.0040911060     3.3843978098    24.3788521822
O       2.4676593393     1.4045078651    18.8058894197
H       2.5804189712     1.3115658959    19.7657035449
80
Step 2 | NEB Image 2 | Cartesian Angstrom
Ni      1.2285695403     0.7093257609    11.2498722665
Ni      2.4571908943     2.8374330046    11.2497940611
Ni      3.6858313303     4.9655645006    11.2497414472
Ni      4.9145085509     7.0936961375    11.2497592682
Ni      3.6858756802     0.7092939560    11.2497750165
Ni      4.9145090325     2.8374131662    11.2496649627
Ni      6.1431720109     4.9655689686    11.2496245207
Ni      7.3718583160     7.0937082967    11.2497016358
Ni      6.1432157018     0.7092678511    11.2497215004
Ni      7.3718756701     2.8373982791    11.2496163101
Ni      8.6005504848     4.9655625364    11.2496226917
Ni      9.8292189010     7.0936939460    11.2497336067
Ni      8.6005680493     0.7092709092    11.2497489281
Ni      9.8292412415     2.8374044850    11.2496946561
Ni     11.0579043597     4.9655522624    11.2497322278
Ni     12.2865494047     7.0936665247    11.2498292127
Ni      9.8232761023     0.0022773891    13.3019669318
Ni     11.0519667718     2.1300682031    13.3041649927
Ni     12.2802456465     4.2570751355    13.3039536414
Ni     13.5094393432     6.3851214556    13.3029224623
Ni      2.4516118250     0.0019946545    13.3022810632
Ni      3.6800828863     2.1302399790    13.3034518932
Ni      4.9084539818     4.2579882998    13.3045114525
Ni      6.1370309658     6.3860584474    13.3024484606
Ni      4.9085632019     0.0015627680    13.3018675352
Ni      6.1372346020     2.1307389934    13.3046290479
Ni      7.3660146863     4.2582764740    13.3057306818
Ni      8.5942993646     6.3856811464    13.3039328719
Ni      7.3652018464     0.0020598044    13.3014811556
Ni      8.5942989705     2.1302113854    13.3034660817
Ni      9.8233145426     4.2572755513    13.3047732639
Ni     11.0519089926     6.3858903970    13.3026798282
Ni      2.4483878506     1.4220940108    15.3345533726
Ni      3.6762638317     3.5495149488    15.3368060193
Ni      4.9046365822     5.6788548877    15.3352246478
Ni      6.1340926939     7.8079585258    15.3323983806
Ni      4.9056528400     1.4213839479    15.3338946801
Ni      6.1331256112     3.5504554085    15.3355215655
Ni      7.3617298032     5.6796615701    15.3355474786
Ni      8.5912194679     7.8073028943    15.3337351879
Ni      7.3625477369     1.4206024006    15.3340662203
Ni      8.5915631792     3.5487446864    15.3362550014
Ni      9.8203948864     5.6787092777    15.3342601215
Ni     11.0489814908     7.8077973427    15.3333508104
Ni      9.8204542476     1.4213291549    15.3350080002
Ni     11.0492526386     3.5489393736    15.3382545300
Ni     12.2781855447     5.6777944189    15.3343304487
Ni     13.5064655008     7.8066426179    15.3314470085
Ni      1.2146853896     0.7129336309    17.3841510469
Ni      2.4447357821     2.8459412905    17.3888393139
Ni      3.6707067576     4.9727658074    17.3878777145
Ni      4.9020900559     7.1018622682    17.3837050338
Ni      3.6899306795     0.7016868138    17.3687390549
Ni      4.8965648095     2.8371777419    17.3869757385
Ni      6.1203236989     4.9860022224    17.3658325267
Ni      7.3585280677     7.1040735924    17.3854095710
Ni      6.1320607786     0.7086035196    17.3886257630
Ni      7.3647562490     2.8228161950    17.3560567449
Ni      8.5841388077     4.9760918028    17.3625796727
Ni      9.8194815881     7.1061281664    17.3782070421
Ni      8.5916672254     0.7095665326    17.3851440974
Ni      9.8199942298     2.8334003171    17.3825611792
Ni     11.0558655617     4.9777664063    17.3723597269
Ni     12.2778208930     7.1009208758    17.3828488617
O       8.0909910823     3.3775823576    21.2625149168
O       8.6981548955     5.3291210474    19.1775876098
O       9.8466431721     3.8696604889    23.6316857263
C       9.1383312197     4.3487938215    21.3846636453
C       9.6931618191     4.7692228278    20.0120533806
C      10.2882348713     3.8377756257    22.2644372287
H       8.6835879003     5.2069736543    21.8718445520
H      10.1523308655     3.8594506773    19.5381878687
H      10.5210887341     5.4932095673    20.1577155498
H      11.1732119406     4.4996160518    22.1308346202
H      10.5618022644     2.8250040757    21.9552218843
H       8.3445405642     2.7301943373    20.5675890861
H       6.1715169953     3.5626776505    18.3335476744
H      10.5842891461     3.5965143854    24.2002053757
O       2.5138829642     1.4542847404    18.7946242173
H       2.6444968078     1.4813210524    19.7696786602
80
Step 3 | NEB Image 3 | Cartesian Angstrom
Ni      1.2285272299     0.7093135493    11.2498116952
Ni      2.4571334616     2.8374326212    11.2496880148
Ni      3.6857732317     4.9655863709    11.2496049690
Ni      4.9144632720     7.0937377784    11.2496248964
Ni      3.6858273543     0.7092611110    11.2496322311
Ni      4.9144586653     2.8374015631    11.2494541031
Ni      6.1431321385     4.9655907660    11.2493873222
Ni      7.3718401428     7.0937624245    11.2494927337
Ni      6.1431965549     0.7092102945    11.2495112257
Ni      7.3718707544     2.8373669175    11.2493399104
Ni      8.6005663537     4.9655740830    11.2493364906
Ni      9.8292530912     7.0937455739    11.2495117280
Ni      8.6005924528     0.7092013934    11.2495336318
Ni      9.8292908314     2.8373637004    11.2494399771
Ni     11.0579716690     4.9655558999    11.2494962025
Ni     12.2866143196     7.0937037253    11.2496667094
Ni      9.8233891065     0.0020760676    13.3015778316
Ni     11.0521604145     2.1299158447    13.3036844158
Ni     12.2804807236     4.2570223003    13.3034897388
Ni     13.5096412115     6.3851722309    13.3026166697
Ni      2.4514954583     0.0019235298    13.3020678836
Ni      3.6799050735     2.1302106331    13.3030128098
Ni      4.9082835633     4.2580557604    13.3039628328
Ni      6.1368906391     6.3861955974    13.3019184006
Ni      4.9084983174     0.0013850961    13.3014155548
Ni      6.1371774114     2.1306293219    13.3039142019
Ni      7.3659695889     4.2582690775    13.3048769256
Ni      8.5943256551     6.3858309554    13.3031659481
Ni      7.3652315481     0.0018262431    13.3009834685
Ni      8.5944029905     2.1300234616    13.3027424260
Ni      9.8234977172     4.2572040479    13.3039661483
Ni     11.0521215669     6.3859940830    13.3020666957
Ni      2.4477295856     1.4221490375    15.3338990658
Ni      3.6752586290     3.5498905640    15.3352707187
Ni      4.9040781290     5.6792864374    15.3341005235
Ni      6.1336427099     7.8084812322    15.3313471584
Ni      4.9055032897     1.4209100476    15.3314627829
Ni      6.1328679253     3.5506395686    15.3327596768
Ni      7.3610811032     5.6801490067    15.3324185516
Ni      8.5912446457     7.8081833414    15.3318115634
Ni      7.3627898198     1.4197882175    15.3317806250
Ni      8.5921020982     3.5478631121    15.3327834063
Ni      9.8213365318     5.6790919448    15.3308265593
Ni     11.0496497853     7.8084845003    15.3318673663
Ni      9.8210137234     1.4206785202    15.3335671270
Ni     11.0500561552     3.5483449649    15.3365419532
Ni     12.2791469566     5.6779453144    15.3328347643
Ni     13.5069355459     7.8069080026    15.3309082239
Ni      1.2152904141     0.7135450850    17.3850652943
Ni      2.4435241890     2.8442729173    17.3896010679
Ni      3.6686996535     4.9746351722    17.3856005942
Ni      4.9010199643     7.1027579784    17.3826011148
Ni      3.6901097865     0.7000034953    17.3512866556
Ni      4.8875522158     2.8387131203    17.3628079128
Ni      6.1170229085     4.9862831169    17.3600048037
Ni      7.3555573915     7.1097215209    17.3753586713
Ni      6.1329880345     0.7023128415    17.3796195836
Ni      7.3708520677     2.8244844866    17.3405901729
Ni      8.5895195088     4.9674500213    17.3288869057
Ni      9.8229835563     7.1134652507    17.3656650601
Ni      8.5932310730     0.7054038886    17.3796132318
Ni      9.8235938909     2.8315988191    17.3770633080
Ni     11.0644290528     4.9730557446    17.3582744289
Ni     12.2810966735     7.1029030360    17.3797327273
O       8.6291668856     3.2015927061    20.3697864560
O       8.6264148537     5.8269803419    18.9851347443
O       9.2942127627     3.4091065660    23.1865561575
C       8.9027653929     4.4285479886    21.0415735330
C       9.4864173791     5.4186043100    20.0408782238
C       9.9075118343     4.2235675496    22.1693238380
H       7.9694160830     4.8427105565    21.4727065683
H      10.4033736814     4.9545295323    19.6154420203
H       9.7861769174     6.3246525872    20.5889063462
H      10.2146972395     5.1958485593    22.5824989310
H      10.7976772079     3.7136558629    21.7609410469
H       8.4012964945     2.5329112042    21.0364544937
H       6.1110411161     3.5295409007    18.2896193742
H       9.9470202470     3.2342584206    23.8668046346
O       2.4869332882     0.4505568072    18.8643874895
H       2.5211946985     1.1468414555    19.5444842945
80
Step 4 | NEB Image 4 | Cartesian Angstrom
Ni      1.2285475717     0.7093213556    11.2498400990
Ni      2.4571570460     2.8374374923    11.2497134455
Ni      3.6858039845     4.9655881258    11.2496338348
Ni      4.9144900741     7.0937278290    11.2496562130
Ni      3.6858395832     0.7092705053    11.2496601168
Ni      4.9144822856     2.8374084174    11.2494779691
Ni      6.1431601198     4.9655869620    11.2494164068
Ni      7.3718603317     7.0937495908    11.2495081612
Ni      6.1432065025     0.7092178546    11.2495197000
Ni      7.3718908742     2.8373688701    11.2493527094
Ni      8.6005881318     4.9655631958    11.2493427270
Ni      9.8292738382     7.0937354256    11.2495043943
Ni      8.6006031355     0.7091999031    11.2495209511
Ni      9.8293088278     2.8373568567    11.2494274425
Ni     11.0579949236     4.9655454986    11.2494808925
Ni     12.2866357566     7.0936986291    11.2496490882
Ni      9.8234258141     0.0020494660    13.3015127952
Ni     11.0522211763     2.1298943606    13.3036317069
Ni     12.2805449014     4.2569933740    13.3034703199
Ni     13.5096955633     6.3851503401    13.3025848963
Ni      2.4515247401     0.0019630731    13.3021661633
Ni      3.6799293989     2.1302188907    13.3030306977
Ni      4.9083996327     4.2580918804    13.3040019511
Ni      6.1369690785     6.3861528344    13.3019800278
Ni      4.9084990859     0.0014052103    13.3014304903
Ni      6.1372676484     2.1306722713    13.3039277619
Ni      7.3660680332     4.2582415424    13.3049444609
Ni      8.5944091557     6.3857713134    13.3031427073
Ni      7.3652656454     0.0018382659    13.3009410754
Ni      8.5944600036     2.1300330139    13.3027496179
Ni      9.8235828637     4.2571536697    13.3039659232
Ni     11.0522109392     6.3859448503    13.3020328990
Ni      2.4478056267     1.4220907232    15.3343824533
Ni      3.6750856668     3.5502908747    15.3346005535
Ni      4.9046317443     5.6792254591    15.3345297815
Ni      6.1337257452     7.8083610387    15.3312342869
Ni      4.9053379447     1.4207381894    15.3310189174
Ni      6.1339716492     3.5510224520    15.3330550323
Ni      7.3613763800     5.6796719196    15.3324376012
Ni      8.5915692912     7.8081687215    15.3313627874
Ni      7.3632724587     1.4203959936    15.3318988441
Ni      8.5922944308     3.5475071049    15.3331297649
Ni      9.8220374326     5.6786743647    15.3307167132
Ni     11.0500174520     7.8084224409    15.3315944209
Ni      9.8211732143     1.4206602976    15.3334039388
Ni     11.0503466399     3.5483221186    15.3367774765
Ni     12.2792445418     5.6776643328    15.3330683554
Ni     13.5070839933     7.8068701537    15.3308317057
Ni      1.2174177440     0.7141828910    17.3868513675
Ni      2.4431774122     2.8431735789    17.3888649539
Ni      3.6700713901     4.9760680296    17.3854193960
Ni      4.9017702303     7.1019760747    17.3827819726
Ni      3.6799443874     0.7063470353    17.3611042428
Ni      4.8888287457     2.8492519855    17.3416999285
Ni      6.1200645825     4.9784976314    17.3699995889
Ni      7.3561450959     7.1114332755    17.3696551274
Ni      6.1372767156     0.6984520327    17.3697132275
Ni      7.3717230493     2.8337756389    17.3575516428
Ni      8.6021511147     4.9572478859    17.3253188888
Ni      9.8271200392     7.1136475510    17.3609997800
Ni      8.5940658991     0.7053177227    17.3787494900
Ni      9.8257548174     2.8326496431    17.3765418746
Ni     11.0627366879     4.9683425120    17.3679955554
Ni     12.2822373106     7.1022085899    17.3793564325
O       9.1272517191     3.4653607993    20.0046610288
O       7.7848043486     5.7460031619    18.8544961543
O       8.9766047370     3.2779397237    22.8114716259
C       8.4747187513     4.4614247818    20.8105987912
C       8.5155894149     5.7920214454    20.0847561290
C       9.1451768981     4.5490315802    22.1686063445
H       7.4110587219     4.1756024885    20.9535342576
H       9.5823069665     6.0521723484    19.8589506600
H       8.0971266840     6.5781551792    20.7123085537
H       8.6901844100     5.3608954736    22.7668164934
H      10.2220609151     4.7790150447    22.0237208231
H       9.0328036386     2.5951843325    20.4731404812
H       6.1280968370     2.1197864952    18.2937101635
H       9.5495002800     3.2407637935    23.5952655411
O       2.4688967539     0.4947108788    18.9046063694
H       2.4876336356     1.2739801703    19.5156644195
80
Step 5 | NEB Image 5 | Cartesian Angstrom
Ni      1.2286497034     0.7093615225    11.2499999440
Ni      2.4572989609     2.8374461750    11.2499999440
Ni      3.6859482184     4.9655308275    11.2499999440
Ni      4.9145974759     7.0936154800    11.2499999440
Ni      3.6859497034     0.7093615225    11.2499999440
Ni      4.9145989609     2.8374461750    11.2499999440
Ni      6.1432482184     4.9655308275    11.2499999440
Ni      7.3718974759     7.0936154800    11.2499999440
Ni      6.1432497034     0.7093615225    11.2499999440
Ni      7.3718989609     2.8374461750    11.2499999440
Ni      8.6005482184     4.9655308275    11.2499999440
Ni      9.8291974759     7.0936154800    11.2499999440
Ni      8.6005497034     0.7093615225    11.2499999440
Ni      9.8291989609     2.8374461750    11.2499999440
Ni     11.0578482184     4.9655308275    11.2499999440
Ni     12.2864974759     7.0936154800    11.2499999440
Ni      9.8231926870     0.0024995631    13.3023446442
Ni     11.0518089676     2.1302240586    13.3047083557
Ni     12.2800508544     4.2570722939    13.3044621680
Ni     13.5092873083     6.3850384546    13.3032134512
Ni      2.4517696982     0.0021660497    13.3026623307
Ni      3.6803278881     2.1303359107    13.3041135630
Ni      4.9088074938     4.2579363814    13.3054287544
Ni      6.1372745671     6.3857877107    13.3032783798
Ni      4.9086517115     0.0018312594    13.3024060945
Ni      6.1374036838     2.1309748468    13.3056096270
Ni      7.3661495135     4.2582451239    13.3069522585
Ni      8.5943413203     6.3854189562    13.3048451696
Ni      7.3652044956     0.0023769003    13.3020219334
Ni      8.5942385662     2.1304695544    13.3043868044
Ni      9.8231946918     4.2572739512    13.3057506922
Ni     11.0517679695     6.3857120360    13.3033344194
Ni      2.4490339821     1.4222228929    15.3362210124
Ni      3.6772966574     3.5494520554    15.3385526461
Ni      4.9062018672     5.6779299780    15.3378106046
Ni      6.1346571942     7.8070606266    15.3335999053
Ni      4.9058225197     1.4219699914    15.3362206260
Ni      6.1346426084     3.5508505475    15.3401418518
Ni      7.3625330027     5.6784279498    15.3395242568
Ni      8.5915701206     7.8062468470    15.3354851546
Ni      7.3627071376     1.4224398724    15.3370388041
Ni      8.5913286772     3.5492677633    15.3408174188
Ni      9.8201850849     5.6778143804    15.3377746619
Ni     11.0486433115     7.8070023171    15.3347462049
Ni      9.8200953547     1.4222882677    15.3366654644
Ni     11.0486075444     3.5492992589    15.3407265960
Ni     12.2774144623     5.6772885732    15.3359640033
Ni     13.5061541972     7.8063455902    15.3319299253
Ni      1.2187910631     0.7145173608    17.3879334314
Ni      2.4472474227     2.8420654806    17.3934581627
Ni      3.6755426811     4.9714604374    17.3911199588
Ni      4.9045369929     7.0990999797    17.3858410289
Ni      3.6755273590     0.7130852450    17.3897672789
Ni      4.9037000473     2.8423806074    17.3934481142
Ni      6.1319553005     4.9726957480    17.3963328007
Ni      7.3614524743     7.0997441935    17.3897409983
Ni      6.1332850561     0.7119051795    17.3902534707
Ni      7.3623531846     2.8409773484    17.3961534740
Ni      8.5911690953     4.9716069348    17.3936888912
Ni      9.8197669951     7.1000577029    17.3889506467
Ni      8.5911411426     0.7131642395    17.3880087950
Ni      9.8198330590     2.8408219131    17.3957136598
Ni     11.0487030798     4.9704125685    17.3927698418
Ni     12.2763266601     7.0989938309    17.3852102935
O       9.3819344244     4.1358166692    20.0930362367
O       7.4403591999     5.7710500252    18.8010456662
O       8.6054614657     3.3490556865    22.7703843692
C       8.1664603160     4.5686069475    20.7700096311
C       7.7641571257     5.9228005922    20.1887078083
C       8.3912004598     4.6889035721    22.2787219386
H       7.3485584428     3.8274455412    20.5710354409
H       8.5939941550     6.6612606078    20.2727262356
H       6.8675792875     6.3118286823    20.7285291220
H       7.5127131407     5.1500412147    22.7730789076
H       9.2780443246     5.3384479547    22.4478370724
H       9.6348023466     3.2728259917    20.4951539629
H       4.4134518168     1.3599542848    19.7391102444
H       8.7500633813     3.3953291848    23.7317250903
O       3.5190441201     1.0401590876    20.0091886335
H       2.9303167551     1.7729858078    19.7218291788
