80
Step 1 | NEB Image 1 | Cartesian Angstrom
Ni      1.2286497034     0.7093615225    11.2499999440
Ni      2.4572989609     2.8374461750    11.2499999440
Ni      3.6859482184     4.9655308275    11.2499999440
Ni      4.9145974759     7.0936154800    11.2499999440
Ni      3.6859497034     0.7093615225    11.2499999440
Ni      4.9145989609     2.8374461750    11.2499999440
Ni      6.1432482184     4.9655308275    11.2499999440
Ni      7.3718974759     7.0936154800    11.2499999440
Ni      6.1432497034     0.7093615225    11.2499999440
Ni      7.3718989609     2.8374461750    11.2499999440
Ni      8.6005482184     4.9655308275    11.2499999440
Ni      9.8291974759     7.0936154800    11.2499999440
Ni      8.6005497034     0.7093615225    11.2499999440
Ni      9.8291989609     2.8374461750    11.2499999440
Ni     11.0578482184     4.9655308275    11.2499999440
Ni     12.2864974759     7.0936154800    11.2499999440
Ni      9.8231926870     0.0024995631    13.3023446442
Ni     11.0518089676     2.1302240586    13.3047083557
Ni     12.2800508544     4.2570722939    13.3044621680
Ni     13.5092873083     6.3850384546    13.3032134512
Ni      2.4517696982     0.0021660497    13.3026623307
Ni      3.6803278881     2.1303359107    13.3041135630
Ni      4.9088074938     4.2579363814    13.3054287544
Ni      6.1372745671     6.3857877107    13.3032783798
Ni      4.9086517115     0.0018312594    13.3024060945
Ni      6.1374036838     2.1309748468    13.3056096270
Ni      7.3661495135     4.2582451239    13.3069522585
Ni      8.5943413203     6.3854189562    13.3048451696
Ni      7.3652044956     0.0023769003    13.3020219334
Ni      8.5942385662     2.1304695544    13.3043868044
Ni      9.8231946918     4.2572739512    13.3057506922
Ni     11.0517679695     6.3857120360    13.3033344194
Ni      2.4490339821     1.4222228929    15.3362210124
Ni      3.6772966574     3.5494520554    15.3385526461
Ni      4.9062018672     5.6779299780    15.3378106046
Ni      6.1346571942     7.8070606266    15.3335999053
Ni      4.9058225197     1.4219699914    15.3362206260
Ni      6.1346426084     3.5508505475    15.3401418518
Ni      7.3625330027     5.6784279498    15.3395242568
Ni      8.5915701206     7.8062468470    15.3354851546
Ni      7.3627071376     1.4224398724    15.3370388041
Ni      8.5913286772     3.5492677633    15.3408174188
Ni      9.8201850849     5.6778143804    15.3377746619
Ni     11.0486433115     7.8070023171    15.3347462049
Ni      9.8200953547     1.4222882677    15.3366654644
Ni     11.0486075444     3.5492992589    15.3407265960
Ni     12.2774144623     5.6772885732    15.3359640033
Ni     13.5061541972     7.8063455902    15.3319299253
Ni      1.2187910631     0.7145173608    17.3879334314
Ni      2.4472474227     2.8420654806    17.3934581627
Ni      3.6755426811     4.9714604374    17.3911199588
Ni      4.9045369929     7.0990999797    17.3858410289
Ni      3.6755273590     0.7130852450    17.3897672789
Ni      4.9037000473     2.8423806074    17.3934481142
Ni      6.1319553005     4.9726957480    17.3963328007
Ni      7.3614524743     7.0997441935    17.3897409983
Ni      6.1332850561     0.7119051795    17.3902534707
Ni      7.3623531846     2.8409773484    17.3961534740
Ni      8.5911690953     4.9716069348    17.3936888912
Ni      9.8197669951     7.1000577029    17.3889506467
Ni      8.5911411426     0.7131642395    17.3880087950
Ni      9.8198330590     2.8408219131    17.3957136598
Ni     11.0487030798     4.9704125685    17.3927698418
Ni     12.2763266601     7.0989938309    17.3852102935
O       8.1853233808     3.4574048182    21.7117206478
O       8.5869329741     5.0599815235    19.5762271001
O      10.2109211163     3.6451020548    23.8826602062
C       9.3606393600     4.2890487236    21.7367471584
C       9.7574736302     4.6321502783    20.3055951979
C      10.5272793641     3.6720453941    22.4918474794
H       9.0423459569     5.1976070563    22.2680419510
H      10.2036708160     3.7499198429    19.8025973096
H      10.4835571337     5.4542343167    20.2475656164
H      11.4351836342     4.2717022800    22.2942344717
H      10.7115000118     2.6514065461    22.0984614952
H       8.4384371395     2.5707271966    21.3925898339
H       7.8511829079     4.4818016084    19.8831003151
H      11.0040911060     3.3843978098    24.3788521822
O       2.4676593393     1.4045078651    18.8058894197
H       2.5804189712     1.3115658959    19.7657035449
80
Step 2 | NEB Image 2 | Cartesian Angstrom
Ni      1.2285486706     0.7093180319    11.2498406569
Ni      2.4571626844     2.8374311217    11.2497412034
Ni      3.6858017446     4.9655741887    11.2496743079
Ni      4.9144857722     7.0937168678    11.2496950107
Ni      3.6858542506     0.7092770671    11.2497109021
Ni      4.9144849306     2.8374059554    11.2495699816
Ni      6.1431522143     4.9655792654    11.2495178534
Ni      7.3718486643     7.0937336266    11.2496120849
Ni      6.1432065599     0.7092416198    11.2496343264
Ni      7.3718712857     2.8373844186    11.2494993458
Ni      8.6005544416     4.9655695776    11.2495042979
Ni      9.8292297689     7.0937167438    11.2496453887
Ni      8.6005762356     0.7092423029    11.2496643498
Ni      9.8292585657     2.8373892710    11.2495934723
Ni     11.0579277119     4.9655560507    11.2496405163
Ni     12.2865716330     7.0936822033    11.2497679284
Ni      9.8233138618     0.0022000547    13.3018244745
Ni     11.0520334836     2.1300113341    13.3039785891
Ni     12.2803271096     4.2570631583    13.3037757097
Ni     13.5095072536     6.3851447151    13.3028112039
Ni      2.4515629620     0.0019546235    13.3021789727
Ni      3.6800078091     2.1302201104    13.3032590769
Ni      4.9083656498     4.2580110614    13.3042582864
Ni      6.1369646918     6.3861274541    13.3022113233
Ni      4.9085359629     0.0014845864    13.3016882288
Ni      6.1371979443     2.1306811705    13.3043281950
Ni      7.3659854539     4.2582790645    13.3053643515
Ni      8.5942995598     6.3857520745    13.3036290517
Ni      7.3652083566     0.0019619141    13.3012910071
Ni      8.5943314205     2.1301322156    13.3031712195
Ni      9.8233735672     4.2572590917    13.3044510829
Ni     11.0519777940     6.3859391067    13.3024470506
Ni      2.4481450374     1.4220899657    15.3341723458
Ni      3.6758881634     3.5496103745    15.3362113659
Ni      4.9042916522     5.6790814983    15.3346093754
Ni      6.1339100617     7.8082033286    15.3319888850
Ni      4.9055954349     1.4211939316    15.3330091589
Ni      6.1328557633     3.5504440920    15.3342462968
Ni      7.3614671395     5.6799447859    15.3342731825
Ni      8.5911768096     7.8076530464    15.3330472651
Ni      7.3625813407     1.4201601821    15.3331258123
Ni      8.5917212280     3.5484675917    15.3348194869
Ni      9.8206425032     5.6789219285    15.3329765154
Ni     11.0491832587     7.8080669336    15.3328138049
Ni      9.8206340243     1.4210465132    15.3344453363
Ni     11.0495279770     3.5487505798    15.3375163271
Ni     12.2785160274     5.6778993624    15.3337562253
Ni     13.5066177887     7.8067454530    15.3312550760
Ni      1.2142669167     0.7128624284    17.3838506902
Ni      2.4441133666     2.8460727713    17.3884020202
Ni      3.6695760335     4.9733766501    17.3869044380
Ni      4.9015047739     7.1024488494    17.3831561473
Ni      3.6919552563     0.6997279303    17.3617419288
Ni      4.8934692531     2.8367933032    17.3804886016
Ni      6.1179661714     4.9878925696    17.3603099091
Ni      7.3574300198     7.1059829112    17.3824772753
Ni      6.1320958531     0.7066901919    17.3863230490
Ni      7.3665164117     2.8207273431    17.3469337136
Ni      8.5844083186     4.9746980986    17.3504493359
Ni      9.8202522566     7.1086778240    17.3738192822
Ni      8.5921038387     0.7080992702    17.3834554271
Ni      9.8208570468     2.8319721661    17.3794961073
Ni     11.0588605035     4.9776625828    17.3662421687
Ni     12.2787909614     7.1016516639    17.3817964939
O       8.0745090368     3.3159504848    21.2356580405
O       8.5636589269     5.2779292776    19.1729157955
O       9.7268101727     3.8195914238    23.6327306082
C       9.0358716076     4.3507065027    21.3909926477
C       9.5914302406     4.8555867592    20.0444920994
C      10.2045422490     3.9324862893    22.2940730981
H       8.4952843862     5.1691709334    21.8886813968
H      10.1877764509     4.0230293964    19.5924085989
H      10.3028927750     5.6848522123    20.2291968199
H      11.0139429935     4.6843306938    22.2228294845
H      10.6031427413     2.9668711607    21.9263329959
H       8.4501987260     2.6283957177    20.6356317977
H       6.1397570426     3.5417332284    18.3104931302
H      10.4728905541     3.5618737568    24.2067326408
O       2.5185273814     1.4388300129    18.8005719791
H       2.6452318567     1.4484543721    19.7446421939
80
Step 3 | NEB Image 3 | Cartesian Angstrom
Ni      1.2285171624     0.7093110154    11.2497977334
Ni      2.4571198759     2.8374328240    11.2496636143
Ni      3.6857595619     4.9655915145    11.2495734508
Ni      4.9144524719     7.0937473649    11.2495933265
Ni      3.6858155560     0.7092536411    11.2495977943
Ni      4.9144465124     2.8373991377    11.2494037941
Ni      6.1431224436     4.9655958840    11.2493306238
Ni      7.3718356781     7.0937752855    11.2494419836
Ni      6.1431919036     0.7091966096    11.2494595961
Ni      7.3718695892     2.8373594122    11.2492725912
Ni      8.6005702924     4.9655766407    11.2492662987
Ni      9.8292617067     7.0937581228    11.2494567548
Ni      8.6005986076     0.7091843887    11.2494801864
Ni      9.8293032681     2.8373534959    11.2493769705
Ni     11.0579886219     4.9655565047    11.2494373984
Ni     12.2866307693     7.0937128935    11.2496259529
Ni      9.8234179916     0.0020260562    13.3014797995
Ni     11.0522094705     2.1298776209    13.3035651867
Ni     12.2805404185     4.2570077024    13.3033732915
Ni     13.5096930029     6.3851846883    13.3025389265
Ni      2.4514663714     0.0019076922    13.3020165121
Ni      3.6798612860     2.1302051520    13.3029076785
Ni      4.9082431478     4.2580725626    13.3038340665
Ni      6.1368562186     6.3862272626    13.3017914843
Ni      4.9084825208     0.0013422449    13.3013026587
Ni      6.1371641981     2.1306044201    13.3037402173
Ni      7.3659585081     4.2582666112    13.3046694803
Ni      8.5943324727     6.3858670022    13.3029756010
Ni      7.3652393244     0.0017690893    13.3008589429
Ni      8.5944295214     2.1299775801    13.3025640616
Ni      9.8235443837     4.2571846601    13.3037657730
Ni     11.0521759048     6.3860193430    13.3019124152
Ni      2.4475591248     1.4221707588    15.3337532895
Ni      3.6750074095     3.5499864876    15.3349032620
Ni      4.9039547777     5.6793817128    15.3338512025
Ni      6.1335294820     7.8086052786    15.3310867249
Ni      4.9054700909     1.4207972813    15.3308498891
Ni      6.1328154657     3.5506959790    15.3321089478
Ni      7.3609129403     5.6802609474    15.3316475161
Ni      8.5912551776     7.8084026503    15.3313263083
Ni      7.3628524708     1.4195987098    15.3312169474
Ni      8.5922448635     3.5476353178    15.3319244693
Ni      9.8215831560     5.6791834079    15.3299554560
Ni     11.0498218705     7.8086579600    15.3314927783
Ni      9.8211591210     1.4205231888    15.3332107349
Ni     11.0502590366     3.5481859492    15.3361239475
Ni     12.2793962504     5.6779792982    15.3324513971
Ni     13.5070569982     7.8069756909    15.3307707854
Ni      1.2155469643     0.7137579900    17.3854092262
Ni      2.4432673620     2.8436901823    17.3899947150
Ni      3.6682460256     4.9750939648    17.3850561912
Ni      4.9007732254     7.1029446392    17.3823490574
Ni      3.6899448863     0.6997331931    17.3466941757
Ni      4.8851549913     2.8390556638    17.3565958893
Ni      6.1163794344     4.9861222293    17.3590813628
Ni      7.3547820277     7.1111630399    17.3727498715
Ni      6.1331849019     0.7007073869    17.3773316459
Ni      7.3725092769     2.8253313416    17.3370225875
Ni      8.5909790114     4.9650705887    17.3202909216
Ni      9.8238964937     7.1153762043    17.3625242882
Ni      8.5936433004     0.7043244117    17.3781344152
Ni      9.8245716232     2.8312994113    17.3759291683
Ni     11.0667065228     4.9715724082    17.3546361121
Ni     12.2819629019     7.1034290858    17.3789216706
O       8.6249509319     3.1121048026    20.4506879526
O       8.3481884292     5.6323745843    19.0338593070
O       9.2842868524     3.4215828673    23.2473665952
C       8.8083304195     4.3715086183    21.1078978064
C       9.2801033361     5.3926560668    20.0773361526
C       9.8410364917     4.2579322968    22.2242290863
H       7.8507415893     4.7112515498    21.5471789481
H      10.2433902576     5.0289285266    19.6577121997
H       9.4763152714     6.3479998321    20.5920363114
H      10.0826121202     5.2599228572    22.6179303177
H      10.7604990848     3.8084452148    21.8086624748
H       8.4747806651     2.4404288685    21.1350646190
H       6.0944207857     3.5326218997    18.2841449027
H       9.9663378873     3.2863530025    23.9384950354
O       2.4901095909     0.5070079747    18.8796817006
H       2.5254354543     1.2481745803    19.5184326419
80
Step 4 | NEB Image 4 | Cartesian Angstrom
Ni      1.2285521083     0.7093230208    11.2498467809
Ni      2.4571629265     2.8374380663    11.2497232316
Ni      3.6858105223     4.9655867257    11.2496460586
Ni      4.9144953157     7.0937239921    11.2496681870
Ni      3.6858437254     0.7092737047    11.2496719279
Ni      4.9144875472     2.8374099452    11.2494943278
Ni      6.1431649844     4.9655851195    11.2494349302
Ni      7.3718631164     7.0937448281    11.2495232206
Ni      6.1432085628     0.7092224290    11.2495340000
Ni      7.3718928184     2.8373711636    11.2493719349
Ni      8.6005888617     4.9655614297    11.2493618118
Ni      9.8292733956     7.0937312027    11.2495179183
Ni      8.6006024938     0.7092043232    11.2495335746
Ni      9.8293071900     2.8373588506    11.2494426884
Ni     11.0579926464     4.9655442777    11.2494945037
Ni     12.2866335356     7.0936958312    11.2496577488
Ni      9.8234220347     0.0020600764    13.3015314714
Ni     11.0522142899     2.1299020789    13.3036579782
Ni     12.2805358549     4.2569936109    13.3034974510
Ni     13.5096880216     6.3851453007    13.3026007347
Ni      2.4515343337     0.0019717145    13.3021883338
Ni      3.6799427888     2.1302223858    13.3030620269
Ni      4.9084206977     4.2580905165    13.3040438384
Ni      6.1369844393     6.3861394500    13.3020210369
Ni      4.9085034244     0.0014187448    13.3014599247
Ni      6.1372789935     2.1306838990    13.3039759934
Ni      7.3660787946     4.2582394750    13.3050063444
Ni      8.5944143017     6.3857564549    13.3031894407
Ni      7.3652667000     0.0018544623    13.3009686829
Ni      8.5944583436     2.1300460927    13.3027967098
Ni      9.8235786965     4.2571532951    13.3040170079
Ni     11.0522054495     6.3859341017    13.3020679070
Ni      2.4478495434     1.4220869671    15.3344714368
Ni      3.6751346261     3.5503004378    15.3346517999
Ni      4.9047195099     5.6791868402    15.3346513039
Ni      6.1337600300     7.8083152623    15.3312921473
Ni      4.9053363717     1.4207571524    15.3311325638
Ni      6.1340821517     3.5510470996    15.3332723951
Ni      7.3614371169     5.6795981232    15.3326403505
Ni      8.5915958865     7.8081122063    15.3314446504
Ni      7.3632969699     1.4205028178    15.3320550091
Ni      8.5922805024     3.5475297090    15.3333787525
Ni      9.8220406298     5.6786149454    15.3309152185
Ni     11.0500077829     7.8083755438    15.3316631760
Ni      9.8211540267     1.4207034030    15.3334828825
Ni     11.0503207542     3.5483517213    15.3369085595
Ni     12.2791972042     5.6776305045    15.3331751285
Ni     13.5070686422     7.8068513140    15.3308577257
Ni      1.2176066424     0.7142281535    17.3869992575
Ni      2.4432503532     2.8431001590    17.3888690682
Ni      3.6703319973     4.9760609581    17.3855604864
Ni      4.9019080296     7.1018376864    17.3828782174
Ni      3.6790095053     0.7070391330    17.3628505089
Ni      4.8894143950     2.8499734898    17.3414332469
Ni      6.1206114183     4.9777343877    17.3714489140
Ni      7.3563594638     7.1112334185    17.3697754510
Ni      6.1375416163     0.6985189909    17.3694659203
Ni      7.3714845532     2.8346450859    17.3600300051
Ni      8.6028839744     4.9568551956    17.3270423041
Ni      9.8272515102     7.1132460648    17.3614074730
Ni      8.5940464145     0.7055494231    17.3789734886
Ni      9.8257447017     2.8329276547    17.3769736590
Ni     11.0621418597     4.9680949180    17.3695851148
Ni     12.2821495348     7.1020461868    17.3795034309
O       9.1489722907     3.4284564360    20.0660130542
O       7.7772926473     5.7077015808    18.8671517543
O       8.9665957082     3.2869874192    22.8714450935
C       8.4658574862     4.4273813588    20.8428545358
C       8.5007219579     5.7566216224    20.0994309969
C       9.1261359872     4.5525462181    22.2100847094
H       7.4083201799     4.1263804658    20.9813508864
H       9.5567987734     6.0270909617    19.8923123850
H       8.0545283993     6.5393159651    20.7294790066
H       8.6493194027     5.3640123373    22.7900233536
H      10.1948046586     4.7909390114    22.0706153967
H       9.1054813271     2.5967855008    20.5595697266
H       6.1269913920     2.1570758290    18.2925149136
H       9.5182075062     3.2826341068    23.6726091000
O       2.4736533582     0.5232908142    18.9105001748
H       2.5032454108     1.3107764901    19.4956296423
80
Step 5 | NEB Image 5 | Cartesian Angstrom
Ni      1.2286497034     0.7093615225    11.2499999440
Ni      2.4572989609     2.8374461750    11.2499999440
Ni      3.6859482184     4.9655308275    11.2499999440
Ni      4.9145974759     7.0936154800    11.2499999440
Ni      3.6859497034     0.7093615225    11.2499999440
Ni      4.9145989609     2.8374461750    11.2499999440
Ni      6.1432482184     4.9655308275    11.2499999440
Ni      7.3718974759     7.0936154800    11.2499999440
Ni      6.1432497034     0.7093615225    11.2499999440
Ni      7.3718989609     2.8374461750    11.2499999440
Ni      8.6005482184     4.9655308275    11.2499999440
Ni      9.8291974759     7.0936154800    11.2499999440
Ni      8.6005497034     0.7093615225    11.2499999440
Ni      9.8291989609     2.8374461750    11.2499999440
Ni     11.0578482184     4.9655308275    11.2499999440
Ni     12.2864974759     7.0936154800    11.2499999440
Ni      9.8231926870     0.0024995631    13.3023446442
Ni     11.0518089676     2.1302240586    13.3047083557
Ni     12.2800508544     4.2570722939    13.3044621680
Ni     13.5092873083     6.3850384546    13.3032134512
Ni      2.4517696982     0.0021660497    13.3026623307
Ni      3.6803278881     2.1303359107    13.3041135630
Ni      4.9088074938     4.2579363814    13.3054287544
Ni      6.1372745671     6.3857877107    13.3032783798
Ni      4.9086517115     0.0018312594    13.3024060945
Ni      6.1374036838     2.1309748468    13.3056096270
Ni      7.3661495135     4.2582451239    13.3069522585
Ni      8.5943413203     6.3854189562    13.3048451696
Ni      7.3652044956     0.0023769003    13.3020219334
Ni      8.5942385662     2.1304695544    13.3043868044
Ni      9.8231946918     4.2572739512    13.3057506922
Ni     11.0517679695     6.3857120360    13.3033344194
Ni      2.4490339821     1.4222228929    15.3362210124
Ni      3.6772966574     3.5494520554    15.3385526461
Ni      4.9062018672     5.6779299780    15.3378106046
Ni      6.1346571942     7.8070606266    15.3335999053
Ni      4.9058225197     1.4219699914    15.3362206260
Ni      6.1346426084     3.5508505475    15.3401418518
Ni      7.3625330027     5.6784279498    15.3395242568
Ni      8.5915701206     7.8062468470    15.3354851546
Ni      7.3627071376     1.4224398724    15.3370388041
Ni      8.5913286772     3.5492677633    15.3408174188
Ni      9.8201850849     5.6778143804    15.3377746619
Ni     11.0486433115     7.8070023171    15.3347462049
Ni      9.8200953547     1.4222882677    15.3366654644
Ni     11.0486075444     3.5492992589    15.3407265960
Ni     12.2774144623     5.6772885732    15.3359640033
Ni     13.5061541972     7.8063455902    15.3319299253
Ni      1.2187910631     0.7145173608    17.3879334314
Ni      2.4472474227     2.8420654806    17.3934581627
Ni      3.6755426811     4.9714604374    17.3911199588
Ni      4.9045369929     7.0990999797    17.3858410289
Ni      3.6755273590     0.7130852450    17.3897672789
Ni      4.9037000473     2.8423806074    17.3934481142
Ni      6.1319553005     4.9726957480    17.3963328007
Ni      7.3614524743     7.0997441935    17.3897409983
Ni      6.1332850561     0.7119051795    17.3902534707
Ni      7.3623531846     2.8409773484    17.3961534740
Ni      8.5911690953     4.9716069348    17.3936888912
Ni      9.8197669951     7.1000577029    17.3889506467
Ni      8.5911411426     0.7131642395    17.3880087950
Ni      9.8198330590     2.8408219131    17.3957136598
Ni     11.0487030798     4.9704125685    17.3927698418
Ni     12.2763266601     7.0989938309    17.3852102935
O       9.3819344244     4.1358166692    20.0930362367
O       7.4403591999     5.7710500252    18.8010456662
O       8.6054614657     3.3490556865    22.7703843692
C       8.1664603160     4.5686069475    20.7700096311
C       7.7641571257     5.9228005922    20.1887078083
C       8.3912004598     4.6889035721    22.2787219386
H       7.3485584428     3.8274455412    20.5710354409
H       8.5939941550     6.6612606078    20.2727262356
H       6.8675792875     6.3118286823    20.7285291220
H       7.5127131407     5.1500412147    22.7730789076
H       9.2780443246     5.3384479547    22.4478370724
H       9.6348023466     3.2728259917    20.4951539629
H       4.4134518168     1.3599542848    19.7391102444
H       8.7500633813     3.3953291848    23.7317250903
O       3.5190441201     1.0401590876    20.0091886335
H       2.9303167551     1.7729858078    19.7218291788
