80
Step 1 | NEB Image 1 | Cartesian Angstrom
Ni      1.2286497034     0.7093615225    11.2499999440
Ni      2.4572989609     2.8374461750    11.2499999440
Ni      3.6859482184     4.9655308275    11.2499999440
Ni      4.9145974759     7.0936154800    11.2499999440
Ni      3.6859497034     0.7093615225    11.2499999440
Ni      4.9145989609     2.8374461750    11.2499999440
Ni      6.1432482184     4.9655308275    11.2499999440
Ni      7.3718974759     7.0936154800    11.2499999440
Ni      6.1432497034     0.7093615225    11.2499999440
Ni      7.3718989609     2.8374461750    11.2499999440
Ni      8.6005482184     4.9655308275    11.2499999440
Ni      9.8291974759     7.0936154800    11.2499999440
Ni      8.6005497034     0.7093615225    11.2499999440
Ni      9.8291989609     2.8374461750    11.2499999440
Ni     11.0578482184     4.9655308275    11.2499999440
Ni     12.2864974759     7.0936154800    11.2499999440
Ni      9.8231926870     0.0024995631    13.3023446442
Ni     11.0518089676     2.1302240586    13.3047083557
Ni     12.2800508544     4.2570722939    13.3044621680
Ni     13.5092873083     6.3850384546    13.3032134512
Ni      2.4517696982     0.0021660497    13.3026623307
Ni      3.6803278881     2.1303359107    13.3041135630
Ni      4.9088074938     4.2579363814    13.3054287544
Ni      6.1372745671     6.3857877107    13.3032783798
Ni      4.9086517115     0.0018312594    13.3024060945
Ni      6.1374036838     2.1309748468    13.3056096270
Ni      7.3661495135     4.2582451239    13.3069522585
Ni      8.5943413203     6.3854189562    13.3048451696
Ni      7.3652044956     0.0023769003    13.3020219334
Ni      8.5942385662     2.1304695544    13.3043868044
Ni      9.8231946918     4.2572739512    13.3057506922
Ni     11.0517679695     6.3857120360    13.3033344194
Ni      2.4490339821     1.4222228929    15.3362210124
Ni      3.6772966574     3.5494520554    15.3385526461
Ni      4.9062018672     5.6779299780    15.3378106046
Ni      6.1346571942     7.8070606266    15.3335999053
Ni      4.9058225197     1.4219699914    15.3362206260
Ni      6.1346426084     3.5508505475    15.3401418518
Ni      7.3625330027     5.6784279498    15.3395242568
Ni      8.5915701206     7.8062468470    15.3354851546
Ni      7.3627071376     1.4224398724    15.3370388041
Ni      8.5913286772     3.5492677633    15.3408174188
Ni      9.8201850849     5.6778143804    15.3377746619
Ni     11.0486433115     7.8070023171    15.3347462049
Ni      9.8200953547     1.4222882677    15.3366654644
Ni     11.0486075444     3.5492992589    15.3407265960
Ni     12.2774144623     5.6772885732    15.3359640033
Ni     13.5061541972     7.8063455902    15.3319299253
Ni      1.2187910631     0.7145173608    17.3879334314
Ni      2.4472474227     2.8420654806    17.3934581627
Ni      3.6755426811     4.9714604374    17.3911199588
Ni      4.9045369929     7.0990999797    17.3858410289
Ni      3.6755273590     0.7130852450    17.3897672789
Ni      4.9037000473     2.8423806074    17.3934481142
Ni      6.1319553005     4.9726957480    17.3963328007
Ni      7.3614524743     7.0997441935    17.3897409983
Ni      6.1332850561     0.7119051795    17.3902534707
Ni      7.3623531846     2.8409773484    17.3961534740
Ni      8.5911690953     4.9716069348    17.3936888912
Ni      9.8197669951     7.1000577029    17.3889506467
Ni      8.5911411426     0.7131642395    17.3880087950
Ni      9.8198330590     2.8408219131    17.3957136598
Ni     11.0487030798     4.9704125685    17.3927698418
Ni     12.2763266601     7.0989938309    17.3852102935
O       8.1853233808     3.4574048182    21.7117206478
O       8.5869329741     5.0599815235    19.5762271001
O      10.2109211163     3.6451020548    23.8826602062
C       9.3606393600     4.2890487236    21.7367471584
C       9.7574736302     4.6321502783    20.3055951979
C      10.5272793641     3.6720453941    22.4918474794
H       9.0423459569     5.1976070563    22.2680419510
H      10.2036708160     3.7499198429    19.8025973096
H      10.4835571337     5.4542343167    20.2475656164
H      11.4351836342     4.2717022800    22.2942344717
H      10.7115000118     2.6514065461    22.0984614952
H       8.4384371395     2.5707271966    21.3925898339
H       7.8511829079     4.4818016084    19.8831003151
H      11.0040911060     3.3843978098    24.3788521822
O       2.4676593393     1.4045078651    18.8058894197
H       2.5804189712     1.3115658959    19.7657035449
80
Step 2 | NEB Image 2 | Cartesian Angstrom
Ni      1.2285853306     0.7093319917    11.2498965837
Ni      2.4572122289     2.8374347974    11.2498342938
Ni      3.6858539159     4.9655573684    11.2497923678
Ni      4.9145258653     7.0936803641    11.2498075699
Ni      3.6858913904     0.7093069208    11.2498222576
Ni      4.9145271007     2.8374189579    11.2497350985
Ni      6.1431869800     4.9655612527    11.2497032318
Ni      7.3718657258     7.0936893875    11.2497666715
Ni      6.1432225460     0.7092872917    11.2497840702
Ni      7.3718793585     2.8374084551    11.2497008928
Ni      8.6005482492     4.9655569236    11.2497076244
Ni      9.8292118899     7.0936772441    11.2497959872
Ni      8.6005626401     0.7092914035    11.2498084740
Ni      9.8292295864     2.8374149879    11.2497662019
Ni     11.0578887052     4.9655489767    11.2497965170
Ni     12.2865346007     7.0936552185    11.2498716739
Ni      9.8232512568     0.0023314057    13.3020644793
Ni     11.0519222266     2.1301074541    13.3042956612
Ni     12.2801911419     4.2570812054    13.3040776600
Ni     13.5093945582     6.3851042558    13.3029983501
Ni      2.4516469544     0.0020260550    13.3023576225
Ni      3.6801370630     2.1302562760    13.3035931830
Ni      4.9085216446     4.2579731875    13.3046999943
Ni      6.1370803856     6.3860058214    13.3026231572
Ni      4.9085828523     0.0016200404    13.3019940819
Ni      6.1372639989     2.1307836421    13.3048462628
Ni      7.3660380677     4.2582732195    13.3059967967
Ni      8.5943017228     6.3856281069    13.3041473903
Ni      7.3651985749     0.0021303396    13.3016135706
Ni      8.5942782730     2.1302685402    13.3036764380
Ni      9.8232763072     4.2572840626    13.3050013219
Ni     11.0518643630     6.3858540984    13.3028414190
Ni      2.4485538368     1.4221043723    15.3348542961
Ni      3.6765233961     3.5494607981    15.3372248531
Ni      4.9049122458     5.6786796245    15.3357046228
Ni      6.1342224402     7.8077757124    15.3326859256
Ni      4.9056935699     1.4215194495    15.3344997449
Ni      6.1333582064     3.5504853314    15.3364710520
Ni      7.3619154559     5.6794385386    15.3364564522
Ni      8.5912628943     7.8070554649    15.3342018766
Ni      7.3625393529     1.4209453561    15.3347391755
Ni      8.5914663365     3.5489215863    15.3372834430
Ni      9.8202522017     5.6785439321    15.3351450021
Ni     11.0488551293     7.8076080967    15.3337167924
Ni      9.8203384068     1.4215356851    15.3354035291
Ni     11.0490690888     3.5490596197    15.3387912174
Ni     12.2779660108     5.6777089364    15.3347295279
Ni     13.5063668818     7.8065708565    15.3315767682
Ni      1.2151558670     0.7130689557    17.3845409090
Ni      2.4452165253     2.8456311394    17.3893584653
Ni      3.6715927815     4.9723647410    17.3885853537
Ni      4.9025450343     7.1013867745    17.3841228865
Ni      3.6879990552     0.7034034799    17.3736569561
Ni      4.8986106109     2.8376807141    17.3907817486
Ni      6.1222684397     4.9842037270    17.3705870454
Ni      7.3592782880     7.1028105619    17.3872099655
Ni      6.1321101890     0.7098086233    17.3899399852
Ni      7.3636938054     2.8250203367    17.3632601322
Ni      8.5844148113     4.9765513700    17.3708148795
Ni      9.8190923007     7.1044280974    17.3811614222
Ni      8.5914066898     0.7105514237    17.3861987724
Ni      9.8195336827     2.8346039262    17.3849753899
Ni     11.0538709323     4.9773663284    17.3767847354
Ni     12.2772231171     7.1004234879    17.3835421474
O       8.0999644503     3.4149909371    21.3468975330
O       8.7258799383     5.2729032172    19.1984005063
O       9.9537224504     3.8906465653    23.6489764360
C       9.2007500287     4.3236957473    21.4098847484
C       9.7238113679     4.6902907818    20.0110401486
C      10.3485653315     3.7884099523    22.2762478645
H       8.8078765129     5.2305884803    21.9003312875
H      10.1190642943     3.7431047656    19.5473487291
H      10.5946730515     5.3724160191    20.1079316656
H      11.2664823481     4.3725664168    22.0872149577
H      10.5405301295     2.7342488062    21.9936041910
H       8.2829670112     2.7696196859    20.6350669946
H       6.2098151324     3.5843297018    18.3547974157
H      10.6963871491     3.5980553523    24.2107955496
O       2.5151629366     1.4657959334    18.8032961698
H       2.6418030558     1.4990128681    19.7545438963
80
Step 3 | NEB Image 3 | Cartesian Angstrom
Ni      1.2285349690     0.7093158727    11.2498228692
Ni      2.4571439657     2.8374327768    11.2497074755
Ni      3.6857839053     4.9655824139    11.2496299715
Ni      4.9144715715     7.0937301381    11.2496494092
Ni      3.6858360780     0.7092671644    11.2496580605
Ni      4.9144678388     2.8374037642    11.2494922859
Ni      6.1431394271     4.9655867948    11.2494302620
Ni      7.3718434891     7.0937525805    11.2495303269
Ni      6.1432000398     0.7092207321    11.2495489148
Ni      7.3718717362     2.8373725842    11.2493895779
Ni      8.6005636217     4.9655719052    11.2493877816
Ni      9.8292471127     7.0937362554    11.2495513146
Ni      8.6005881679     0.7092138474    11.2495719960
Ni      9.8292820917     2.8373709301    11.2494854171
Ni     11.0579598167     4.9655551381    11.2495382077
Ni     12.2866029061     7.0936970485    11.2496955388
Ni      9.8233692892     0.0021118662    13.3016466594
Ni     11.0521263501     2.1299428489    13.3037699540
Ni     12.2804393572     4.2570312743    13.3035721594
Ni     13.5096058004     6.3851630367    13.3026706980
Ni      2.4515163168     0.0019368001    13.3021067170
Ni      3.6799369952     2.1302163003    13.3030920931
Ni      4.9083149214     4.2580438994    13.3040625350
Ni      6.1369161332     6.3861704068    13.3020142948
Ni      4.9085099679     0.0014171692    13.3014961343
Ni      6.1371882467     2.1306495968    13.3040425925
Ni      7.3659781148     4.2582701338    13.3050305771
Ni      8.5943214106     6.3858036974    13.3033027168
Ni      7.3652264919     0.0018681601    13.3010718797
Ni      8.5943848431     2.1300572102    13.3028718828
Ni      9.8234656786     4.2572162210    13.3041101846
Ni     11.0520843821     6.3859752482    13.3021755109
Ni      2.4478458789     1.4221407012    15.3340216781
Ni      3.6754368589     3.5498259543    15.3355446023
Ni      4.9041836602     5.6792065646    15.3343095760
Ni      6.1337230665     7.8083861540    15.3315343579
Ni      4.9055300718     1.4209948907    15.3318927474
Ni      6.1329214912     3.5506107884    15.3332615146
Ni      7.3611966812     5.6800578530    15.3329782763
Ni      8.5912425763     7.8080263085    15.3321511154
Ni      7.3627493924     1.4199390552    15.3321898689
Ni      8.5920087581     3.5480168578    15.3334051736
Ni      9.8211745035     5.6790209645    15.3314347441
Ni     11.0495335550     7.8083622080    15.3321294744
Ni      9.8209160265     1.4207958949    15.3338238007
Ni     11.0499148353     3.5484484494    15.3368502181
Ni     12.2789781394     5.6779163374    15.3331001390
Ni     13.5068533791     7.8068608602    15.3310032233
Ni      1.2152153423     0.7134521807    17.3849357761
Ni      2.4437483700     2.8445289631    17.3895061969
Ni      3.6690738563     4.9743070059    17.3860106806
Ni      4.9012184963     7.1025867723    17.3828037338
Ni      3.6899855577     0.7003651599    17.3543899025
Ni      4.8891317459     2.8384791970    17.3669776944
Ni      6.1176642077     4.9861470497    17.3612045442
Ni      7.3560820102     7.1087300241    17.3771014312
Ni      6.1328350384     0.7034082089    17.3811699390
Ni      7.3697994866     2.8243235487    17.3434875014
Ni      8.5886442585     4.9688944352    17.3348329882
Ni      9.8223870870     7.1121761592    17.3678759469
Ni      8.5929610432     0.7061363444    17.3805733145
Ni      9.8229797124     2.8319572796    17.3780922150
Ni     11.0629259611     4.9738065057    17.3608020427
Ni     12.2805288423     7.1025534876    17.3802789613
O       8.6001079059     3.2493529878    20.3529087535
O       8.8155335909     5.8951168246    18.9642608352
O       9.3103559364     3.4348344725    23.1893357905
C       8.9697544380     4.4576155052    21.0247824334
C       9.6356624364     5.3988124292    20.0200589114
C       9.9724632549     4.1866676440    22.1456908825
H       8.0710211357     4.9424332059    21.4635942416
H      10.5029088462     4.8436201073    19.5907423049
H      10.0206894138     6.2730878348    20.5696849529
H      10.3572802695     5.1404235278    22.5436287953
H      10.8139299067     3.6040537577    21.7341014905
H       8.3484594228     2.5896469766    21.0282482005
H       6.1125942030     3.5441998366    18.2964838470
H       9.9536290497     3.2323503089    23.8621857068
O       2.4873692023     0.4600710048    18.8743033224
H       2.5278751742     1.1612364787    19.5512711955
80
Step 4 | NEB Image 4 | Cartesian Angstrom
Ni      1.2285452846     0.7093204511    11.2498367116
Ni      2.4571541545     2.8374370897    11.2497089516
Ni      3.6858006220     4.9655885958    11.2496283221
Ni      4.9144873350     7.0937295896    11.2496507988
Ni      3.6858377323     0.7092689924    11.2496549941
Ni      4.9144796569     2.8374075978    11.2494712495
Ni      6.1431575100     4.9655877651    11.2494087507
Ni      7.3718587138     7.0937517349    11.2495023097
Ni      6.1432054563     0.7092159415    11.2495144206
Ni      7.3718895460     2.8373679740    11.2493454814
Ni      8.6005871761     4.9655642045    11.2493358300
Ni      9.8292732982     7.0937372480    11.2494999672
Ni      8.6006029947     0.7091983921    11.2495170236
Ni      9.8293087879     2.8373564059    11.2494225747
Ni     11.0579949144     4.9655463025    11.2494767448
Ni     12.2866357723     7.0936997662    11.2496467490
Ni      9.8234257915     0.0020466866    13.3015087130
Ni     11.0522214183     2.1298924680    13.3036243739
Ni     12.2805457186     4.2569944660    13.3034618311
Ni     13.5096961270     6.3851528040    13.3025807751
Ni      2.4515205275     0.0019585327    13.3021551157
Ni      3.6799239537     2.1302171339    13.3030187341
Ni      4.9083883347     4.2580911710    13.3039851034
Ni      6.1369611946     6.3861591988    13.3019631943
Ni      4.9084975204     0.0013997077    13.3014200033
Ni      6.1372606715     2.1306665137    13.3039101937
Ni      7.3660611304     4.2582432449    13.3049202906
Ni      8.5944046379     6.3857785325    13.3031273944
Ni      7.3652641148     0.0018321789    13.3009331171
Ni      8.5944586152     2.1300280873    13.3027329981
Ni      9.8235813484     4.2571556911    13.3039483782
Ni     11.0522096819     6.3859502142    13.3020222948
Ni      2.4477892016     1.4220926122    15.3343335651
Ni      3.6750747108     3.5502742020    15.3346024497
Ni      4.9045812206     5.6792425998    15.3344693712
Ni      6.1337115194     7.8083815732    15.3312179735
Ni      4.9053432095     1.4207364561    15.3309957022
Ni      6.1338961088     3.5509998781    15.3329651975
Ni      7.3613470905     5.6797141712    15.3323664009
Ni      8.5915489587     7.8081884965    15.3313504189
Ni      7.3632480043     1.4203375950    15.3318407607
Ni      8.5922915548     3.5475122924    15.3330325343
Ni      9.8220115881     5.6787088650    15.3306550532
Ni     11.0500078842     7.8084401051    15.3315806421
Ni      9.8211736038     1.4206450857    15.3333818861
Ni     11.0503455863     3.5483145181    15.3367236675
Ni     12.2792559499     5.6776856085    15.3330260341
Ni     13.5070837010     7.8068775636    15.3308258311
Ni      1.2172669604     0.7141369168    17.3867240237
Ni      2.4431565437     2.8432613551    17.3888546525
Ni      3.6699302966     4.9760249209    17.3853734384
Ni      4.9016955683     7.1020546486    17.3827395292
Ni      3.6806281808     0.7058802659    17.3602279628
Ni      4.8886117504     2.8486690874    17.3425088147
Ni      6.1197500750     4.9790488067    17.3690943333
Ni      7.3560584714     7.1114402341    17.3698165906
Ni      6.1370521927     0.6985610069    17.3701272257
Ni      7.3717537866     2.8331069077    17.3561074679
Ni      8.6014706019     4.9577505190    17.3248792581
Ni      9.8269339924     7.1137652892    17.3610150621
Ni      8.5940417313     0.7052482688    17.3787173991
Ni      9.8256748880     2.8324964542    17.3763734829
Ni     11.0629716201     4.9686303716    17.3671573265
Ni     12.2822220689     7.1022814398    17.3793240962
O       9.1086881291     3.4343654594    20.0090875158
O       7.8173592422     5.7563464032    18.8622935051
O       8.9913845582     3.2753916990    22.8119168543
C       8.4895037833     4.4616533647    20.8136908275
C       8.5696829157     5.7890761419    20.0748924384
C       9.1916929256     4.5335564213    22.1609937270
H       7.4310332647     4.2094825849    20.9692298566
H       9.6315385755     6.0189519878    19.8443807280
H       8.1711788990     6.5917137200    20.7113684248
H       8.7668151744     5.3641636202    22.7632663246
H      10.2658595861     4.7305815405    21.9983495809
H       8.9978450538     2.5961223066    20.4625308466
H       6.1269052898     2.1482066286    18.2937831153
H       9.5747251810     3.2214155274    23.5855551953
O       2.4722854190     0.5037408128    18.9079413934
H       2.4878331836     1.2685236018    19.5121935924
80
Step 5 | NEB Image 5 | Cartesian Angstrom
Ni      1.2286497034     0.7093615225    11.2499999440
Ni      2.4572989609     2.8374461750    11.2499999440
Ni      3.6859482184     4.9655308275    11.2499999440
Ni      4.9145974759     7.0936154800    11.2499999440
Ni      3.6859497034     0.7093615225    11.2499999440
Ni      4.9145989609     2.8374461750    11.2499999440
Ni      6.1432482184     4.9655308275    11.2499999440
Ni      7.3718974759     7.0936154800    11.2499999440
Ni      6.1432497034     0.7093615225    11.2499999440
Ni      7.3718989609     2.8374461750    11.2499999440
Ni      8.6005482184     4.9655308275    11.2499999440
Ni      9.8291974759     7.0936154800    11.2499999440
Ni      8.6005497034     0.7093615225    11.2499999440
Ni      9.8291989609     2.8374461750    11.2499999440
Ni     11.0578482184     4.9655308275    11.2499999440
Ni     12.2864974759     7.0936154800    11.2499999440
Ni      9.8231926870     0.0024995631    13.3023446442
Ni     11.0518089676     2.1302240586    13.3047083557
Ni     12.2800508544     4.2570722939    13.3044621680
Ni     13.5092873083     6.3850384546    13.3032134512
Ni      2.4517696982     0.0021660497    13.3026623307
Ni      3.6803278881     2.1303359107    13.3041135630
Ni      4.9088074938     4.2579363814    13.3054287544
Ni      6.1372745671     6.3857877107    13.3032783798
Ni      4.9086517115     0.0018312594    13.3024060945
Ni      6.1374036838     2.1309748468    13.3056096270
Ni      7.3661495135     4.2582451239    13.3069522585
Ni      8.5943413203     6.3854189562    13.3048451696
Ni      7.3652044956     0.0023769003    13.3020219334
Ni      8.5942385662     2.1304695544    13.3043868044
Ni      9.8231946918     4.2572739512    13.3057506922
Ni     11.0517679695     6.3857120360    13.3033344194
Ni      2.4490339821     1.4222228929    15.3362210124
Ni      3.6772966574     3.5494520554    15.3385526461
Ni      4.9062018672     5.6779299780    15.3378106046
Ni      6.1346571942     7.8070606266    15.3335999053
Ni      4.9058225197     1.4219699914    15.3362206260
Ni      6.1346426084     3.5508505475    15.3401418518
Ni      7.3625330027     5.6784279498    15.3395242568
Ni      8.5915701206     7.8062468470    15.3354851546
Ni      7.3627071376     1.4224398724    15.3370388041
Ni      8.5913286772     3.5492677633    15.3408174188
Ni      9.8201850849     5.6778143804    15.3377746619
Ni     11.0486433115     7.8070023171    15.3347462049
Ni      9.8200953547     1.4222882677    15.3366654644
Ni     11.0486075444     3.5492992589    15.3407265960
Ni     12.2774144623     5.6772885732    15.3359640033
Ni     13.5061541972     7.8063455902    15.3319299253
Ni      1.2187910631     0.7145173608    17.3879334314
Ni      2.4472474227     2.8420654806    17.3934581627
Ni      3.6755426811     4.9714604374    17.3911199588
Ni      4.9045369929     7.0990999797    17.3858410289
Ni      3.6755273590     0.7130852450    17.3897672789
Ni      4.9037000473     2.8423806074    17.3934481142
Ni      6.1319553005     4.9726957480    17.3963328007
Ni      7.3614524743     7.0997441935    17.3897409983
Ni      6.1332850561     0.7119051795    17.3902534707
Ni      7.3623531846     2.8409773484    17.3961534740
Ni      8.5911690953     4.9716069348    17.3936888912
Ni      9.8197669951     7.1000577029    17.3889506467
Ni      8.5911411426     0.7131642395    17.3880087950
Ni      9.8198330590     2.8408219131    17.3957136598
Ni     11.0487030798     4.9704125685    17.3927698418
Ni     12.2763266601     7.0989938309    17.3852102935
O       9.3819344244     4.1358166692    20.0930362367
O       7.4403591999     5.7710500252    18.8010456662
O       8.6054614657     3.3490556865    22.7703843692
C       8.1664603160     4.5686069475    20.7700096311
C       7.7641571257     5.9228005922    20.1887078083
C       8.3912004598     4.6889035721    22.2787219386
H       7.3485584428     3.8274455412    20.5710354409
H       8.5939941550     6.6612606078    20.2727262356
H       6.8675792875     6.3118286823    20.7285291220
H       7.5127131407     5.1500412147    22.7730789076
H       9.2780443246     5.3384479547    22.4478370724
H       9.6348023466     3.2728259917    20.4951539629
H       4.4134518168     1.3599542848    19.7391102444
H       8.7500633813     3.3953291848    23.7317250903
O       3.5190441201     1.0401590876    20.0091886335
H       2.9303167551     1.7729858078    19.7218291788
