80
Step 1 | NEB Image 1 | Cartesian Angstrom
Ni      1.2286497034     0.7093615225    11.2499999440
Ni      2.4572989609     2.8374461750    11.2499999440
Ni      3.6859482184     4.9655308275    11.2499999440
Ni      4.9145974759     7.0936154800    11.2499999440
Ni      3.6859497034     0.7093615225    11.2499999440
Ni      4.9145989609     2.8374461750    11.2499999440
Ni      6.1432482184     4.9655308275    11.2499999440
Ni      7.3718974759     7.0936154800    11.2499999440
Ni      6.1432497034     0.7093615225    11.2499999440
Ni      7.3718989609     2.8374461750    11.2499999440
Ni      8.6005482184     4.9655308275    11.2499999440
Ni      9.8291974759     7.0936154800    11.2499999440
Ni      8.6005497034     0.7093615225    11.2499999440
Ni      9.8291989609     2.8374461750    11.2499999440
Ni     11.0578482184     4.9655308275    11.2499999440
Ni     12.2864974759     7.0936154800    11.2499999440
Ni      9.8231926870     0.0024995631    13.3023446442
Ni     11.0518089676     2.1302240586    13.3047083557
Ni     12.2800508544     4.2570722939    13.3044621680
Ni     13.5092873083     6.3850384546    13.3032134512
Ni      2.4517696982     0.0021660497    13.3026623307
Ni      3.6803278881     2.1303359107    13.3041135630
Ni      4.9088074938     4.2579363814    13.3054287544
Ni      6.1372745671     6.3857877107    13.3032783798
Ni      4.9086517115     0.0018312594    13.3024060945
Ni      6.1374036838     2.1309748468    13.3056096270
Ni      7.3661495135     4.2582451239    13.3069522585
Ni      8.5943413203     6.3854189562    13.3048451696
Ni      7.3652044956     0.0023769003    13.3020219334
Ni      8.5942385662     2.1304695544    13.3043868044
Ni      9.8231946918     4.2572739512    13.3057506922
Ni     11.0517679695     6.3857120360    13.3033344194
Ni      2.4490339821     1.4222228929    15.3362210124
Ni      3.6772966574     3.5494520554    15.3385526461
Ni      4.9062018672     5.6779299780    15.3378106046
Ni      6.1346571942     7.8070606266    15.3335999053
Ni      4.9058225197     1.4219699914    15.3362206260
Ni      6.1346426084     3.5508505475    15.3401418518
Ni      7.3625330027     5.6784279498    15.3395242568
Ni      8.5915701206     7.8062468470    15.3354851546
Ni      7.3627071376     1.4224398724    15.3370388041
Ni      8.5913286772     3.5492677633    15.3408174188
Ni      9.8201850849     5.6778143804    15.3377746619
Ni     11.0486433115     7.8070023171    15.3347462049
Ni      9.8200953547     1.4222882677    15.3366654644
Ni     11.0486075444     3.5492992589    15.3407265960
Ni     12.2774144623     5.6772885732    15.3359640033
Ni     13.5061541972     7.8063455902    15.3319299253
Ni      1.2187910631     0.7145173608    17.3879334314
Ni      2.4472474227     2.8420654806    17.3934581627
Ni      3.6755426811     4.9714604374    17.3911199588
Ni      4.9045369929     7.0990999797    17.3858410289
Ni      3.6755273590     0.7130852450    17.3897672789
Ni      4.9037000473     2.8423806074    17.3934481142
Ni      6.1319553005     4.9726957480    17.3963328007
Ni      7.3614524743     7.0997441935    17.3897409983
Ni      6.1332850561     0.7119051795    17.3902534707
Ni      7.3623531846     2.8409773484    17.3961534740
Ni      8.5911690953     4.9716069348    17.3936888912
Ni      9.8197669951     7.1000577029    17.3889506467
Ni      8.5911411426     0.7131642395    17.3880087950
Ni      9.8198330590     2.8408219131    17.3957136598
Ni     11.0487030798     4.9704125685    17.3927698418
Ni     12.2763266601     7.0989938309    17.3852102935
O       8.1853233808     3.4574048182    21.7117206478
O       8.5869329741     5.0599815235    19.5762271001
O      10.2109211163     3.6451020548    23.8826602062
C       9.3606393600     4.2890487236    21.7367471584
C       9.7574736302     4.6321502783    20.3055951979
C      10.5272793641     3.6720453941    22.4918474794
H       9.0423459569     5.1976070563    22.2680419510
H      10.2036708160     3.7499198429    19.8025973096
H      10.4835571337     5.4542343167    20.2475656164
H      11.4351836342     4.2717022800    22.2942344717
H      10.7115000118     2.6514065461    22.0984614952
H       8.4384371395     2.5707271966    21.3925898339
H       7.8511829079     4.4818016084    19.8831003151
H      11.0040911060     3.3843978098    24.3788521822
O       2.4676593393     1.4045078651    18.8058894197
H       2.5804189712     1.3115658959    19.7657035449
80
Step 2 | NEB Image 2 | Cartesian Angstrom
Ni      1.2285406121     0.7093151141    11.2498285203
Ni      2.4571517888     2.8374304595    11.2497208266
Ni      3.6857903561     4.9655779676    11.2496483928
Ni      4.9144769920     7.0937248604    11.2496701339
Ni      3.6858458856     0.7092705759    11.2496859139
Ni      4.9144755950     2.8374032294    11.2495329841
Ni      6.1431445713     4.9655832563    11.2494762952
Ni      7.3718449595     7.0937434555    11.2495770108
Ni      6.1432030176     0.7092314147    11.2496000527
Ni      7.3718696623     2.8373790089    11.2494534697
Ni      8.6005561094     4.9655722456    11.2494577400
Ni      9.8292341859     7.0937256458    11.2496105362
Ni      8.6005795389     0.7092310479    11.2496308882
Ni      9.8292655187     2.8373832142    11.2495534956
Ni     11.0579370937     4.9655574385    11.2496041837
Ni     12.2865805799     7.0936883572    11.2497435608
Ni      9.8233291125     0.0021693796    13.3017676228
Ni     11.0520603138     2.1299886943    13.3039047362
Ni     12.2803598503     4.2570580005    13.3037050996
Ni     13.5095346609     6.3851537658    13.3027667576
Ni      2.4515437686     0.0019393597    13.3021394331
Ni      3.6799783470     2.1302126547    13.3031837710
Ni      4.9083316958     4.2580202356    13.3041599419
Ni      6.1369389799     6.3861540355    13.3021188818
Ni      4.9085252702     0.0014540532    13.3016173570
Ni      6.1371840958     2.1306589953    13.3042101268
Ni      7.3659744083     4.2582798319    13.3052208859
Ni      8.5943000973     6.3857795739    13.3035089663
Ni      7.3652111707     0.0019234754    13.3012155214
Ni      8.5943446486     2.1301011468    13.3030550602
Ni      9.8233975203     4.2572520299    13.3043238482
Ni     11.0520057010     6.3859580112    13.3023545589
Ni      2.4480481469     1.4220896527    15.3340274505
Ni      3.6757386460     3.5496505157    15.3359759493
Ni      4.9041610852     5.6791683895    15.3343742562
Ni      6.1338380452     7.8082983110    15.3318267293
Ni      4.9055727284     1.4211190095    15.3326555290
Ni      6.1327567747     3.5504435533    15.3337508959
Ni      7.3613634556     5.6800525603    15.3337711565
Ni      8.5911623661     7.8077913970    15.3327719284
Ni      7.3625974423     1.4199909379    15.3327557326
Ni      8.5917863181     3.5483547044    15.3342548271
Ni      9.8207461791     5.6790031992    15.3324654391
Ni     11.0492659184     7.8081736553    15.3325991878
Ni      9.8207070558     1.4209360102    15.3342225998
Ni     11.0496387781     3.5486736872    15.3372273320
Ni     12.2786490743     5.6779387705    15.3335282454
Ni     13.5066795724     7.8067862314    15.3311781939
Ni      1.2141326182     0.7128492717    17.3837634491
Ni      2.4438744334     2.8460866179    17.3882655187
Ni      3.6691448118     4.9736237829    17.3865232667
Ni      4.9012809460     7.1026697747    17.3829445361
Ni      3.6926649139     0.6990137200    17.3589756879
Ni      4.8922219034     2.8366849643    17.3777833954
Ni      6.1170840725     4.9885566012    17.3582790297
Ni      7.3569918706     7.1067528586    17.3812696068
Ni      6.1321239753     0.7059074151    17.3853556296
Ni      7.3672436975     2.8200314767    17.3434658664
Ni      8.5845999061     4.9740528623    17.3455966673
Ni      9.8205850788     7.1097029841    17.3720586602
Ni      8.5922849641     0.7075104604    17.3827638219
Ni      9.8212245812     2.8314419873    17.3783279982
Ni     11.0600645019     4.9775377751    17.3638457962
Ni     12.2791898704     7.1019435020    17.3813718018
O       8.0649200993     3.2856518833    21.2659441010
O       8.5113749033     5.2109274089    19.1833431199
O       9.6821977062     3.7882992574    23.6514863283
C       8.9804919945     4.3695175772    21.4423247204
C       9.5497512674     4.8783797627    20.0830004006
C      10.1838698192     3.9516929516    22.3301732305
H       8.4378604879     5.1481288212    21.9290404483
H      10.2204706242     4.0977475270    19.6591008191
H      10.1835193058     5.7681665677    20.2849300245
H      10.9530454953     4.7465994476    22.2863746427
H      10.6196382210     3.0252175008    21.9355540044
H       8.4754901633     2.5920418113    20.7428693024
H       6.1025469351     3.5224987366    18.2957852159
H      10.4735237654     3.5208857045    24.2386643753
O       2.5188178497     1.4361347970    18.7860350913
H       2.6537865638     1.4409068858    19.7537527991
80
Step 3 | NEB Image 3 | Cartesian Angstrom
Ni      1.2285129467     0.7093101978    11.2497921183
Ni      2.4571141470     2.8374331669    11.2496533202
Ni      3.6857539807     4.9655938904    11.2495600108
Ni      4.9144480396     7.0937514129    11.2495796347
Ni      3.6858102230     0.7092505688    11.2495822740
Ni      4.9144413189     2.8373983319    11.2493810411
Ni      6.1431184536     4.9655981285    11.2493049737
Ni      7.3718339698     7.0937809352    11.2494183943
Ni      6.1431899192     0.7091904664    11.2494351783
Ni      7.3718694728     2.8373559729    11.2492410564
Ni      8.6005726421     4.9655774972    11.2492330313
Ni      9.8292663499     7.0937638273    11.2494301739
Ni      8.6006018413     0.7091762886    11.2494541789
Ni      9.8293096940     2.8373483994    11.2493464646
Ni     11.0579973893     4.9655564355    11.2494086519
Ni     12.2866393007     7.0937171715    11.2496057533
Ni      9.8234330712     0.0020013964    13.3014305296
Ni     11.0522348401     2.1298585679    13.3035066935
Ni     12.2805711546     4.2569993527    13.3033161740
Ni     13.5097198922     6.3851901625    13.3024999318
Ni      2.4514528728     0.0019017648    13.3019945591
Ni      3.6798408707     2.1302035557    13.3028592800
Ni      4.9082270069     4.2580814340    13.3037764445
Ni      6.1368414698     6.3862404750    13.3017338882
Ni      4.9084750779     0.0013226287    13.3012482522
Ni      6.1371601853     2.1305944415    13.3036583707
Ni      7.3659552726     4.2582645460    13.3045731329
Ni      8.5943376335     6.3858825734    13.3028834469
Ni      7.3652439741     0.0017422082    13.3007976058
Ni      8.5944438291     2.1299560499    13.3024789126
Ni      9.8235692104     4.2571734820    13.3036692424
Ni     11.0522046952     6.3860302553    13.3018363940
Ni      2.4474751870     1.4221839073    15.3337011716
Ni      3.6748819887     3.5500423117    15.3347189386
Ni      4.9039142594     5.6794206066    15.3337544094
Ni      6.1334759314     7.8086597698    15.3309591837
Ni      4.9054525601     1.4207417474    15.3305409908
Ni      6.1328187087     3.5507362827    15.3318185091
Ni      7.3608346304     5.6803005673    15.3312792672
Ni      8.5912690707     7.8085083453    15.3310794979
Ni      7.3628939195     1.4195261580    15.3309496787
Ni      8.5923219743     3.5475138622    15.3315193124
Ni      9.8217227467     5.6792170754    15.3295245057
Ni     11.0499153974     7.8087416151    15.3313036055
Ni      9.8212356223     1.4204509785    15.3330362973
Ni     11.0503644529     3.5481033376    15.3359309422
Ni     12.2795235017     5.6779881457    15.3322657510
Ni     13.5071208920     7.8070083832    15.3307012079
Ni      1.2157661984     0.7139033565    17.3856685909
Ni      2.4431576888     2.8433051172    17.3902679324
Ni      3.6680776129     4.9753422057    17.3848002844
Ni      4.9006791128     7.1030010367    17.3822420333
Ni      3.6895528753     0.6998062333    17.3445603955
Ni      4.8839494880     2.8394211084    17.3530619993
Ni      6.1162177832     4.9857713534    17.3590973591
Ni      7.3544024282     7.1119120751    17.3713196615
Ni      6.1333527859     0.6998325883    17.3759983586
Ni      7.3733952595     2.8261416660    17.3357882215
Ni      8.5920045132     4.9635990984    17.3159639591
Ni      9.8244433291     7.1163437950    17.3609012066
Ni      8.5938708343     0.7037803410    17.3773529584
Ni      9.8251282004     2.8312485040    17.3754835591
Ni     11.0678416982     4.9706081025    17.3530171420
Ni     12.2824295169     7.1036844775    17.3785050370
O       8.6079984845     3.0637897628    20.5044897079
O       8.2338515884     5.5263875305    19.0459527395
O       9.3020118024     3.4268519962    23.3280603118
C       8.7532992833     4.3354263158    21.1471219189
C       9.1646129541     5.3704982438    20.1080294558
C       9.7991123959     4.2640062185    22.2425729652
H       7.7868001926     4.6385145158    21.6009369128
H      10.1640469347     5.0541733207    19.6988975966
H       9.3013469759     6.3372147546    20.6019619407
H      10.0318053002     5.2804139655    22.6267707485
H      10.7228274386     3.8232299443    21.8299147522
H       8.5782552845     2.3803615065    21.2231178782
H       6.1013629008     3.4279378109    18.2971881386
H       9.9347366809     3.3391166866    23.9658306789
O       2.5158284679     0.6276502937    18.9059651935
H       2.5899977109     1.3949213399    19.4567607469
80
Step 4 | NEB Image 4 | Cartesian Angstrom
Ni      1.2285549881     0.7093240382    11.2498509659
Ni      2.4571666386     2.8374384081    11.2497292714
Ni      3.6858146617     4.9655858784    11.2496535997
Ni      4.9144986604     7.0937216236    11.2496756463
Ni      3.6858463606     0.7092756759    11.2496793682
Ni      4.9144909062     2.8374108779    11.2495045129
Ni      6.1431681223     4.9655839769    11.2494464834
Ni      7.3718649332     7.0937418437    11.2495326701
Ni      6.1432098844     0.7092252755    11.2495430134
Ni      7.3718941016     2.8373725881    11.2493839932
Ni      8.6005893874     4.9655603167    11.2493738149
Ni      9.8292731600     7.0937285307    11.2495264504
Ni      8.6006021067     0.7092070882    11.2495415336
Ni      9.8293061896     2.8373601034    11.2494522828
Ni     11.0579912420     4.9655435102    11.2495031063
Ni     12.2866321506     7.0936940522    11.2496632337
Ni      9.8234196467     0.0020667240    13.3015432863
Ni     11.0522099853     2.1299069538    13.3036744570
Ni     12.2805301494     4.2569938560    13.3035147352
Ni     13.5096831996     6.3851420629    13.3026108960
Ni      2.4515405195     0.0019770832    13.3022024749
Ni      3.6799512979     2.1302244056    13.3030814555
Ni      4.9084341491     4.2580897508    13.3040695864
Ni      6.1369943466     6.3861311359    13.3020466272
Ni      4.9085061372     0.0014272244    13.3014786961
Ni      6.1372863227     2.1306911080    13.3040061635
Ni      7.3660858829     4.2582381616    13.3050451949
Ni      8.5944177686     6.3857470083    13.3032189701
Ni      7.3652674183     0.0018646564    13.3009861648
Ni      8.5944573721     2.1300543117    13.3028264047
Ni      9.8235761599     4.2571531094    13.3040493665
Ni     11.0522020424     6.3859272084    13.3020902339
Ni      2.4478784335     1.4220834444    15.3345271911
Ni      3.6751653386     3.5503073337    15.3346806614
Ni      4.9047748622     5.6791636341    15.3347259300
Ni      6.1337821714     7.8082866085    15.3313284053
Ni      4.9053344207     1.4207680754    15.3312043703
Ni      6.1341539590     3.5510625309    15.3334067154
Ni      7.3614773071     5.6795510898    15.3327681400
Ni      8.5916131574     7.8080762767    15.3314961339
Ni      7.3633135881     1.4205707223    15.3321538207
Ni      8.5922711529     3.5475440744    15.3335371231
Ni      9.8220431352     5.6785765229    15.3310428998
Ni     11.0500019785     7.8083453108    15.3317066989
Ni      9.8211415493     1.4207299061    15.3335322557
Ni     11.0503047890     3.5483717904    15.3369914108
Ni     12.2791662189     5.6776086814    15.3332448970
Ni     13.5070587736     7.8068390523    15.3308744306
Ni      1.2177196157     0.7142512891    17.3870839815
Ni      2.4432902369     2.8430708350    17.3888448160
Ni      3.6704956586     4.9760612760    17.3856468050
Ni      4.9019952067     7.1017520733    17.3829370481
Ni      3.6784131269     0.7074780995    17.3640165445
Ni      4.8898083829     2.8504657655    17.3412287186
Ni      6.1209453596     4.9772562063    17.3723327139
Ni      7.3565015350     7.1111070293    17.3698488477
Ni      6.1377258869     0.6985554894    17.3692868175
Ni      7.3713186181     2.8351704852    17.3616162151
Ni      8.6033698949     4.9566051374    17.3281516049
Ni      9.8273415277     7.1129814643    17.3616554623
Ni      8.5940335948     0.7057015088    17.3791256516
Ni      9.8257344006     2.8330889382    17.3772177629
Ni     11.0617418495     4.9679623456    17.3706373134
Ni     12.2820908392     7.1019371946    17.3795999800
O       9.1670099918     3.3630502760    20.1387078933
O       7.7786162737     5.6728608510    18.8828184637
O       8.9394687154     3.2881818041    22.9018178735
C       8.4598136403     4.4001477088    20.8841256177
C       8.4714090716     5.7246151612    20.1389549151
C       9.1211365834     4.5477919327    22.2580441982
H       7.4152886902     4.0798576040    21.0277829948
H       9.5456654250     6.0111700448    19.9346759562
H       8.0238695404     6.4923703902    20.7497457208
H       8.6478646921     5.3655877826    22.8182724148
H      10.1930857457     4.7814192656    22.1115779920
H       9.1785794847     2.6096605327    20.6328061447
H       6.1127031808     2.1416414352    18.3056058149
H       9.5158667796     3.3076703997    23.7809221707
O       2.5402975434     0.6125515031    18.9360751245
H       2.6817563492     1.4059896874    19.4770127833
80
Step 5 | NEB Image 5 | Cartesian Angstrom
Ni      1.2286497034     0.7093615225    11.2499999440
Ni      2.4572989609     2.8374461750    11.2499999440
Ni      3.6859482184     4.9655308275    11.2499999440
Ni      4.9145974759     7.0936154800    11.2499999440
Ni      3.6859497034     0.7093615225    11.2499999440
Ni      4.9145989609     2.8374461750    11.2499999440
Ni      6.1432482184     4.9655308275    11.2499999440
Ni      7.3718974759     7.0936154800    11.2499999440
Ni      6.1432497034     0.7093615225    11.2499999440
Ni      7.3718989609     2.8374461750    11.2499999440
Ni      8.6005482184     4.9655308275    11.2499999440
Ni      9.8291974759     7.0936154800    11.2499999440
Ni      8.6005497034     0.7093615225    11.2499999440
Ni      9.8291989609     2.8374461750    11.2499999440
Ni     11.0578482184     4.9655308275    11.2499999440
Ni     12.2864974759     7.0936154800    11.2499999440
Ni      9.8231926870     0.0024995631    13.3023446442
Ni     11.0518089676     2.1302240586    13.3047083557
Ni     12.2800508544     4.2570722939    13.3044621680
Ni     13.5092873083     6.3850384546    13.3032134512
Ni      2.4517696982     0.0021660497    13.3026623307
Ni      3.6803278881     2.1303359107    13.3041135630
Ni      4.9088074938     4.2579363814    13.3054287544
Ni      6.1372745671     6.3857877107    13.3032783798
Ni      4.9086517115     0.0018312594    13.3024060945
Ni      6.1374036838     2.1309748468    13.3056096270
Ni      7.3661495135     4.2582451239    13.3069522585
Ni      8.5943413203     6.3854189562    13.3048451696
Ni      7.3652044956     0.0023769003    13.3020219334
Ni      8.5942385662     2.1304695544    13.3043868044
Ni      9.8231946918     4.2572739512    13.3057506922
Ni     11.0517679695     6.3857120360    13.3033344194
Ni      2.4490339821     1.4222228929    15.3362210124
Ni      3.6772966574     3.5494520554    15.3385526461
Ni      4.9062018672     5.6779299780    15.3378106046
Ni      6.1346571942     7.8070606266    15.3335999053
Ni      4.9058225197     1.4219699914    15.3362206260
Ni      6.1346426084     3.5508505475    15.3401418518
Ni      7.3625330027     5.6784279498    15.3395242568
Ni      8.5915701206     7.8062468470    15.3354851546
Ni      7.3627071376     1.4224398724    15.3370388041
Ni      8.5913286772     3.5492677633    15.3408174188
Ni      9.8201850849     5.6778143804    15.3377746619
Ni     11.0486433115     7.8070023171    15.3347462049
Ni      9.8200953547     1.4222882677    15.3366654644
Ni     11.0486075444     3.5492992589    15.3407265960
Ni     12.2774144623     5.6772885732    15.3359640033
Ni     13.5061541972     7.8063455902    15.3319299253
Ni      1.2187910631     0.7145173608    17.3879334314
Ni      2.4472474227     2.8420654806    17.3934581627
Ni      3.6755426811     4.9714604374    17.3911199588
Ni      4.9045369929     7.0990999797    17.3858410289
Ni      3.6755273590     0.7130852450    17.3897672789
Ni      4.9037000473     2.8423806074    17.3934481142
Ni      6.1319553005     4.9726957480    17.3963328007
Ni      7.3614524743     7.0997441935    17.3897409983
Ni      6.1332850561     0.7119051795    17.3902534707
Ni      7.3623531846     2.8409773484    17.3961534740
Ni      8.5911690953     4.9716069348    17.3936888912
Ni      9.8197669951     7.1000577029    17.3889506467
Ni      8.5911411426     0.7131642395    17.3880087950
Ni      9.8198330590     2.8408219131    17.3957136598
Ni     11.0487030798     4.9704125685    17.3927698418
Ni     12.2763266601     7.0989938309    17.3852102935
O       9.3819344244     4.1358166692    20.0930362367
O       7.4403591999     5.7710500252    18.8010456662
O       8.6054614657     3.3490556865    22.7703843692
C       8.1664603160     4.5686069475    20.7700096311
C       7.7641571257     5.9228005922    20.1887078083
C       8.3912004598     4.6889035721    22.2787219386
H       7.3485584428     3.8274455412    20.5710354409
H       8.5939941550     6.6612606078    20.2727262356
H       6.8675792875     6.3118286823    20.7285291220
H       7.5127131407     5.1500412147    22.7730789076
H       9.2780443246     5.3384479547    22.4478370724
H       9.6348023466     3.2728259917    20.4951539629
H       4.4134518168     1.3599542848    19.7391102444
H       8.7500633813     3.3953291848    23.7317250903
O       3.5190441201     1.0401590876    20.0091886335
H       2.9303167551     1.7729858078    19.7218291788
