80
Step 1 | NEB Image 1 | Cartesian Angstrom
Ni      1.2286497034     0.7093615225    11.2499999440
Ni      2.4572989609     2.8374461750    11.2499999440
Ni      3.6859482184     4.9655308275    11.2499999440
Ni      4.9145974759     7.0936154800    11.2499999440
Ni      3.6859497034     0.7093615225    11.2499999440
Ni      4.9145989609     2.8374461750    11.2499999440
Ni      6.1432482184     4.9655308275    11.2499999440
Ni      7.3718974759     7.0936154800    11.2499999440
Ni      6.1432497034     0.7093615225    11.2499999440
Ni      7.3718989609     2.8374461750    11.2499999440
Ni      8.6005482184     4.9655308275    11.2499999440
Ni      9.8291974759     7.0936154800    11.2499999440
Ni      8.6005497034     0.7093615225    11.2499999440
Ni      9.8291989609     2.8374461750    11.2499999440
Ni     11.0578482184     4.9655308275    11.2499999440
Ni     12.2864974759     7.0936154800    11.2499999440
Ni      9.8231926870     0.0024995631    13.3023446442
Ni     11.0518089676     2.1302240586    13.3047083557
Ni     12.2800508544     4.2570722939    13.3044621680
Ni     13.5092873083     6.3850384546    13.3032134512
Ni      2.4517696982     0.0021660497    13.3026623307
Ni      3.6803278881     2.1303359107    13.3041135630
Ni      4.9088074938     4.2579363814    13.3054287544
Ni      6.1372745671     6.3857877107    13.3032783798
Ni      4.9086517115     0.0018312594    13.3024060945
Ni      6.1374036838     2.1309748468    13.3056096270
Ni      7.3661495135     4.2582451239    13.3069522585
Ni      8.5943413203     6.3854189562    13.3048451696
Ni      7.3652044956     0.0023769003    13.3020219334
Ni      8.5942385662     2.1304695544    13.3043868044
Ni      9.8231946918     4.2572739512    13.3057506922
Ni     11.0517679695     6.3857120360    13.3033344194
Ni      2.4490339821     1.4222228929    15.3362210124
Ni      3.6772966574     3.5494520554    15.3385526461
Ni      4.9062018672     5.6779299780    15.3378106046
Ni      6.1346571942     7.8070606266    15.3335999053
Ni      4.9058225197     1.4219699914    15.3362206260
Ni      6.1346426084     3.5508505475    15.3401418518
Ni      7.3625330027     5.6784279498    15.3395242568
Ni      8.5915701206     7.8062468470    15.3354851546
Ni      7.3627071376     1.4224398724    15.3370388041
Ni      8.5913286772     3.5492677633    15.3408174188
Ni      9.8201850849     5.6778143804    15.3377746619
Ni     11.0486433115     7.8070023171    15.3347462049
Ni      9.8200953547     1.4222882677    15.3366654644
Ni     11.0486075444     3.5492992589    15.3407265960
Ni     12.2774144623     5.6772885732    15.3359640033
Ni     13.5061541972     7.8063455902    15.3319299253
Ni      1.2187910631     0.7145173608    17.3879334314
Ni      2.4472474227     2.8420654806    17.3934581627
Ni      3.6755426811     4.9714604374    17.3911199588
Ni      4.9045369929     7.0990999797    17.3858410289
Ni      3.6755273590     0.7130852450    17.3897672789
Ni      4.9037000473     2.8423806074    17.3934481142
Ni      6.1319553005     4.9726957480    17.3963328007
Ni      7.3614524743     7.0997441935    17.3897409983
Ni      6.1332850561     0.7119051795    17.3902534707
Ni      7.3623531846     2.8409773484    17.3961534740
Ni      8.5911690953     4.9716069348    17.3936888912
Ni      9.8197669951     7.1000577029    17.3889506467
Ni      8.5911411426     0.7131642395    17.3880087950
Ni      9.8198330590     2.8408219131    17.3957136598
Ni     11.0487030798     4.9704125685    17.3927698418
Ni     12.2763266601     7.0989938309    17.3852102935
O       8.1853233808     3.4574048182    21.7117206478
O       8.5869329741     5.0599815235    19.5762271001
O      10.2109211163     3.6451020548    23.8826602062
C       9.3606393600     4.2890487236    21.7367471584
C       9.7574736302     4.6321502783    20.3055951979
C      10.5272793641     3.6720453941    22.4918474794
H       9.0423459569     5.1976070563    22.2680419510
H      10.2036708160     3.7499198429    19.8025973096
H      10.4835571337     5.4542343167    20.2475656164
H      11.4351836342     4.2717022800    22.2942344717
H      10.7115000118     2.6514065461    22.0984614952
H       8.4384371395     2.5707271966    21.3925898339
H       7.8511829079     4.4818016084    19.8831003151
H      11.0040911060     3.3843978098    24.3788521822
O       2.4676593393     1.4045078651    18.8058894197
H       2.5804189712     1.3115658959    19.7657035449
80
Step 2 | NEB Image 2 | Cartesian Angstrom
Ni      1.2286137523     0.7093434802    11.2499406348
Ni      2.4572506164     2.8374382917    11.2499068359
Ni      3.6858947149     4.9655446912    11.2498840456
Ni      4.9145570950     7.0936519276    11.2498942306
Ni      3.6859192939     0.7093303770    11.2499063250
Ni      4.9145595032     2.8374296214    11.2498599890
Ni      6.1432139317     4.9655474286    11.2498433566
Ni      7.3718791579     7.0936555546    11.2498816701
Ni      6.1432348152     0.7093219630    11.2498941470
Ni      7.3718862891     2.8374265296    11.2498501734
Ni      8.6005448096     4.9655466108    11.2498570000
Ni      9.8292001876     7.0936475925    11.2499049962
Ni      8.6005534949     0.7093274222    11.2499123206
Ni      9.8292097031     2.8374331368    11.2498912182
Ni     11.0578620425     4.9655427522    11.2499084189
Ni     12.2865094637     7.0936352819    11.2499451842
Ni      9.8232093162     0.0024252533    13.3022324133
Ni     11.0518464894     2.1301752803    13.3045230664
Ni     12.2800983656     4.2570899290    13.3042929966
Ni     13.5093188557     6.3850735827    13.3031287941
Ni      2.4517088418     0.0020833673    13.3024949352
Ni      3.6802326211     2.1302864913    13.3038439268
Ni      4.9086440763     4.2579475898    13.3050368572
Ni      6.1371688462     6.3859108451    13.3029339416
Ni      4.9086174940     0.0017216904    13.3022150855
Ni      6.1373181891     2.1308646244    13.3052293339
Ni      7.3660811739     4.2582663965    13.3064674109
Ni      8.5943078969     6.3855331013    13.3045220188
Ni      7.3651939346     0.0022546400    13.3018433564
Ni      8.5942439176     2.1303693421    13.3040455062
Ni      9.8232123079     4.2572964593    13.3054000786
Ni     11.0517895931     6.3857891561    13.3031214696
Ni      2.4488396933     1.4221281164    15.3354051330
Ni      3.6769720893     3.5493770400    15.3379544236
Ni      4.9054192595     5.6783617260    15.3365785490
Ni      6.1344498014     7.8074485794    15.3331867287
Ni      4.9057645734     1.4217568383    15.3355403094
Ni      6.1337985631     3.5505550498    15.3381674626
Ni      7.3622403667     5.6790305181    15.3380511287
Ni      8.5913494913     7.8066231387    15.3350016256
Ni      7.3625372917     1.4215689198    15.3359215965
Ni      8.5913088233     3.5492155804    15.3390916581
Ni      9.8200288243     5.6782427868    15.3366738919
Ni     11.0486473958     7.8072783065    15.3343454357
Ni      9.8201448552     1.4219017049    15.3360927204
Ni     11.0487573252     3.5492595991    15.3397408216
Ni     12.2775933263     5.6775504330    15.3354220727
Ni     13.5062017152     7.8064461046    15.3317988592
Ni      1.2161152726     0.7133715411    17.3853610584
Ni      2.4460871811     2.8449211240    17.3904250435
Ni      3.6732097644     4.9716898777    17.3898366249
Ni      4.9033729298     7.1005079851    17.3848762064
Ni      3.6842232964     0.7066681154    17.3822460041
Ni      4.9020788010     2.8387546659    17.3967997495
Ni      6.1258848359     4.9806939607    17.3795632125
Ni      7.3605703985     7.1006727156    17.3901378446
Ni      6.1322606864     0.7117950628    17.3919795986
Ni      7.3619778063     2.8294444971    17.3764539697
Ni      8.5852757441     4.9769347816    17.3849395288
Ni      9.8185381131     7.1015358538    17.3862033350
Ni      8.5909896521     0.7122323119    17.3879339236
Ni      9.8188468844     2.8368574229    17.3893825428
Ni     11.0504761844     4.9762969190    17.3846108854
Ni     12.2762477825     7.0995678178    17.3847142551
O       8.1243215480     3.4550364846    21.5453372623
O       8.7085008067     5.1095924574    19.2475652878
O      10.1696284752     3.9216736932    23.6940442884
C       9.2918750606     4.2783782365    21.4850004006
C       9.7330636178     4.5263466224    20.0249942839
C      10.4496064043     3.6889543329    22.3084520702
H       9.0129192212     5.2362069434    21.9564650879
H      10.0388706176     3.5281082633    19.6009788748
H      10.6493970470     5.1564736709    20.0237764932
H      11.4075870648     4.1643041141    22.0173860735
H      10.5169362865     2.6038777351    22.0906407702
H       8.1864886198     2.8078962018    20.8186772795
H       6.3088934909     3.6427551343    18.4070802028
H      10.9152843669     3.6015960250    24.2291415617
O       2.5129307187     1.4885115858    18.8025771721
H       2.6418562130     1.5326616082    19.7729084335
80
Step 3 | NEB Image 3 | Cartesian Angstrom
Ni      1.2285495167     0.7093207667    11.2498443922
Ni      2.4571636503     2.8374336091    11.2497440673
Ni      3.6858042663     4.9655753822    11.2496766920
Ni      4.9144873375     7.0937157800    11.2496946744
Ni      3.6858516828     0.7092787121    11.2497044590
Ni      4.9144848551     2.8374083587    11.2495608636
Ni      6.1431532206     4.9655795078    11.2495073420
Ni      7.3718500566     7.0937345697    11.2495964027
Ni      6.1432065038     0.7092395780    11.2496142025
Ni      7.3718742814     2.8373826707    11.2494763618
Ni      8.6005598338     4.9655673727    11.2494765207
Ni      9.8292379114     7.0937196337    11.2496186264
Ni      8.6005814122     0.7092353297    11.2496368780
Ni      9.8292680722     2.8373828788    11.2495626342
Ni     11.0579408490     4.9655530514    11.2496089239
Ni     12.2865847279     7.0936853817    11.2497434510
Ni      9.8233380199     0.0021717756    13.3017595703
Ni     11.0520719494     2.1299875142    13.3039137290
Ni     12.2803730891     4.2570435607    13.3037102508
Ni     13.5095497162     6.3851463082    13.3027592224
Ni      2.4515527866     0.0019632715    13.3021787646
Ni      3.6799928153     2.1302285459    13.3032327761
Ni      4.9083753644     4.2580251949    13.3042433173
Ni      6.1369632343     6.3861227863    13.3021860351
Ni      4.9085302442     0.0014742067    13.3016331993
Ni      6.1372115469     2.1306887742    13.3042663035
Ni      7.3659967183     4.2582700468    13.3053007766
Ni      8.5943178732     6.3857534297    13.3035349414
Ni      7.3652197394     0.0019411162    13.3012196507
Ni      8.5943570749     2.1301160747    13.3030944133
Ni      9.8234159656     4.2572329089    13.3043556509
Ni     11.0520265336     6.3859405819    13.3023570295
Ni      2.4480383001     1.4221342519    15.3342707832
Ni      3.6757316201     3.5497351644    15.3360017634
Ni      4.9044047413     5.6790531654    15.3347202189
Ni      6.1338614344     7.8082121603    15.3318495701
Ni      4.9055740317     1.4211387379    15.3325963563
Ni      6.1330712398     3.5505903976    15.3341722834
Ni      7.3613965377     5.6798721121    15.3339401540
Ni      8.5912573637     7.8077590113    15.3327022617
Ni      7.3627029491     1.4202361728    15.3328967332
Ni      8.5918685856     3.5482534934    15.3344823103
Ni      9.8209424185     5.6788789017    15.3324434874
Ni     11.0493578675     7.8081548982    15.3325573898
Ni      9.8207640264     1.4210029570    15.3342563782
Ni     11.0496898368     3.5486095792    15.3373939415
Ni     12.2787076045     5.6778513869    15.3335466561
Ni     13.5067252243     7.8067812633    15.3311574694
Ni      1.2153053701     0.7133957598    17.3849326727
Ni      2.4441716014     2.8447105692    17.3895710497
Ni      3.6698222213     4.9737982850    17.3867285145
Ni      4.9016104681     7.1022191049    17.3831837980
Ni      3.6891061521     0.7014193967    17.3597455037
Ni      4.8916747432     2.8384528240    17.3729762417
Ni      6.1190987436     4.9853158582    17.3643029649
Ni      7.3569521814     7.1071578217    17.3797018256
Ni      6.1327037557     0.7050661973    17.3833516311
Ni      7.3682203726     2.8249614843    17.3494428088
Ni      8.5878115170     4.9706560964    17.3445347388
Ni      9.8215901170     7.1100983997    17.3714237797
Ni      8.5925641725     0.7073235757    17.3820427935
Ni      9.8221244390     2.8327951042    17.3801136712
Ni     11.0604863031     4.9745051685    17.3653207144
Ni     12.2796729253     7.1019725368    17.3811480188
O       8.5572940077     3.3102994337    20.3821345734
O       8.9462184915     5.8941041894    18.9650143425
O       9.3590567996     3.4911580162    23.2017266736
C       9.0640236071     4.4792770237    21.0298440457
C       9.7752836071     5.3336619641    19.9822383153
C      10.0652028166     4.1237919375    22.1280559656
H       8.2359636255     5.0562994424    21.4813674194
H      10.5581587631     4.6796482797    19.5227766570
H      10.2814910374     6.1655729734    20.4914960892
H      10.5693985141     5.0394045549    22.4769162891
H      10.8237444189     3.4401394008    21.7103239680
H       8.2739882913     2.6720921434    21.0576141725
H       6.1217291515     3.5508960445    18.3036077850
H      10.0128368695     3.2419519582    23.8850666503
O       2.4878254121     0.4841613770    18.8793660253
H       2.5364667033     1.1871648883    19.5559414294
80
Step 4 | NEB Image 4 | Cartesian Angstrom
Ni      1.2285427710     0.7093193876    11.2498329305
Ni      2.4571509992     2.8374365657    11.2497041102
Ni      3.6857968807     4.9655890172    11.2496224382
Ni      4.9144842857     7.0937314852    11.2496450725
Ni      3.6858358337     0.7092673347    11.2496497746
Ni      4.9144767969     2.8374066384    11.2494645394
Ni      6.1431545967     4.9655886011    11.2494010916
Ni      7.3718568588     7.0937539825    11.2494967461
Ni      6.1432043137     0.7092140076    11.2495096290
Ni      7.3718879355     2.8373671063    11.2493387742
Ni      8.6005858539     4.9655653852    11.2493296590
Ni      9.8292723219     7.0937390892    11.2494963763
Ni      8.6006026008     0.7091970927    11.2495140055
Ni      9.8293082995     2.8373562053    11.2494187092
Ni     11.0579943005     4.9655472964    11.2494736520
Ni     12.2866352013     7.0937008627    11.2496452856
Ni      9.8234247123     0.0020449757    13.3015071347
Ni     11.0522199585     2.1298914700    13.3036194096
Ni     12.2805445825     4.2569964142    13.3034554159
Ni     13.5096949307     6.3851554371    13.3025784676
Ni      2.4515163223     0.0019533427    13.3021431017
Ni      3.6799186971     2.1302150387    13.3030073130
Ni      4.9083756099     4.2580897047    13.3039682342
Ni      6.1369525840     6.3861661356    13.3019464404
Ni      4.9084961083     0.0013942943    13.3014109512
Ni      6.1372524168     2.1306600986    13.3038942319
Ni      7.3660529445     4.2582454797    13.3048972393
Ni      8.5943987795     6.3857863048    13.3031150000
Ni      7.3652619225     0.0018265621    13.3009276223
Ni      8.5944559306     2.1300235223    13.3027184937
Ni      9.8235777793     4.2571589676    13.3039335655
Ni     11.0522061448     6.3859560202    13.3020146143
Ni      2.4477751534     1.4220937287    15.3342769957
Ni      3.6750699345     3.5502500325    15.3346167494
Ni      4.9045219244     5.6792612543    15.3344013323
Ni      6.1336978891     7.8084030794    15.3312067409
Ni      4.9053506623     1.4207379323    15.3309887073
Ni      6.1338035389     3.5509692881    15.3328742801
Ni      7.3613170077     5.6797632360    15.3323044893
Ni      8.5915231177     7.8082053758    15.3313523658
Ni      7.3632153426     1.4202709818    15.3317880438
Ni      8.5922825059     3.5475271573    15.3329415463
Ni      9.8219702131     5.6787486994    15.3306098844
Ni     11.0499896803     7.8084558315    15.3315769175
Ni      9.8211686597     1.4206312407    15.3333668178
Ni     11.0503370393     3.5483112791    15.3366709979
Ni     12.2792608286     5.6777110277    15.3329875415
Ni     13.5070788443     7.8068843015    15.3308235286
Ni      1.2170647545     0.7140689067    17.3865472417
Ni      2.4431369863     2.8434003650    17.3888162059
Ni      3.6697683781     4.9759558306    17.3853340880
Ni      4.9016103949     7.1021477450    17.3826943296
Ni      3.6814944995     0.7053019129    17.3593154746
Ni      4.8884351146     2.8479363312    17.3437403301
Ni      6.1193719000     4.9797517095    17.3679726071
Ni      7.3559801352     7.1113965328    17.3701140965
Ni      6.1367687771     0.6987544782    17.3707232790
Ni      7.3717259660     2.8322225006    17.3544236673
Ni      8.6005684572     4.9584703881    17.3246457381
Ni      9.8266689484     7.1138397896    17.3611446023
Ni      8.5939960360     0.7052022688    17.3787351112
Ni      9.8255368638     2.8323081217    17.3761903887
Ni     11.0631751488     4.9690573860    17.3662519917
Ni     12.2821699903     7.1023515681    17.3793143234
O       9.0845282697     3.4160049251    20.0013677467
O       7.8728394971     5.7734802941    18.8722801857
O       9.0128228385     3.2667424832    22.8172121964
C       8.5309843286     4.4622341406    20.8172840904
C       8.6536759850     5.7830013453    20.0682654179
C       9.2607401836     4.5166154792    22.1515492644
H       7.4592395452     4.2610611170    20.9983929924
H       9.7179869781     5.9618725971    19.8179283942
H       8.2993619376     6.6053099944    20.7088384916
H       8.8894684869     5.3642928511    22.7530584724
H      10.3395338947     4.6539772266    21.9629319896
H       8.9432942037     2.5721553987    20.4706561406
H       6.1318188300     2.1739664985    18.2926712552
H       9.6126141774     3.1973514609    23.5785772943
O       2.4707162813     0.5029402125    18.9047028375
H       2.4851028553     1.2672889448    19.5121582194
80
Step 5 | NEB Image 5 | Cartesian Angstrom
Ni      1.2286497034     0.7093615225    11.2499999440
Ni      2.4572989609     2.8374461750    11.2499999440
Ni      3.6859482184     4.9655308275    11.2499999440
Ni      4.9145974759     7.0936154800    11.2499999440
Ni      3.6859497034     0.7093615225    11.2499999440
Ni      4.9145989609     2.8374461750    11.2499999440
Ni      6.1432482184     4.9655308275    11.2499999440
Ni      7.3718974759     7.0936154800    11.2499999440
Ni      6.1432497034     0.7093615225    11.2499999440
Ni      7.3718989609     2.8374461750    11.2499999440
Ni      8.6005482184     4.9655308275    11.2499999440
Ni      9.8291974759     7.0936154800    11.2499999440
Ni      8.6005497034     0.7093615225    11.2499999440
Ni      9.8291989609     2.8374461750    11.2499999440
Ni     11.0578482184     4.9655308275    11.2499999440
Ni     12.2864974759     7.0936154800    11.2499999440
Ni      9.8231926870     0.0024995631    13.3023446442
Ni     11.0518089676     2.1302240586    13.3047083557
Ni     12.2800508544     4.2570722939    13.3044621680
Ni     13.5092873083     6.3850384546    13.3032134512
Ni      2.4517696982     0.0021660497    13.3026623307
Ni      3.6803278881     2.1303359107    13.3041135630
Ni      4.9088074938     4.2579363814    13.3054287544
Ni      6.1372745671     6.3857877107    13.3032783798
Ni      4.9086517115     0.0018312594    13.3024060945
Ni      6.1374036838     2.1309748468    13.3056096270
Ni      7.3661495135     4.2582451239    13.3069522585
Ni      8.5943413203     6.3854189562    13.3048451696
Ni      7.3652044956     0.0023769003    13.3020219334
Ni      8.5942385662     2.1304695544    13.3043868044
Ni      9.8231946918     4.2572739512    13.3057506922
Ni     11.0517679695     6.3857120360    13.3033344194
Ni      2.4490339821     1.4222228929    15.3362210124
Ni      3.6772966574     3.5494520554    15.3385526461
Ni      4.9062018672     5.6779299780    15.3378106046
Ni      6.1346571942     7.8070606266    15.3335999053
Ni      4.9058225197     1.4219699914    15.3362206260
Ni      6.1346426084     3.5508505475    15.3401418518
Ni      7.3625330027     5.6784279498    15.3395242568
Ni      8.5915701206     7.8062468470    15.3354851546
Ni      7.3627071376     1.4224398724    15.3370388041
Ni      8.5913286772     3.5492677633    15.3408174188
Ni      9.8201850849     5.6778143804    15.3377746619
Ni     11.0486433115     7.8070023171    15.3347462049
Ni      9.8200953547     1.4222882677    15.3366654644
Ni     11.0486075444     3.5492992589    15.3407265960
Ni     12.2774144623     5.6772885732    15.3359640033
Ni     13.5061541972     7.8063455902    15.3319299253
Ni      1.2187910631     0.7145173608    17.3879334314
Ni      2.4472474227     2.8420654806    17.3934581627
Ni      3.6755426811     4.9714604374    17.3911199588
Ni      4.9045369929     7.0990999797    17.3858410289
Ni      3.6755273590     0.7130852450    17.3897672789
Ni      4.9037000473     2.8423806074    17.3934481142
Ni      6.1319553005     4.9726957480    17.3963328007
Ni      7.3614524743     7.0997441935    17.3897409983
Ni      6.1332850561     0.7119051795    17.3902534707
Ni      7.3623531846     2.8409773484    17.3961534740
Ni      8.5911690953     4.9716069348    17.3936888912
Ni      9.8197669951     7.1000577029    17.3889506467
Ni      8.5911411426     0.7131642395    17.3880087950
Ni      9.8198330590     2.8408219131    17.3957136598
Ni     11.0487030798     4.9704125685    17.3927698418
Ni     12.2763266601     7.0989938309    17.3852102935
O       9.3819344244     4.1358166692    20.0930362367
O       7.4403591999     5.7710500252    18.8010456662
O       8.6054614657     3.3490556865    22.7703843692
C       8.1664603160     4.5686069475    20.7700096311
C       7.7641571257     5.9228005922    20.1887078083
C       8.3912004598     4.6889035721    22.2787219386
H       7.3485584428     3.8274455412    20.5710354409
H       8.5939941550     6.6612606078    20.2727262356
H       6.8675792875     6.3118286823    20.7285291220
H       7.5127131407     5.1500412147    22.7730789076
H       9.2780443246     5.3384479547    22.4478370724
H       9.6348023466     3.2728259917    20.4951539629
H       4.4134518168     1.3599542848    19.7391102444
H       8.7500633813     3.3953291848    23.7317250903
O       3.5190441201     1.0401590876    20.0091886335
H       2.9303167551     1.7729858078    19.7218291788
