80
Step 1 | NEB Image 1 | Cartesian Angstrom
Ni      1.2286497034     0.7093615225    11.2499999440
Ni      2.4572989609     2.8374461750    11.2499999440
Ni      3.6859482184     4.9655308275    11.2499999440
Ni      4.9145974759     7.0936154800    11.2499999440
Ni      3.6859497034     0.7093615225    11.2499999440
Ni      4.9145989609     2.8374461750    11.2499999440
Ni      6.1432482184     4.9655308275    11.2499999440
Ni      7.3718974759     7.0936154800    11.2499999440
Ni      6.1432497034     0.7093615225    11.2499999440
Ni      7.3718989609     2.8374461750    11.2499999440
Ni      8.6005482184     4.9655308275    11.2499999440
Ni      9.8291974759     7.0936154800    11.2499999440
Ni      8.6005497034     0.7093615225    11.2499999440
Ni      9.8291989609     2.8374461750    11.2499999440
Ni     11.0578482184     4.9655308275    11.2499999440
Ni     12.2864974759     7.0936154800    11.2499999440
Ni      9.8231926870     0.0024995631    13.3023446442
Ni     11.0518089676     2.1302240586    13.3047083557
Ni     12.2800508544     4.2570722939    13.3044621680
Ni     13.5092873083     6.3850384546    13.3032134512
Ni      2.4517696982     0.0021660497    13.3026623307
Ni      3.6803278881     2.1303359107    13.3041135630
Ni      4.9088074938     4.2579363814    13.3054287544
Ni      6.1372745671     6.3857877107    13.3032783798
Ni      4.9086517115     0.0018312594    13.3024060945
Ni      6.1374036838     2.1309748468    13.3056096270
Ni      7.3661495135     4.2582451239    13.3069522585
Ni      8.5943413203     6.3854189562    13.3048451696
Ni      7.3652044956     0.0023769003    13.3020219334
Ni      8.5942385662     2.1304695544    13.3043868044
Ni      9.8231946918     4.2572739512    13.3057506922
Ni     11.0517679695     6.3857120360    13.3033344194
Ni      2.4490339821     1.4222228929    15.3362210124
Ni      3.6772966574     3.5494520554    15.3385526461
Ni      4.9062018672     5.6779299780    15.3378106046
Ni      6.1346571942     7.8070606266    15.3335999053
Ni      4.9058225197     1.4219699914    15.3362206260
Ni      6.1346426084     3.5508505475    15.3401418518
Ni      7.3625330027     5.6784279498    15.3395242568
Ni      8.5915701206     7.8062468470    15.3354851546
Ni      7.3627071376     1.4224398724    15.3370388041
Ni      8.5913286772     3.5492677633    15.3408174188
Ni      9.8201850849     5.6778143804    15.3377746619
Ni     11.0486433115     7.8070023171    15.3347462049
Ni      9.8200953547     1.4222882677    15.3366654644
Ni     11.0486075444     3.5492992589    15.3407265960
Ni     12.2774144623     5.6772885732    15.3359640032
Ni     13.5061541972     7.8063455902    15.3319299253
Ni      1.2187910631     0.7145173608    17.3879334314
Ni      2.4472474227     2.8420654806    17.3934581627
Ni      3.6755426811     4.9714604374    17.3911199588
Ni      4.9045369929     7.0990999797    17.3858410289
Ni      3.6755273590     0.7130852450    17.3897672789
Ni      4.9037000473     2.8423806074    17.3934481142
Ni      6.1319553005     4.9726957480    17.3963328007
Ni      7.3614524743     7.0997441935    17.3897409983
Ni      6.1332850561     0.7119051795    17.3902534707
Ni      7.3623531846     2.8409773484    17.3961534740
Ni      8.5911690953     4.9716069348    17.3936888912
Ni      9.8197669951     7.1000577029    17.3889506467
Ni      8.5911411426     0.7131642395    17.3880087950
Ni      9.8198330590     2.8408219131    17.3957136598
Ni     11.0487030798     4.9704125685    17.3927698418
Ni     12.2763266601     7.0989938309    17.3852102935
O       8.1853233808     3.4574048182    21.7117206478
O       8.5869329741     5.0599815235    19.5762271001
O      10.2109211163     3.6451020548    23.8826602062
C       9.3606393600     4.2890487236    21.7367471584
C       9.7574736302     4.6321502783    20.3055951979
C      10.5272793641     3.6720453941    22.4918474794
H       9.0423459569     5.1976070563    22.2680419510
H      10.2036708160     3.7499198429    19.8025973096
H      10.4835571337     5.4542343167    20.2475656164
H      11.4351836342     4.2717022800    22.2942344717
H      10.7115000118     2.6514065461    22.0984614952
H       8.4384371395     2.5707271966    21.3925898339
H       7.8511829079     4.4818016084    19.8831003151
H      11.0040911060     3.3843978098    24.3788521822
O       2.4676593393     1.4045078651    18.8058894197
H       2.5804189712     1.3115658959    19.7657035449
80
Step 2 | NEB Image 2 | Cartesian Angstrom
Ni      1.2285365578     0.7093138160    11.2498225897
Ni      2.4571462993     2.8374302922    11.2497106574
Ni      3.6857847170     4.9655799666    11.2496353755
Ni      4.9144726140     7.0937288516    11.2496574495
Ni      3.6858414461     0.7092673863    11.2496727486
Ni      4.9144708239     2.8374020065    11.2495135425
Ni      6.1431407297     4.9655853030    11.2494544353
Ni      7.3718431527     7.0937485246    11.2495580947
Ni      6.1432012042     0.7092260841    11.2495812395
Ni      7.3718690243     2.8373761389    11.2494285633
Ni      8.6005573074     4.9655734579    11.2494321594
Ni      9.8292369732     7.0937303779    11.2495909827
Ni      8.6005815653     0.7092248496    11.2496119972
Ni      9.8292696919     2.8373797007    11.2495310624
Ni     11.0579427476     4.9655579448    11.2495835499
Ni     12.2865860124     7.0936917090    11.2497295003
Ni      9.8233385014     0.0021518627    13.3017343006
Ni     11.0520765529     2.1299755613    13.3038627755
Ni     12.2803796116     4.2570540434    13.3036647016
Ni     13.5095514812     6.3851584968    13.3027405962
Ni      2.4515332799     0.0019321735    13.3021192359
Ni      3.6799623159     2.1302094536    13.3031436930
Ni      4.9083150075     4.2580258384    13.3041089435
Ni      6.1369257355     6.3861672476    13.3020701268
Ni      4.9085194424     0.0014378075    13.3015775162
Ni      6.1371779134     2.1306482247    13.3041458586
Ni      7.3659694740     4.2582796220    13.3051435469
Ni      8.5943015533     6.3857936951    13.3034414582
Ni      7.3652133559     0.0019024972    13.3011722637
Ni      8.5943530915     2.1300842379    13.3029907215
Ni      9.8234125457     4.2572466706    13.3042525918
Ni     11.0520231726     6.3859677670    13.3023013519
Ni      2.4479914005     1.4220926733    15.3339602485
Ni      3.6756520054     3.5496791524    15.3358426070
Ni      4.9041020959     5.6792105641    15.3342622114
Ni      6.1337979897     7.8083472718    15.3317348117
Ni      4.9055599071     1.4210773302    15.3324476674
Ni      6.1327203219     3.5504530804    15.3334939738
Ni      7.3613055304     5.6801027276    15.3334930318
Ni      8.5911602943     7.8078690510    15.3326085572
Ni      7.3626135574     1.4199096539    15.3325517319
Ni      8.5918294519     3.5482828342    15.3339442308
Ni      9.8208189770     5.6790419265    15.3321688431
Ni     11.0493196654     7.8082340555    15.3324726283
Ni      9.8207530412     1.4208769063    15.3340965209
Ni     11.0497060035     3.5486248038    15.3370718185
Ni     12.2787299088     5.6779557426    15.3333975744
Ni     13.5067182803     7.8068094819    15.3311324271
Ni      1.2141347579     0.7128792479    17.3837929379
Ni      2.4437577095     2.8459993826    17.3882792043
Ni      3.6689416117     4.9737770192    17.3863177347
Ni      4.9011738767     7.1027667035    17.3828388841
Ni      3.6928374564     0.6987622906    17.3574199814
Ni      4.8914614920     2.8367335854    17.3759093217
Ni      6.1167122662     4.9887222021    17.3575165940
Ni      7.3567352988     7.1072238981    17.3804690137
Ni      6.1321756684     0.7054009738    17.3846683212
Ni      7.3677312487     2.8199642074    17.3418616489
Ni      8.5849205305     4.9734542537    17.3427236723
Ni      9.8208427940     7.1103226295    17.3710028955
Ni      8.5924081549     0.7071573621    17.3823148126
Ni      9.8214973780     2.8312294470    17.3777792793
Ni     11.0607915842     4.9772586082    17.3625533245
Ni     12.2794527826     7.1021149495    17.3811112602
O       8.0632704448     3.2523820935    21.2749315503
O       8.4918469946     5.1971903817    19.1859448520
O       9.6922427211     3.7457667117    23.6864234364
C       8.9675599109     4.3639415201    21.4615644761
C       9.5136148950     4.9091800536    20.1177621927
C      10.1479659431     3.9775868714    22.3506295510
H       8.3807562926     5.1362565729    21.9675238520
H      10.2302055447     4.1572244050    19.7085956776
H      10.1071143821     5.8204845768    20.3358970851
H      10.9058045233     4.7859435233    22.3297410820
H      10.6232042344     3.0641041079    21.9326152353
H       8.4986778870     2.5756315289    20.8076312860
H       6.1920996224     3.5928848649    18.3102315108
H      10.4389669296     3.5022234210    24.2334412707
O       2.5237328574     1.4454122307    18.7894648793
H       2.6610390074     1.4350188473    19.7540344174
80
Step 3 | NEB Image 3 | Cartesian Angstrom
Ni      1.2285111901     0.7093099282    11.2497898509
Ni      2.4571117549     2.8374333804    11.2496490542
Ni      3.6857516937     4.9655949261    11.2495544038
Ni      4.9144462113     7.0937530915    11.2495738458
Ni      3.6858079006     0.7092493174    11.2495755442
Ni      4.9144391240     2.8373980582    11.2493711852
Ni      6.1431167963     4.9655990826    11.2492938563
Ni      7.3718332865     7.0937833462    11.2494080039
Ni      6.1431890797     0.7091878170    11.2494243153
Ni      7.3718695058     2.8373544729    11.2492271106
Ni      8.6005737822     4.9655777980    11.2492182216
Ni      9.8292685342     7.0937663153    11.2494182147
Ni      8.6006033489     0.7091726770    11.2494424424
Ni      9.8293126685     2.8373460717    11.2493327363
Ni     11.0580014524     4.9655563237    11.2493956454
Ni     12.2866432631     7.0937190653    11.2495965510
Ni      9.8234401030     0.0019902068    13.3014079407
Ni     11.0522466100     2.1298498679    13.3034802129
Ni     12.2805853973     4.2569952870    13.3032902557
Ni     13.5097324145     6.3851925179    13.3024820358
Ni      2.4514468927     0.0018995013    13.3019852843
Ni      3.6798318383     2.1302031156    13.3028381253
Ni      4.9082204590     4.2580855679    13.3037517107
Ni      6.1368352014     6.3862459234    13.3017088779
Ni      4.9084717783     0.0013140616    13.3012237655
Ni      6.1371588646     2.1305904392    13.3036221140
Ni      7.3659542148     4.2582634257    13.3045307073
Ni      8.5943403151     6.3858891850    13.3028419487
Ni      7.3652462502     0.0017302868    13.3007697443
Ni      8.5944505756     2.1299465160    13.3024408489
Ni      9.8235808591     4.2571680411    13.3036258594
Ni     11.0522181921     6.3860349037    13.3018018177
Ni      2.4474368009     1.4221906871    15.3336818837
Ni      3.6748247276     3.5500693107    15.3346353735
Ni      4.9039002694     5.6794362373    15.3337166150
Ni      6.1334519801     7.8086830163    15.3309015026
Ni      4.9054445766     1.4207167897    15.3303992079
Ni      6.1328259986     3.5507573297    15.3316938754
Ni      7.3607996106     5.6803152952    15.3311146275
Ni      8.5912771516     7.8085558885    15.3309657969
Ni      7.3629147597     1.4194976182    15.3308305312
Ni      8.5923585926     3.5474566874    15.3313389662
Ni      9.8217899376     5.6792301107    15.3293278656
Ni     11.0499596905     7.8087793606    15.3312166761
Ni      9.8212715037     1.4204192984    15.3329574514
Ni     11.0504134136     3.5480645659    15.3358460873
Ni     12.2795825106     5.6779905628    15.3321815840
Ni     13.5071508277     7.8070231745    15.3306691427
Ni      1.2158874104     0.7139794611    17.3858079623
Ni      2.4431130383     2.8431048945    17.3904156882
Ni      3.6680133016     4.9754585870    17.3846874206
Ni      4.9006422910     7.1030185039    17.3821976265
Ni      3.6893089328     0.6998836526    17.3436040788
Ni      4.8833909298     2.8396208310    17.3513633829
Ni      6.1161808247     4.9855522069    17.3592143547
Ni      7.3542289545     7.1122606708    17.3706394163
Ni      6.1334402810     0.6994185715    17.3753537878
Ni      7.3738163612     2.8266005928    17.3353360598
Ni      8.5925310369     4.9628665297    17.3139741069
Ni      9.8247109948     7.1167915107    17.3601500541
Ni      8.5939795799     0.7035292325    17.3769840461
Ni      9.8253981205     2.8312497913    17.3753126622
Ni     11.0683659194     4.9701138294    17.3523078943
Ni     12.2826508338     7.1038011871    17.3783112501
O       8.5725886246     3.0595336574    20.5226884454
O       8.1944154970     5.4705729908    19.0591287860
O       9.2635877451     3.4391065407    23.3369407305
C       8.7225652485     4.3233253471    21.1817419540
C       9.1289804122     5.3552932700    20.1244814841
C       9.7781672638     4.2675407730    22.2778950850
H       7.7544315805     4.6297077679    21.6446376588
H      10.1228425549     5.0640524977    19.7418553369
H       9.2238604504     6.3440820724    20.6147860429
H      10.0044841831     5.2807535735    22.6435045553
H      10.6992626803     3.8253804715    21.8565763791
H       8.6782043447     2.3574245325    21.2002118611
H       6.1124617567     3.2531442856    18.3446493742
H       9.9649644325     3.3555374975    24.0254073421
O       2.5391555225     0.7406778241    18.9282406182
H       2.6564492225     1.4721410867    19.4855283558
80
Step 4 | NEB Image 4 | Cartesian Angstrom
Ni      1.2285569413     0.7093246696    11.2498536928
Ni      2.4571690848     2.8374386353    11.2497328413
Ni      3.6858174715     4.9655854798    11.2496580119
Ni      4.9145010013     7.0937202232    11.2496801739
Ni      3.6858480701     0.7092768500    11.2496839797
Ni      4.9144932145     2.8374114513    11.2495104262
Ni      6.1431704140     4.9655833058    11.2494532539
Ni      7.3718663487     7.0937399982    11.2495381906
Ni      6.1432108121     0.7092269377    11.2495482626
Ni      7.3718952058     2.8373733904    11.2493909340
Ni      8.6005900961     4.9655595342    11.2493806916
Ni      9.8292733834     7.0937268527    11.2495312219
Ni      8.6006020619     0.7092086066    11.2495458963
Ni      9.8293059203     2.8373607164    11.2494575492
Ni     11.0579908131     4.9655429342    11.2495078355
Ni     12.2866316805     7.0936929433    11.2496661601
Ni      9.8234187795     0.0020700775    13.3015491976
Ni     11.0522084267     2.1299094531    13.3036829840
Ni     12.2805277728     4.2569937622    13.3035246231
Ni     13.5096810814     6.3851398153    13.3026165501
Ni      2.4515446785     0.0019805492    13.3022121564
Ni      3.6799565945     2.1302253583    13.3030922248
Ni      4.9084436932     4.2580899684    13.3040836762
Ni      6.1370014443     6.3861260228    13.3020616065
Ni      4.9085076556     0.0014322418    13.3014899612
Ni      6.1372920341     2.1306955978    13.3040231395
Ni      7.3660917850     4.2582370195    13.3050679810
Ni      8.5944212643     6.3857406746    13.3032355922
Ni      7.3652683849     0.0018706013    13.3009956770
Ni      8.5944577260     2.1300590811    13.3028434349
Ni      9.8235760333     4.2571523997    13.3040680614
Ni     11.0522014153     6.3859224082    13.3021029288
Ni      2.4478979769     1.4220786813    15.3345649945
Ni      3.6751802124     3.5503182124    15.3346820925
Ni      4.9048140181     5.6791515098    15.3347709630
Ni      6.1337968181     7.8082689835    15.3313471495
Ni      4.9053294195     1.4207701977    15.3312394828
Ni      6.1342136167     3.5510763831    15.3334826983
Ni      7.3615074701     5.6795168948    15.3328411665
Ni      8.5916282974     7.8080550938    15.3315191145
Ni      7.3633316398     1.4206186825    15.3322123540
Ni      8.5922674944     3.5475475821    15.3336344810
Ni      9.8220549870     5.6785472813    15.3311184524
Ni     11.0500041975     7.8083261024    15.3317280636
Ni      9.8211359768     1.4207436192    15.3335574853
Ni     11.0503002679     3.5483852976    15.3370422048
Ni     12.2791479624     5.6775915582    15.3332920119
Ni     13.5070548589     7.8068308955    15.3308834123
Ni      1.2178027438     0.7142640493    17.3871422791
Ni      2.4432978746     2.8430678326    17.3887754106
Ni      3.6706066174     4.9760891666    17.3856890532
Ni      4.9020556670     7.1016953523    17.3829699184
Ni      3.6779222920     0.7078195458    17.3649257708
Ni      4.8900923578     2.8509539577    17.3407615363
Ni      6.1211589686     4.9768822348    17.3729224375
Ni      7.3566022763     7.1110577749    17.3698084316
Ni      6.1379188654     0.6985137533    17.3690098472
Ni      7.3712095768     2.8355585147    17.3627925301
Ni      8.6038602015     4.9563187758    17.3287735235
Ni      9.8274615353     7.1128137061    17.3617175987
Ni      8.5940368087     0.7057971860    17.3792190914
Ni      9.8257514575     2.8331715181    17.3773020724
Ni     11.0614483516     4.9678621587    17.3714548499
Ni     12.2820673123     7.1018543813    17.3796564163
O       9.1803713781     3.3850254466    20.1506680420
O       7.7761956467     5.6500465009    18.8901391043
O       8.9559129371     3.2816124889    22.9706436086
C       8.4675297272     4.3881139691    20.9115116928
C       8.4670177164     5.7035059841    20.1484070112
C       9.1088381583     4.5500653819    22.2672235829
H       7.4135437676     4.0522041147    21.0490990331
H       9.5148344741     6.0127658170    19.9704599228
H       7.9759299737     6.4709863049    20.7664230541
H       8.6280446150     5.3587433847    22.8384597708
H      10.1790385995     4.7796743734    22.1439947423
H       9.2254709823     2.6021212617    20.6846948041
H       6.1220936063     2.1861243748    18.2933889498
H       9.4756761467     3.3163317392    23.7835989794
O       2.6161795177     0.6768087696    18.9605024214
H       2.8489986006     1.4662846064    19.4883101133
80
Step 5 | NEB Image 5 | Cartesian Angstrom
Ni      1.2286497034     0.7093615225    11.2499999440
Ni      2.4572989609     2.8374461750    11.2499999440
Ni      3.6859482184     4.9655308275    11.2499999440
Ni      4.9145974759     7.0936154800    11.2499999440
Ni      3.6859497034     0.7093615225    11.2499999440
Ni      4.9145989609     2.8374461750    11.2499999440
Ni      6.1432482184     4.9655308275    11.2499999440
Ni      7.3718974759     7.0936154800    11.2499999440
Ni      6.1432497034     0.7093615225    11.2499999440
Ni      7.3718989609     2.8374461750    11.2499999440
Ni      8.6005482184     4.9655308275    11.2499999440
Ni      9.8291974759     7.0936154800    11.2499999440
Ni      8.6005497034     0.7093615225    11.2499999440
Ni      9.8291989609     2.8374461750    11.2499999440
Ni     11.0578482184     4.9655308275    11.2499999440
Ni     12.2864974759     7.0936154800    11.2499999440
Ni      9.8231926870     0.0024995631    13.3023446442
Ni     11.0518089676     2.1302240586    13.3047083557
Ni     12.2800508544     4.2570722939    13.3044621680
Ni     13.5092873083     6.3850384546    13.3032134512
Ni      2.4517696982     0.0021660497    13.3026623307
Ni      3.6803278881     2.1303359107    13.3041135630
Ni      4.9088074938     4.2579363814    13.3054287544
Ni      6.1372745671     6.3857877107    13.3032783798
Ni      4.9086517115     0.0018312594    13.3024060945
Ni      6.1374036838     2.1309748468    13.3056096270
Ni      7.3661495135     4.2582451239    13.3069522585
Ni      8.5943413203     6.3854189562    13.3048451696
Ni      7.3652044956     0.0023769003    13.3020219334
Ni      8.5942385662     2.1304695544    13.3043868044
Ni      9.8231946918     4.2572739512    13.3057506922
Ni     11.0517679695     6.3857120360    13.3033344194
Ni      2.4490339821     1.4222228929    15.3362210124
Ni      3.6772966574     3.5494520554    15.3385526461
Ni      4.9062018672     5.6779299780    15.3378106046
Ni      6.1346571942     7.8070606266    15.3335999053
Ni      4.9058225197     1.4219699914    15.3362206260
Ni      6.1346426084     3.5508505475    15.3401418518
Ni      7.3625330027     5.6784279498    15.3395242568
Ni      8.5915701206     7.8062468470    15.3354851546
Ni      7.3627071376     1.4224398724    15.3370388041
Ni      8.5913286772     3.5492677633    15.3408174188
Ni      9.8201850849     5.6778143804    15.3377746619
Ni     11.0486433115     7.8070023171    15.3347462049
Ni      9.8200953547     1.4222882677    15.3366654644
Ni     11.0486075444     3.5492992589    15.3407265960
Ni     12.2774144623     5.6772885732    15.3359640032
Ni     13.5061541972     7.8063455902    15.3319299253
Ni      1.2187910631     0.7145173608    17.3879334314
Ni      2.4472474227     2.8420654806    17.3934581627
Ni      3.6755426811     4.9714604374    17.3911199588
Ni      4.9045369929     7.0990999797    17.3858410289
Ni      3.6755273590     0.7130852450    17.3897672789
Ni      4.9037000473     2.8423806074    17.3934481142
Ni      6.1319553005     4.9726957480    17.3963328007
Ni      7.3614524743     7.0997441935    17.3897409983
Ni      6.1332850561     0.7119051795    17.3902534707
Ni      7.3623531846     2.8409773484    17.3961534740
Ni      8.5911690953     4.9716069348    17.3936888912
Ni      9.8197669951     7.1000577029    17.3889506467
Ni      8.5911411426     0.7131642395    17.3880087950
Ni      9.8198330590     2.8408219131    17.3957136598
Ni     11.0487030798     4.9704125685    17.3927698418
Ni     12.2763266601     7.0989938309    17.3852102935
O       9.3819344244     4.1358166692    20.0930362367
O       7.4403591999     5.7710500252    18.8010456662
O       8.6054614657     3.3490556865    22.7703843692
C       8.1664603160     4.5686069475    20.7700096311
C       7.7641571257     5.9228005922    20.1887078083
C       8.3912004598     4.6889035721    22.2787219386
H       7.3485584428     3.8274455412    20.5710354409
H       8.5939941550     6.6612606078    20.2727262356
H       6.8675792875     6.3118286823    20.7285291220
H       7.5127131407     5.1500412147    22.7730789076
H       9.2780443246     5.3384479547    22.4478370724
H       9.6348023466     3.2728259917    20.4951539629
H       4.4134518168     1.3599542848    19.7391102444
H       8.7500633813     3.3953291848    23.7317250903
O       3.5190441201     1.0401590876    20.0091886335
H       2.9303167551     1.7729858078    19.7218291788
