80
Step 1 | NEB Image 1 | Cartesian Angstrom
Ni      1.2286497034     0.7093615225    11.2499999440
Ni      2.4572989609     2.8374461750    11.2499999440
Ni      3.6859482184     4.9655308275    11.2499999440
Ni      4.9145974759     7.0936154800    11.2499999440
Ni      3.6859497034     0.7093615225    11.2499999440
Ni      4.9145989609     2.8374461750    11.2499999440
Ni      6.1432482184     4.9655308275    11.2499999440
Ni      7.3718974759     7.0936154800    11.2499999440
Ni      6.1432497034     0.7093615225    11.2499999440
Ni      7.3718989609     2.8374461750    11.2499999440
Ni      8.6005482184     4.9655308275    11.2499999440
Ni      9.8291974759     7.0936154800    11.2499999440
Ni      8.6005497034     0.7093615225    11.2499999440
Ni      9.8291989609     2.8374461750    11.2499999440
Ni     11.0578482184     4.9655308275    11.2499999440
Ni     12.2864974759     7.0936154800    11.2499999440
Ni      9.8231926870     0.0024995631    13.3023446442
Ni     11.0518089676     2.1302240586    13.3047083557
Ni     12.2800508544     4.2570722939    13.3044621680
Ni     13.5092873083     6.3850384546    13.3032134512
Ni      2.4517696982     0.0021660497    13.3026623307
Ni      3.6803278881     2.1303359107    13.3041135630
Ni      4.9088074938     4.2579363814    13.3054287544
Ni      6.1372745671     6.3857877107    13.3032783798
Ni      4.9086517115     0.0018312594    13.3024060945
Ni      6.1374036838     2.1309748468    13.3056096270
Ni      7.3661495135     4.2582451239    13.3069522585
Ni      8.5943413203     6.3854189562    13.3048451696
Ni      7.3652044956     0.0023769003    13.3020219334
Ni      8.5942385662     2.1304695544    13.3043868044
Ni      9.8231946918     4.2572739512    13.3057506922
Ni     11.0517679695     6.3857120360    13.3033344194
Ni      2.4490339821     1.4222228929    15.3362210124
Ni      3.6772966574     3.5494520554    15.3385526461
Ni      4.9062018672     5.6779299780    15.3378106046
Ni      6.1346571942     7.8070606266    15.3335999053
Ni      4.9058225197     1.4219699914    15.3362206260
Ni      6.1346426084     3.5508505475    15.3401418518
Ni      7.3625330027     5.6784279498    15.3395242568
Ni      8.5915701206     7.8062468470    15.3354851546
Ni      7.3627071376     1.4224398724    15.3370388041
Ni      8.5913286772     3.5492677633    15.3408174188
Ni      9.8201850849     5.6778143804    15.3377746619
Ni     11.0486433115     7.8070023171    15.3347462049
Ni      9.8200953547     1.4222882677    15.3366654644
Ni     11.0486075444     3.5492992589    15.3407265960
Ni     12.2774144623     5.6772885732    15.3359640033
Ni     13.5061541972     7.8063455902    15.3319299253
Ni      1.2187910631     0.7145173608    17.3879334314
Ni      2.4472474227     2.8420654806    17.3934581627
Ni      3.6755426811     4.9714604374    17.3911199588
Ni      4.9045369929     7.0990999797    17.3858410289
Ni      3.6755273590     0.7130852450    17.3897672789
Ni      4.9037000473     2.8423806074    17.3934481142
Ni      6.1319553005     4.9726957480    17.3963328007
Ni      7.3614524743     7.0997441935    17.3897409983
Ni      6.1332850561     0.7119051795    17.3902534707
Ni      7.3623531846     2.8409773484    17.3961534740
Ni      8.5911690953     4.9716069348    17.3936888912
Ni      9.8197669951     7.1000577029    17.3889506467
Ni      8.5911411426     0.7131642395    17.3880087950
Ni      9.8198330590     2.8408219131    17.3957136598
Ni     11.0487030798     4.9704125685    17.3927698418
Ni     12.2763266601     7.0989938309    17.3852102935
O       8.1853233808     3.4574048182    21.7117206478
O       8.5869329741     5.0599815235    19.5762271001
O      10.2109211163     3.6451020548    23.8826602062
C       9.3606393600     4.2890487236    21.7367471584
C       9.7574736302     4.6321502783    20.3055951979
C      10.5272793641     3.6720453941    22.4918474794
H       9.0423459569     5.1976070563    22.2680419510
H      10.2036708160     3.7499198429    19.8025973096
H      10.4835571337     5.4542343167    20.2475656164
H      11.4351836342     4.2717022800    22.2942344717
H      10.7115000118     2.6514065461    22.0984614952
H       8.4384371395     2.5707271966    21.3925898339
H       7.8511829079     4.4818016084    19.8831003151
H      11.0040911060     3.3843978098    24.3788521822
O       2.4676593393     1.4045078651    18.8058894197
H       2.5804189712     1.3115658959    19.7657035449
80
Step 2 | NEB Image 2 | Cartesian Angstrom
Ni      1.2287618461     0.7094054291    11.2501723095
Ni      2.4574505246     2.8374585492    11.2502857104
Ni      3.6861084234     4.9654798910    11.2503618211
Ni      4.9147203276     7.0935034388    11.2503435633
Ni      3.6860618094     0.7094534986    11.2503369130
Ni      4.9147274297     2.8374870088    11.2505002470
Ni      6.1433544540     4.9654759030    11.2505614454
Ni      7.3719499016     7.0934808453    11.2504649415
Ni      6.1432983658     0.7095001241    11.2504480697
Ni      7.3719246731     2.8375188327    11.2506051112
Ni      8.6005314193     4.9654912589    11.2506083263
Ni      9.8291463016     7.0934962593    11.2504477598
Ni      8.6005104079     0.7095083797    11.2504277185
Ni      9.8291145563     2.8375218738    11.2505135987
Ni     11.0577348023     4.9655079311    11.2504620806
Ni     12.2863901273     7.0935345891    11.2503057312
Ni      9.8230122067     0.0028881769    13.3030485157
Ni     11.0514861105     2.1305069267    13.3056478590
Ni     12.2796560233     4.2571184625    13.3053542620
Ni     13.5089622024     6.3849159386    13.3037611502
Ni      2.4520210063     0.0023880565    13.3032066762
Ni      3.6807154633     2.1304506287    13.3051227300
Ni      4.9092870069     4.2578266136    13.3067724422
Ni      6.1376260603     6.3854140990    13.3045249097
Ni      4.9087923708     0.0022402225    13.3033144980
Ni      6.1376104563     2.1312912658    13.3071642554
Ni      7.3663137719     4.2582234061    13.3088548402
Ni      8.5943550311     6.3850416212    13.3063854408
Ni      7.3651793978     0.0028817895    13.3029747476
Ni      8.5940872833     2.1308785650    13.3058948062
Ni      9.8229160447     4.2573385539    13.3073873872
Ni     11.0514428838     6.3854537640    13.3044975035
Ni      2.4502301845     1.4222905517    15.3383458109
Ni      3.6791672631     3.5490466466    15.3415668931
Ni      4.9081444315     5.6766871377    15.3412080932
Ni      6.1355870919     7.8057590085    15.3356668373
Ni      4.9061163092     1.4229431136    15.3405882625
Ni      6.1362610808     3.5510404285    15.3469078851
Ni      7.3638628181     5.6768537160    15.3460407306
Ni      8.5918658723     7.8044708569    15.3388583133
Ni      7.3626274538     1.4248663748    15.3418601935
Ni      8.5906172832     3.5505593371    15.3481829729
Ni      9.8191228489     5.6766460820    15.3441491613
Ni     11.0477170159     7.8056432217    15.3373890237
Ni      9.8192514333     1.4237643836    15.3395082632
Ni     11.0472765126     3.5501754066    15.3445622748
Ni     12.2758240721     5.6766886152    15.3388329806
Ni     13.5054361412     7.8058299460    15.3328678013
Ni      1.2219785310     0.7154002456    17.3905427089
Ni      2.4506619792     2.8400602670    17.3969880416
Ni      3.6818053842     4.9685381317    17.3961820668
Ni      4.9077556749     7.0957533382    17.3888097045
Ni      3.6622443232     0.7250251338    17.4250016325
Ni      4.9185106393     2.8456662565    17.4217247353
Ni      6.1456158809     4.9603085324    17.4295406951
Ni      7.3668571145     7.0905778659    17.4029826717
Ni      6.1335268776     0.7207351113    17.4000853727
Ni      7.3545424504     2.8560047205    17.4469661099
Ni      8.5925775096     4.9755125538    17.4531642591
Ni      9.8167825097     7.0877537817    17.4103443969
Ni      8.5892164316     0.7202852876    17.3957222389
Ni      9.8163618533     2.8492632469    17.4128078224
Ni     11.0342831072     4.9680447503    17.4243422244
Ni     12.2719396951     7.0954116059    17.3902393440
O       8.4735711718     3.5449039791    22.6261155477
O       8.4605634551     4.4084067814    19.8315047374
O      11.3045391079     3.9509769874    23.7692822767
C       9.6807718655     3.9124188284    21.9553629689
C       9.5626893776     3.6193813864    20.4185040353
C      10.8889918925     3.1834483784    22.6257325768
H       9.8486696684     4.9835481989    22.1639942890
H       9.5174465932     2.5105116056    20.3086861504
H      10.4908375387     3.9545753743    19.9326139075
H      11.7288833783     3.0787551547    21.9135802587
H      10.5575197748     2.1766168994    22.9384572715
H       8.0025964374     2.9469278280    22.0154817059
H       7.8913888887     4.2973033513    19.0178233149
H      12.1063392176     3.5635896508    24.1676067061
O       2.5279701847     1.6088771189    18.8799674118
H       2.6610521701     1.7725511380    19.8339499013
80
Step 3 | NEB Image 3 | Cartesian Angstrom
Ni      1.2286483615     0.7093577244    11.2499945386
Ni      2.4572973489     2.8374427957    11.2499952903
Ni      3.6859445320     4.9655294026    11.2499957077
Ni      4.9145951834     7.0936172571    11.2499995001
Ni      3.6859529244     0.7093590528    11.2500077993
Ni      4.9145988487     2.8374428293    11.2500108171
Ni      6.1432467578     4.9655306540    11.2500125491
Ni      7.3718956016     7.0936145440    11.2500197894
Ni      6.1432497086     0.7093638854    11.2500258230
Ni      7.3718949990     2.8374483151    11.2500292008
Ni      8.6005411633     4.9655338573    11.2500356451
Ni      9.8291867896     7.0936118673    11.2500346961
Ni      8.6005429079     0.7093704745    11.2500356782
Ni      9.8291865084     2.8374545344    11.2500399552
Ni     11.0578309821     4.9655348841    11.2500411367
Ni     12.2864802568     7.0936113900    11.2500319864
Ni      9.8231608289     0.0025363924    13.3024298008
Ni     11.0517583915     2.1302552483    13.3047927402
Ni     12.2799903440     4.2570985034    13.3045478777
Ni     13.5092312351     6.3850364979    13.3032819181
Ni      2.4517829521     0.0021538961    13.3026616851
Ni      3.6803471636     2.1303241071    13.3041459480
Ni      4.9087937575     4.2579179082    13.3054447452
Ni      6.1372761047     6.3857949539    13.3033089909
Ni      4.9086590016     0.0018441362    13.3024779051
Ni      6.1373853620     2.1309638135    13.3056884622
Ni      7.3661346092     4.2582571909    13.3070327002
Ni      8.5943172054     6.3854178428    13.3049675253
Ni      7.3651894437     0.0024035309    13.3021152172
Ni      8.5942047763     2.1304901632    13.3044860378
Ni      9.8231388566     4.2573088369    13.3058747396
Ni     11.0517037133     6.3857104423    13.3034524442
Ni      2.4491757653     1.4221617839    15.3360844458
Ni      3.6775012670     3.5492877778    15.3388202922
Ni      4.9060467301     5.6779723342    15.3376520692
Ni      6.1347209144     7.8070520066    15.3337809864
Ni      4.9058489053     1.4220398782    15.3367623156
Ni      6.1343549294     3.5506546915    15.3402215279
Ni      7.3626273829     5.6785275596    15.3399544832
Ni      8.5914627722     7.8061088087    15.3359380643
Ni      7.3625468754     1.4223340565    15.3373346147
Ni      8.5911326416     3.5495508826    15.3412536272
Ni      9.8197878989     5.6778728090    15.3384762531
Ni     11.0484127536     7.8068868051    15.3350829569
Ni      9.8199230731     1.4223421033    15.3369108279
Ni     11.0483949852     3.5494877960    15.3408819179
Ni     12.2771604039     5.6773531156    15.3362413952
Ni     13.5060120656     7.8062983023    15.3320586364
Ni      1.2173883028     0.7137949451    17.3864699875
Ni      2.4471524589     2.8439151769    17.3918470963
Ni      3.6751994279     4.9709117329    17.3913394999
Ni      4.9043893957     7.0994165293    17.3857946889
Ni      3.6793477053     0.7108059056    17.3924595893
Ni      4.9061026100     2.8402185963    17.4033545485
Ni      6.1303965610     4.9761666252    17.3908829693
Ni      7.3620895671     7.0981954299    17.3934124913
Ni      6.1325009019     0.7140442520    17.3941606665
Ni      7.3600709760     2.8352569053    17.3927320216
Ni      8.5866622444     4.9769891611    17.4014898623
Ni      9.8179993515     7.0981700817    17.3920867049
Ni      8.5905300847     0.7141936650    17.3898949526
Ni      9.8181427759     2.8396827048    17.3948070180
Ni     11.0465244599     4.9746696004    17.3940112520
Ni     12.2751537011     7.0985627732    17.3860710527
O       8.3391917099     3.4663670692    21.0232872531
O       9.1037095436     5.4117278698    19.1565394421
O      10.1193226756     3.7622098387    23.5619147196
C       9.4583998053     4.3059040220    21.3171737196
C      10.0184332736     4.6694395153    19.9479751996
C      10.5356031687     3.6579860541    22.1907436849
H       9.1386668374     5.2321392841    21.8316576343
H      10.2755429711     3.6858615227    19.4678918980
H      10.9561845394     5.2421079605    20.0644767163
H      11.4989328969     4.1790407355    22.0395861498
H      10.6691687635     2.5996718269    21.9016304004
H       8.0184806044     3.0025769007    21.8112718351
H       6.3389458039     3.6764013417    18.3992653953
H      10.8297411205     3.4151582275    24.1269619639
O       2.4891157046     0.7287557168    18.9309390260
H       2.5731184029     1.4429241942    19.5929129685
80
Step 4 | NEB Image 4 | Cartesian Angstrom
Ni      1.2285472953     0.7093203957    11.2498398841
Ni      2.4571582915     2.8374355083    11.2497229546
Ni      3.6858024181     4.9655832863    11.2496476745
Ni      4.9144877349     7.0937240789    11.2496687925
Ni      3.6858438237     0.7092728107    11.2496759000
Ni      4.9144822405     2.8374077391    11.2495081941
Ni      6.1431563218     4.9655844024    11.2494495220
Ni      7.3718555836     7.0937445770    11.2495416768
Ni      6.1432060987     0.7092256673    11.2495564440
Ni      7.3718836090     2.8373740216    11.2494001972
Ni      8.6005762180     4.9655654913    11.2493948764
Ni      9.8292587980     7.0937297213    11.2495499170
Ni      8.6005940794     0.7092137827    11.2495674151
Ni      9.8292919543     2.8373674874    11.2494813484
Ni     11.0579724804     4.9655491108    11.2495324564
Ni     12.2866144904     7.0936935852    11.2496875403
Ni      9.8233889806     0.0020989278    13.3016142793
Ni     11.0521590396     2.1299324364    13.3037453442
Ni     12.2804733379     4.2570156568    13.3035675357
Ni     13.5096342879     6.3851495523    13.3026569491
Ni      2.4515351856     0.0019601618    13.3021666460
Ni      3.6799535133     2.1302207110    13.3031066838
Ni      4.9083845831     4.2580642148    13.3040894232
Ni      6.1369639472     6.3861445308    13.3020554537
Ni      4.9085111427     0.0014307902    13.3015112808
Ni      6.1372416237     2.1306752422    13.3040585074
Ni      7.3660365609     4.2582543316    13.3050796168
Ni      8.5943700320     6.3857671497    13.3032992801
Ni      7.3652459608     0.0018779682    13.3010540527
Ni      8.5944166541     2.1300649820    13.3028851890
Ni      9.8235127518     4.2571883090    13.3041208445
Ni     11.0521333743     6.3859451308    13.3021647917
Ni      2.4479026718     1.4221019254    15.3343069742
Ni      3.6753493525     3.5500551189    15.3351646333
Ni      4.9045096139     5.6791704422    15.3345632376
Ni      6.1337786213     7.8083111348    15.3314817800
Ni      4.9054330044     1.4208978859    15.3316684712
Ni      6.1335687052     3.5508285392    15.3334559167
Ni      7.3613823178     5.6797749669    15.3330286444
Ni      8.5914311798     7.8080055991    15.3319164793
Ni      7.3630288176     1.4203015209    15.3322882166
Ni      8.5921104974     3.5478234226    15.3336539340
Ni      9.8215681532     5.6787719061    15.3314247331
Ni     11.0497379814     7.8083151905    15.3319917166
Ni      9.8209993243     1.4207909996    15.3337464803
Ni     11.0500733503     3.5484482790    15.3370083063
Ni     12.2790177451     5.6777506856    15.3332631134
Ni     13.5069321876     7.8068342142    15.3309671353
Ni      1.2164089646     0.7137907220    17.3859196347
Ni      2.4435402023     2.8439830304    17.3889680753
Ni      3.6698866877     4.9751271564    17.3859248464
Ni      4.9016652572     7.1021315345    17.3829146387
Ni      3.6841019957     0.7040498342    17.3605177978
Ni      4.8900772155     2.8446746817    17.3549854510
Ni      6.1194154461     4.9816716656    17.3669174315
Ni      7.3564849586     7.1096429283    17.3739342355
Ni      6.1353603644     0.7012420355    17.3754884659
Ni      7.3701633865     2.8295645079    17.3535431808
Ni      8.5959436951     4.9631186672    17.3332925927
Ni      9.8247527656     7.1121437153    17.3653125113
Ni      8.5934199642     0.7061627241    17.3801884017
Ni      9.8241633960     2.8325306978    17.3777518635
Ni     11.0617457748     4.9712433743    17.3667732551
Ni     12.2811312548     7.1021027942    17.3801167174
O       8.9195111438     3.2868739328    20.0745601255
O       8.2275616636     5.8293021556    18.9358889192
O       9.1843248145     3.2764300683    22.9230828802
C       8.7621438214     4.4528347901    20.8852085063
C       9.1083712614     5.6612750301    20.0390676326
C       9.6517163307     4.3620677943    22.1124792818
H       7.7150569157     4.5444779047    21.2100400317
H      10.1440219351     5.5382836411    19.6751406453
H       9.0592811466     6.5626951987    20.6588681746
H       9.6117969707     5.3057003010    22.6705902619
H      10.6855322669     4.1777992796    21.7938223466
H       8.6644001292     2.5254869722    20.6216982305
H       6.1347875127     2.2649233456    18.3128273803
H       9.8344201537     3.1286088569    23.6283181183
O       2.4772767119     0.5201709911    18.9009699350
H       2.4831321295     1.2748285804    19.5207668458
80
Step 5 | NEB Image 5 | Cartesian Angstrom
Ni      1.2286497034     0.7093615225    11.2499999440
Ni      2.4572989609     2.8374461750    11.2499999440
Ni      3.6859482184     4.9655308275    11.2499999440
Ni      4.9145974759     7.0936154800    11.2499999440
Ni      3.6859497034     0.7093615225    11.2499999440
Ni      4.9145989609     2.8374461750    11.2499999440
Ni      6.1432482184     4.9655308275    11.2499999440
Ni      7.3718974759     7.0936154800    11.2499999440
Ni      6.1432497034     0.7093615225    11.2499999440
Ni      7.3718989609     2.8374461750    11.2499999440
Ni      8.6005482184     4.9655308275    11.2499999440
Ni      9.8291974759     7.0936154800    11.2499999440
Ni      8.6005497034     0.7093615225    11.2499999440
Ni      9.8291989609     2.8374461750    11.2499999440
Ni     11.0578482184     4.9655308275    11.2499999440
Ni     12.2864974759     7.0936154800    11.2499999440
Ni      9.8231926870     0.0024995631    13.3023446442
Ni     11.0518089676     2.1302240586    13.3047083557
Ni     12.2800508544     4.2570722939    13.3044621680
Ni     13.5092873083     6.3850384546    13.3032134512
Ni      2.4517696982     0.0021660497    13.3026623307
Ni      3.6803278881     2.1303359107    13.3041135630
Ni      4.9088074938     4.2579363814    13.3054287544
Ni      6.1372745671     6.3857877107    13.3032783798
Ni      4.9086517115     0.0018312594    13.3024060945
Ni      6.1374036838     2.1309748468    13.3056096270
Ni      7.3661495135     4.2582451239    13.3069522585
Ni      8.5943413203     6.3854189562    13.3048451696
Ni      7.3652044956     0.0023769003    13.3020219334
Ni      8.5942385662     2.1304695544    13.3043868044
Ni      9.8231946918     4.2572739512    13.3057506922
Ni     11.0517679695     6.3857120360    13.3033344194
Ni      2.4490339821     1.4222228929    15.3362210124
Ni      3.6772966574     3.5494520554    15.3385526461
Ni      4.9062018672     5.6779299780    15.3378106046
Ni      6.1346571942     7.8070606266    15.3335999053
Ni      4.9058225197     1.4219699914    15.3362206260
Ni      6.1346426084     3.5508505475    15.3401418518
Ni      7.3625330027     5.6784279498    15.3395242568
Ni      8.5915701206     7.8062468470    15.3354851546
Ni      7.3627071376     1.4224398724    15.3370388041
Ni      8.5913286772     3.5492677633    15.3408174188
Ni      9.8201850849     5.6778143804    15.3377746619
Ni     11.0486433115     7.8070023171    15.3347462049
Ni      9.8200953547     1.4222882677    15.3366654644
Ni     11.0486075444     3.5492992589    15.3407265960
Ni     12.2774144623     5.6772885732    15.3359640033
Ni     13.5061541972     7.8063455902    15.3319299253
Ni      1.2187910631     0.7145173608    17.3879334314
Ni      2.4472474227     2.8420654806    17.3934581627
Ni      3.6755426811     4.9714604374    17.3911199588
Ni      4.9045369929     7.0990999797    17.3858410289
Ni      3.6755273590     0.7130852450    17.3897672789
Ni      4.9037000473     2.8423806074    17.3934481142
Ni      6.1319553005     4.9726957480    17.3963328007
Ni      7.3614524743     7.0997441935    17.3897409983
Ni      6.1332850561     0.7119051795    17.3902534707
Ni      7.3623531846     2.8409773484    17.3961534740
Ni      8.5911690953     4.9716069348    17.3936888912
Ni      9.8197669951     7.1000577029    17.3889506467
Ni      8.5911411426     0.7131642395    17.3880087950
Ni      9.8198330590     2.8408219131    17.3957136598
Ni     11.0487030798     4.9704125685    17.3927698418
Ni     12.2763266601     7.0989938309    17.3852102935
O       9.3819344244     4.1358166692    20.0930362367
O       7.4403591999     5.7710500252    18.8010456662
O       8.6054614657     3.3490556865    22.7703843692
C       8.1664603160     4.5686069475    20.7700096311
C       7.7641571257     5.9228005922    20.1887078083
C       8.3912004598     4.6889035721    22.2787219386
H       7.3485584428     3.8274455412    20.5710354409
H       8.5939941550     6.6612606078    20.2727262356
H       6.8675792875     6.3118286823    20.7285291220
H       7.5127131407     5.1500412147    22.7730789076
H       9.2780443246     5.3384479547    22.4478370724
H       9.6348023466     3.2728259917    20.4951539629
H       4.4134518168     1.3599542848    19.7391102444
H       8.7500633813     3.3953291848    23.7317250903
O       3.5190441201     1.0401590876    20.0091886335
H       2.9303167551     1.7729858078    19.7218291788
