80
Step 1 | NEB Image 1 | Cartesian Angstrom
Ni      1.2286497520     0.7093615510    11.2500000000
Ni      2.4572990100     2.8374462050    11.2500000000
Ni      3.6859482670     4.9655308580    11.2500000000
Ni      4.9145975240     7.0936155120    11.2500000000
Ni      3.6859497520     0.7093615510    11.2500000000
Ni      4.9145990100     2.8374462050    11.2500000000
Ni      6.1432482670     4.9655308580    11.2500000000
Ni      7.3718975240     7.0936155120    11.2500000000
Ni      6.1432497520     0.7093615510    11.2500000000
Ni      7.3718990100     2.8374462050    11.2500000000
Ni      8.6005482670     4.9655308580    11.2500000000
Ni      9.8291975240     7.0936155120    11.2500000000
Ni      8.6005497520     0.7093615510    11.2500000000
Ni      9.8291990100     2.8374462050    11.2500000000
Ni     11.0578482670     4.9655308580    11.2500000000
Ni     12.2864975240     7.0936155120    11.2500000000
Ni      9.8231926171     0.0024995243    13.3023445018
Ni     11.0518089828     2.1302240239    13.3047084143
Ni     12.2800508463     4.2570722555    13.3044621731
Ni     13.5092872810     6.3850384707    13.3032135992
Ni      2.4517697468     0.0021660604    13.3026623602
Ni      3.6803279060     2.1303359400    13.3041136817
Ni      4.9088074779     4.2579363993    13.3054287219
Ni      6.1372745399     6.3857876859    13.3032783461
Ni      4.9086517489     0.0018312679    13.3024059973
Ni      6.1374036900     2.1309748259    13.3056096279
Ni      7.3661494965     4.2582451225    13.3069521294
Ni      8.5943412642     6.3854189356    13.3048452032
Ni      7.3652045598     0.0023769347    13.3020218594
Ni      8.5942385870     2.1304695640    13.3043867892
Ni      9.8231946460     4.2572739586    13.3057508082
Ni     11.0517679487     6.3857120742    13.3033345673
Ni      2.4490340007     1.4222228898    15.3362210296
Ni      3.6772966341     3.5494520402    15.3385526486
Ni      4.9062018309     5.6779299863    15.3378107865
Ni      6.1346571371     7.8070605965    15.3335997660
Ni      4.9058225440     1.4219700119    15.3362205140
Ni      6.1346426161     3.5508505239    15.3401416952
Ni      7.3625330181     5.6784279340    15.3395242275
Ni      8.5915701699     7.8062468637    15.3354849978
Ni      7.3627070876     1.4224398614    15.3370387851
Ni      8.5913286878     3.5492678034    15.3408173342
Ni      9.8201850892     5.6778143966    15.3377748313
Ni     11.0486432903     7.8070022870    15.3347461742
Ni      9.8200953687     1.4222882767    15.3366655971
Ni     11.0486075170     3.5492992344    15.3407266613
Ni     12.2774144290     5.6772885475    15.3359640395
Ni     13.5061541408     7.8063455598    15.3319300907
Ni      1.2187910907     0.7145173253    17.3879335108
Ni      2.4472474042     2.8420654675    17.3934583506
Ni      3.6755426414     4.9714604155    17.3911200986
Ni      4.9045370414     7.0991000162    17.3858411419
Ni      3.6755273378     0.7130852300    17.3897672756
Ni      4.9036999828     2.8423805674    17.3934479204
Ni      6.1319552592     4.9726957523    17.3963329095
Ni      7.3614524683     7.0997442315    17.3897409244
Ni      6.1332850858     0.7119051778    17.3902533166
Ni      7.3623531396     2.8409773511    17.3961535169
Ni      8.5911690575     4.9716069245    17.3936889093
Ni      9.8197669708     7.1000576725    17.3889506802
Ni      8.5911411739     0.7131642406    17.3880086894
Ni      9.8198330202     2.8408219279    17.3957136835
Ni     11.0487030817     4.9704125327    17.3927697587
Ni     12.2763266391     7.0989938258    17.3852102912
O       8.9251371547     3.7718626191    21.8184268850
O       8.2856391285     4.9229512085    19.4555245639
O       9.2075287665     5.5577213861    24.1208549146
C       8.7890586869     5.2052027711    21.7895113295
C       9.0784439890     5.7020940863    20.3779856090
C       9.6515589376     5.9211725815    22.8141432585
H       7.7293756442     5.3817804057    22.0278442606
H      10.1474804590     5.6000307635    20.1164095999
H       8.7838187357     6.7504084847    20.2283688646
H       9.5590105667     7.0098663540    22.6449898105
H      10.7134083106     5.6461089342    22.6557665352
H       9.8741227664     3.5482534744    21.8035304548
H       8.2322125213     4.0045331414    19.8060067960
H       9.6829651335     6.0990185004    24.7711400704
O       6.1653810439     2.8377880350    18.9516314119
H       6.1530320207     2.0167345793    19.4830847610
80
Step 2 | NEB Image 2 | Cartesian Angstrom
Ni      1.2286497520     0.7093615510    11.2500000000
Ni      2.4572990100     2.8374462050    11.2500000000
Ni      3.6859482670     4.9655308580    11.2500000000
Ni      4.9145975240     7.0936155120    11.2500000000
Ni      3.6859497520     0.7093615510    11.2500000000
Ni      4.9145990100     2.8374462050    11.2500000000
Ni      6.1432482670     4.9655308580    11.2500000000
Ni      7.3718975240     7.0936155120    11.2500000000
Ni      6.1432497520     0.7093615510    11.2500000000
Ni      7.3718990100     2.8374462050    11.2500000000
Ni      8.6005482670     4.9655308580    11.2500000000
Ni      9.8291975240     7.0936155120    11.2500000000
Ni      8.6005497520     0.7093615510    11.2500000000
Ni      9.8291990100     2.8374462050    11.2500000000
Ni     11.0578482670     4.9655308580    11.2500000000
Ni     12.2864975240     7.0936155120    11.2500000000
Ni      9.8231926171     0.0024995243    13.3023445018
Ni     11.0518089828     2.1302240239    13.3047084143
Ni     12.2800508463     4.2570722555    13.3044621731
Ni     13.5092872810     6.3850384707    13.3032135992
Ni      2.4517697468     0.0021660604    13.3026623602
Ni      3.6803279060     2.1303359400    13.3041136817
Ni      4.9088074779     4.2579363993    13.3054287219
Ni      6.1372745399     6.3857876859    13.3032783461
Ni      4.9086517489     0.0018312679    13.3024059973
Ni      6.1374036900     2.1309748259    13.3056096279
Ni      7.3661494965     4.2582451225    13.3069521294
Ni      8.5943412642     6.3854189356    13.3048452032
Ni      7.3652045598     0.0023769347    13.3020218594
Ni      8.5942385870     2.1304695640    13.3043867892
Ni      9.8231946460     4.2572739586    13.3057508082
Ni     11.0517679487     6.3857120742    13.3033345673
Ni      2.4490340007     1.4222228898    15.3362210296
Ni      3.6772966341     3.5494520402    15.3385526486
Ni      4.9062018309     5.6779299863    15.3378107865
Ni      6.1346571371     7.8070605965    15.3335997660
Ni      4.9058225440     1.4219700119    15.3362205140
Ni      6.1346426161     3.5508505239    15.3401416952
Ni      7.3625330181     5.6784279340    15.3395242275
Ni      8.5915701699     7.8062468637    15.3354849978
Ni      7.3627070876     1.4224398614    15.3370387851
Ni      8.5913286878     3.5492678034    15.3408173342
Ni      9.8201850892     5.6778143966    15.3377748313
Ni     11.0486432903     7.8070022870    15.3347461742
Ni      9.8200953687     1.4222882767    15.3366655971
Ni     11.0486075170     3.5492992344    15.3407266613
Ni     12.2774144290     5.6772885475    15.3359640395
Ni     13.5061541408     7.8063455598    15.3319300907
Ni      1.2187910907     0.7145173253    17.3879335108
Ni      2.4472474042     2.8420654675    17.3934583506
Ni      3.6755426414     4.9714604155    17.3911200986
Ni      4.9045370414     7.0991000162    17.3858411419
Ni      3.6755273378     0.7130852300    17.3897672756
Ni      4.9036999828     2.8423805674    17.3934479204
Ni      6.1319552592     4.9726957523    17.3963329095
Ni      7.3614524683     7.0997442315    17.3897409244
Ni      6.1332850858     0.7119051778    17.3902533166
Ni      7.3623531396     2.8409773511    17.3961535169
Ni      8.5911690575     4.9716069245    17.3936889093
Ni      9.8197669708     7.1000576725    17.3889506802
Ni      8.5911411739     0.7131642406    17.3880086894
Ni      9.8198330202     2.8408219279    17.3957136835
Ni     11.0487030817     4.9704125327    17.3927697587
Ni     12.2763266391     7.0989938258    17.3852102912
O       9.0083343567     3.7242173077    21.7720189235
O       8.2302596450     4.9959561482    19.4025909273
O       9.1853656387     5.4999598705    24.0827173822
C       8.8112465017     5.1452375161    21.7497753032
C       9.0730082287     5.6788020344    20.3500761681
C       9.6344884038     5.8951330660    22.7871388585
H       7.7454515242     5.2759043489    21.9941605507
H      10.1301123955     5.5379354662    20.0567802381
H       8.8353013353     6.7498991249    20.2582811033
H       9.4966205816     6.9810290897    22.6276521903
H      10.7088172418     5.6676068044    22.6427556350
H       9.9504591383     3.5421534147    21.5978666942
H       7.9131226318     4.1127051023    19.7225276666
H       9.6901150327     5.9928902526    24.7495039496
O       6.4740271322     2.8994536937    19.0880393078
H       6.5344654618     2.0395685248    19.5488357728
80
Step 3 | NEB Image 3 | Cartesian Angstrom
Ni      1.2286497520     0.7093615510    11.2500000000
Ni      2.4572990100     2.8374462050    11.2500000000
Ni      3.6859482670     4.9655308580    11.2500000000
Ni      4.9145975240     7.0936155120    11.2500000000
Ni      3.6859497520     0.7093615510    11.2500000000
Ni      4.9145990100     2.8374462050    11.2500000000
Ni      6.1432482670     4.9655308580    11.2500000000
Ni      7.3718975240     7.0936155120    11.2500000000
Ni      6.1432497520     0.7093615510    11.2500000000
Ni      7.3718990100     2.8374462050    11.2500000000
Ni      8.6005482670     4.9655308580    11.2500000000
Ni      9.8291975240     7.0936155120    11.2500000000
Ni      8.6005497520     0.7093615510    11.2500000000
Ni      9.8291990100     2.8374462050    11.2500000000
Ni     11.0578482670     4.9655308580    11.2500000000
Ni     12.2864975240     7.0936155120    11.2500000000
Ni      9.8231926171     0.0024995243    13.3023445018
Ni     11.0518089828     2.1302240239    13.3047084143
Ni     12.2800508463     4.2570722555    13.3044621731
Ni     13.5092872810     6.3850384707    13.3032135992
Ni      2.4517697468     0.0021660604    13.3026623602
Ni      3.6803279060     2.1303359400    13.3041136817
Ni      4.9088074779     4.2579363993    13.3054287219
Ni      6.1372745399     6.3857876859    13.3032783461
Ni      4.9086517489     0.0018312679    13.3024059973
Ni      6.1374036900     2.1309748259    13.3056096279
Ni      7.3661494965     4.2582451225    13.3069521294
Ni      8.5943412642     6.3854189356    13.3048452032
Ni      7.3652045598     0.0023769347    13.3020218594
Ni      8.5942385870     2.1304695640    13.3043867892
Ni      9.8231946460     4.2572739586    13.3057508082
Ni     11.0517679487     6.3857120742    13.3033345673
Ni      2.4490340007     1.4222228898    15.3362210296
Ni      3.6772966341     3.5494520402    15.3385526486
Ni      4.9062018309     5.6779299863    15.3378107865
Ni      6.1346571371     7.8070605965    15.3335997660
Ni      4.9058225440     1.4219700119    15.3362205140
Ni      6.1346426161     3.5508505239    15.3401416952
Ni      7.3625330181     5.6784279340    15.3395242275
Ni      8.5915701699     7.8062468637    15.3354849978
Ni      7.3627070876     1.4224398614    15.3370387851
Ni      8.5913286878     3.5492678034    15.3408173342
Ni      9.8201850892     5.6778143966    15.3377748313
Ni     11.0486432903     7.8070022870    15.3347461742
Ni      9.8200953687     1.4222882767    15.3366655971
Ni     11.0486075170     3.5492992344    15.3407266613
Ni     12.2774144290     5.6772885475    15.3359640395
Ni     13.5061541408     7.8063455598    15.3319300907
Ni      1.2187910907     0.7145173253    17.3879335108
Ni      2.4472474042     2.8420654675    17.3934583506
Ni      3.6755426414     4.9714604155    17.3911200986
Ni      4.9045370414     7.0991000162    17.3858411419
Ni      3.6755273378     0.7130852300    17.3897672756
Ni      4.9036999828     2.8423805674    17.3934479204
Ni      6.1319552592     4.9726957523    17.3963329095
Ni      7.3614524683     7.0997442315    17.3897409244
Ni      6.1332850858     0.7119051778    17.3902533166
Ni      7.3623531396     2.8409773511    17.3961535169
Ni      8.5911690575     4.9716069245    17.3936889093
Ni      9.8197669708     7.1000576725    17.3889506802
Ni      8.5911411739     0.7131642406    17.3880086894
Ni      9.8198330202     2.8408219279    17.3957136835
Ni     11.0487030817     4.9704125327    17.3927697587
Ni     12.2763266391     7.0989938258    17.3852102912
O       9.0575457687     3.7044093769    21.7702064612
O       8.2685010406     4.9974380227    19.3643485372
O       9.1738029771     5.4902047537    24.0690115303
C       8.8181486817     5.1162453338    21.7324373002
C       9.0784027580     5.6682346975    20.3372509009
C       9.6176154496     5.8916430606    22.7730969610
H       7.7482579212     5.2199635932    21.9716502047
H      10.1428849522     5.5483608128    20.0596701985
H       8.8348214759     6.7413175834    20.2747667445
H       9.4579698876     6.9742316367    22.6127368323
H      10.6973072901     5.6859748139    22.6338134163
H      10.0004679513     3.5484683597    21.5776380769
H       7.8350096041     4.0965347077    19.6275774904
H       9.6749967101     5.9870879984    24.7352833560
O       6.8601949853     2.9615745953    19.2295377446
H       6.9006447235     2.0931785523    19.6705109945
80
Step 4 | NEB Image 4 | Cartesian Angstrom
Ni      1.2286497520     0.7093615510    11.2500000000
Ni      2.4572990100     2.8374462050    11.2500000000
Ni      3.6859482670     4.9655308580    11.2500000000
Ni      4.9145975240     7.0936155120    11.2500000000
Ni      3.6859497520     0.7093615510    11.2500000000
Ni      4.9145990100     2.8374462050    11.2500000000
Ni      6.1432482670     4.9655308580    11.2500000000
Ni      7.3718975240     7.0936155120    11.2500000000
Ni      6.1432497520     0.7093615510    11.2500000000
Ni      7.3718990100     2.8374462050    11.2500000000
Ni      8.6005482670     4.9655308580    11.2500000000
Ni      9.8291975240     7.0936155120    11.2500000000
Ni      8.6005497520     0.7093615510    11.2500000000
Ni      9.8291990100     2.8374462050    11.2500000000
Ni     11.0578482670     4.9655308580    11.2500000000
Ni     12.2864975240     7.0936155120    11.2500000000
Ni      9.8231926171     0.0024995243    13.3023445018
Ni     11.0518089828     2.1302240239    13.3047084143
Ni     12.2800508463     4.2570722555    13.3044621731
Ni     13.5092872810     6.3850384707    13.3032135992
Ni      2.4517697468     0.0021660604    13.3026623602
Ni      3.6803279060     2.1303359400    13.3041136817
Ni      4.9088074779     4.2579363993    13.3054287219
Ni      6.1372745399     6.3857876859    13.3032783461
Ni      4.9086517489     0.0018312679    13.3024059973
Ni      6.1374036900     2.1309748259    13.3056096279
Ni      7.3661494965     4.2582451225    13.3069521294
Ni      8.5943412642     6.3854189356    13.3048452032
Ni      7.3652045598     0.0023769347    13.3020218594
Ni      8.5942385870     2.1304695640    13.3043867892
Ni      9.8231946460     4.2572739586    13.3057508082
Ni     11.0517679487     6.3857120742    13.3033345673
Ni      2.4490340007     1.4222228898    15.3362210296
Ni      3.6772966341     3.5494520402    15.3385526486
Ni      4.9062018309     5.6779299863    15.3378107865
Ni      6.1346571371     7.8070605965    15.3335997660
Ni      4.9058225440     1.4219700119    15.3362205140
Ni      6.1346426161     3.5508505239    15.3401416952
Ni      7.3625330181     5.6784279340    15.3395242275
Ni      8.5915701699     7.8062468637    15.3354849978
Ni      7.3627070876     1.4224398614    15.3370387851
Ni      8.5913286878     3.5492678034    15.3408173342
Ni      9.8201850892     5.6778143966    15.3377748313
Ni     11.0486432903     7.8070022870    15.3347461742
Ni      9.8200953687     1.4222882767    15.3366655971
Ni     11.0486075170     3.5492992344    15.3407266613
Ni     12.2774144290     5.6772885475    15.3359640395
Ni     13.5061541408     7.8063455598    15.3319300907
Ni      1.2187910907     0.7145173253    17.3879335108
Ni      2.4472474042     2.8420654675    17.3934583506
Ni      3.6755426414     4.9714604155    17.3911200986
Ni      4.9045370414     7.0991000162    17.3858411419
Ni      3.6755273378     0.7130852300    17.3897672756
Ni      4.9036999828     2.8423805674    17.3934479204
Ni      6.1319552592     4.9726957523    17.3963329095
Ni      7.3614524683     7.0997442315    17.3897409244
Ni      6.1332850858     0.7119051778    17.3902533166
Ni      7.3623531396     2.8409773511    17.3961535169
Ni      8.5911690575     4.9716069245    17.3936889093
Ni      9.8197669708     7.1000576725    17.3889506802
Ni      8.5911411739     0.7131642406    17.3880086894
Ni      9.8198330202     2.8408219279    17.3957136835
Ni     11.0487030817     4.9704125327    17.3927697587
Ni     12.2763266391     7.0989938258    17.3852102912
O       9.1118978599     3.7010969229    21.6812836124
O       8.3167890492     5.0075506044    19.2915471140
O       9.1510368493     5.4494879909    24.0072638619
C       8.8333731094     5.1089499750    21.6533263685
C       9.0899753350     5.6974762438    20.2593373272
C       9.5997096988     5.8825742368    22.7222901851
H       7.7586232154     5.1784570328    21.8823249177
H      10.1699901606     5.6167110620    20.0159394141
H       8.8320651876     6.7732404016    20.2492913888
H       9.4168561378     6.9637364680    22.5801629449
H      10.6857133572     5.7046816424    22.5957902825
H      10.0608959179     3.5760032662    21.5045435515
H       7.6580619426     3.8043108777    19.5687804862
H       9.6370595810     5.9496825754    24.6878672268
O       7.0243435421     2.9602081216    19.3696572772
H       7.3412706427     2.1798731179    19.8565532773
80
Step 5 | NEB Image 5 | Cartesian Angstrom
Ni      1.2286497520     0.7093615510    11.2500000000
Ni      2.4572990100     2.8374462050    11.2500000000
Ni      3.6859482670     4.9655308580    11.2500000000
Ni      4.9145975240     7.0936155120    11.2500000000
Ni      3.6859497520     0.7093615510    11.2500000000
Ni      4.9145990100     2.8374462050    11.2500000000
Ni      6.1432482670     4.9655308580    11.2500000000
Ni      7.3718975240     7.0936155120    11.2500000000
Ni      6.1432497520     0.7093615510    11.2500000000
Ni      7.3718990100     2.8374462050    11.2500000000
Ni      8.6005482670     4.9655308580    11.2500000000
Ni      9.8291975240     7.0936155120    11.2500000000
Ni      8.6005497520     0.7093615510    11.2500000000
Ni      9.8291990100     2.8374462050    11.2500000000
Ni     11.0578482670     4.9655308580    11.2500000000
Ni     12.2864975240     7.0936155120    11.2500000000
Ni      9.8231926171     0.0024995243    13.3023445018
Ni     11.0518089828     2.1302240239    13.3047084143
Ni     12.2800508463     4.2570722555    13.3044621731
Ni     13.5092872810     6.3850384707    13.3032135992
Ni      2.4517697468     0.0021660604    13.3026623602
Ni      3.6803279060     2.1303359400    13.3041136817
Ni      4.9088074779     4.2579363993    13.3054287219
Ni      6.1372745399     6.3857876859    13.3032783461
Ni      4.9086517489     0.0018312679    13.3024059973
Ni      6.1374036900     2.1309748259    13.3056096279
Ni      7.3661494965     4.2582451225    13.3069521294
Ni      8.5943412642     6.3854189356    13.3048452032
Ni      7.3652045598     0.0023769347    13.3020218594
Ni      8.5942385870     2.1304695640    13.3043867892
Ni      9.8231946460     4.2572739586    13.3057508082
Ni     11.0517679487     6.3857120742    13.3033345673
Ni      2.4490340007     1.4222228898    15.3362210296
Ni      3.6772966341     3.5494520402    15.3385526486
Ni      4.9062018309     5.6779299863    15.3378107865
Ni      6.1346571371     7.8070605965    15.3335997660
Ni      4.9058225440     1.4219700119    15.3362205140
Ni      6.1346426161     3.5508505239    15.3401416952
Ni      7.3625330181     5.6784279340    15.3395242275
Ni      8.5915701699     7.8062468637    15.3354849978
Ni      7.3627070876     1.4224398614    15.3370387851
Ni      8.5913286878     3.5492678034    15.3408173342
Ni      9.8201850892     5.6778143966    15.3377748313
Ni     11.0486432903     7.8070022870    15.3347461742
Ni      9.8200953687     1.4222882767    15.3366655971
Ni     11.0486075170     3.5492992344    15.3407266613
Ni     12.2774144290     5.6772885475    15.3359640395
Ni     13.5061541408     7.8063455598    15.3319300907
Ni      1.2187910907     0.7145173253    17.3879335108
Ni      2.4472474042     2.8420654675    17.3934583506
Ni      3.6755426414     4.9714604155    17.3911200986
Ni      4.9045370414     7.0991000162    17.3858411419
Ni      3.6755273378     0.7130852300    17.3897672756
Ni      4.9036999828     2.8423805674    17.3934479204
Ni      6.1319552592     4.9726957523    17.3963329095
Ni      7.3614524683     7.0997442315    17.3897409244
Ni      6.1332850858     0.7119051778    17.3902533166
Ni      7.3623531396     2.8409773511    17.3961535169
Ni      8.5911690575     4.9716069245    17.3936889093
Ni      9.8197669708     7.1000576725    17.3889506802
Ni      8.5911411739     0.7131642406    17.3880086894
Ni      9.8198330202     2.8408219279    17.3957136835
Ni     11.0487030817     4.9704125327    17.3927697587
Ni     12.2763266391     7.0989938258    17.3852102912
O       9.3045527771     3.7133575323    21.5014801328
O       8.2676799813     5.1067567422    19.2490910386
O       9.1290199374     5.3031558564    23.9330297823
C       8.8881682347     5.0877601593    21.5636972024
C       9.0744650723     5.7741455547    20.2108696172
C       9.5605972026     5.8609600029    22.6899133488
H       7.8101129966     5.0363799002    21.7823565066
H      10.1427716634     5.7393274690    19.9134421831
H       8.7891110085     6.8405022187    20.2658700948
H       9.2748252532     6.9256750790    22.6069801659
H      10.6607265066     5.7971487966    22.5795174168
H      10.2555622390     3.6921116131    21.2897718573
H       7.7255009436     3.7818408526    19.5489249549
H       9.5087506460     5.8278663638    24.6556475781
O       7.2643301131     2.8500978930    19.4130110797
H       7.8626355014     2.1992220207    19.8252374204
