80
Step 1 | NEB Image 1 | Cartesian Angstrom
Ni      1.2286497034     0.7093615225    11.2499999440
Ni      2.4572989609     2.8374461750    11.2499999440
Ni      3.6859482184     4.9655308275    11.2499999440
Ni      4.9145974759     7.0936154800    11.2499999440
Ni      3.6859497034     0.7093615225    11.2499999440
Ni      4.9145989609     2.8374461750    11.2499999440
Ni      6.1432482184     4.9655308275    11.2499999440
Ni      7.3718974759     7.0936154800    11.2499999440
Ni      6.1432497034     0.7093615225    11.2499999440
Ni      7.3718989609     2.8374461750    11.2499999440
Ni      8.6005482184     4.9655308275    11.2499999440
Ni      9.8291974759     7.0936154800    11.2499999440
Ni      8.6005497034     0.7093615225    11.2499999440
Ni      9.8291989609     2.8374461750    11.2499999440
Ni     11.0578482184     4.9655308275    11.2499999440
Ni     12.2864974759     7.0936154800    11.2499999440
Ni      9.8231926870     0.0024995631    13.3023446442
Ni     11.0518089676     2.1302240586    13.3047083557
Ni     12.2800508544     4.2570722939    13.3044621680
Ni     13.5092873083     6.3850384546    13.3032134512
Ni      2.4517696982     0.0021660497    13.3026623307
Ni      3.6803278881     2.1303359107    13.3041135630
Ni      4.9088074938     4.2579363814    13.3054287544
Ni      6.1372745671     6.3857877107    13.3032783798
Ni      4.9086517115     0.0018312594    13.3024060945
Ni      6.1374036838     2.1309748468    13.3056096270
Ni      7.3661495135     4.2582451239    13.3069522585
Ni      8.5943413203     6.3854189562    13.3048451696
Ni      7.3652044956     0.0023769003    13.3020219334
Ni      8.5942385662     2.1304695544    13.3043868044
Ni      9.8231946918     4.2572739512    13.3057506922
Ni     11.0517679695     6.3857120360    13.3033344194
Ni      2.4490339821     1.4222228929    15.3362210124
Ni      3.6772966574     3.5494520554    15.3385526461
Ni      4.9062018672     5.6779299780    15.3378106046
Ni      6.1346571942     7.8070606266    15.3335999053
Ni      4.9058225197     1.4219699914    15.3362206260
Ni      6.1346426084     3.5508505475    15.3401418518
Ni      7.3625330027     5.6784279498    15.3395242568
Ni      8.5915701206     7.8062468470    15.3354851546
Ni      7.3627071376     1.4224398724    15.3370388041
Ni      8.5913286772     3.5492677633    15.3408174188
Ni      9.8201850849     5.6778143804    15.3377746619
Ni     11.0486433115     7.8070023171    15.3347462049
Ni      9.8200953547     1.4222882677    15.3366654644
Ni     11.0486075444     3.5492992589    15.3407265960
Ni     12.2774144623     5.6772885732    15.3359640033
Ni     13.5061541972     7.8063455902    15.3319299253
Ni      1.2187910631     0.7145173608    17.3879334314
Ni      2.4472474227     2.8420654806    17.3934581627
Ni      3.6755426811     4.9714604374    17.3911199588
Ni      4.9045369929     7.0990999797    17.3858410289
Ni      3.6755273590     0.7130852450    17.3897672789
Ni      4.9037000473     2.8423806074    17.3934481142
Ni      6.1319553005     4.9726957480    17.3963328007
Ni      7.3614524743     7.0997441935    17.3897409983
Ni      6.1332850561     0.7119051795    17.3902534707
Ni      7.3623531846     2.8409773484    17.3961534740
Ni      8.5911690953     4.9716069348    17.3936888912
Ni      9.8197669951     7.1000577029    17.3889506467
Ni      8.5911411426     0.7131642395    17.3880087950
Ni      9.8198330590     2.8408219131    17.3957136598
Ni     11.0487030798     4.9704125685    17.3927698418
Ni     12.2763266601     7.0989938309    17.3852102935
O       8.1853233808     3.4574048182    21.7117206478
O       8.5869329741     5.0599815235    19.5762271001
O      10.2109211163     3.6451020548    23.8826602062
C       9.3606393600     4.2890487236    21.7367471584
C       9.7574736302     4.6321502783    20.3055951979
C      10.5272793641     3.6720453941    22.4918474794
H       9.0423459569     5.1976070563    22.2680419510
H      10.2036708160     3.7499198429    19.8025973096
H      10.4835571337     5.4542343167    20.2475656164
H      11.4351836342     4.2717022800    22.2942344717
H      10.7115000118     2.6514065461    22.0984614952
H       8.4384371395     2.5707271966    21.3925898339
H       7.8511829079     4.4818016084    19.8831003151
H      11.0040911060     3.3843978098    24.3788521822
O       2.4676593393     1.4045078651    18.8058894197
H       2.5804189712     1.3115658959    19.7657035449
80
Step 2 | NEB Image 2 | Cartesian Angstrom
Ni      1.2287856693     0.7094158210    11.2502100136
Ni      2.4574826567     2.8374622290    11.2503468190
Ni      3.6861430323     4.9654697320    11.2504386664
Ni      4.9147466932     7.0934794952    11.2504153675
Ni      3.6860841407     0.7094734830    11.2504046307
Ni      4.9147542575     2.8374966128    11.2506010454
Ni      6.1433770838     4.9654645052    11.2506744430
Ni      7.3719614443     7.0934530725    11.2505554586
Ni      6.1433085124     0.7095282600    11.2505331056
Ni      7.3719313240     2.8375332889    11.2507217985
Ni      8.6005302108     4.9654820215    11.2507235879
Ni      9.8291391055     7.0934725717    11.2505298449
Ni      8.6005044235     0.7095360939    11.2505053046
Ni      9.8291010047     2.8375349412    11.2506077034
Ni     11.0577167567     4.9655018366    11.2505450572
Ni     12.2863733414     7.0935190502    11.2503590785
Ni      9.8229849314     0.0029572401    13.3031676040
Ni     11.0514352321     2.1305557718    13.3058163381
Ni     12.2795933665     4.2571195652    13.3055124231
Ni     13.5089126431     6.3848910251    13.3038530985
Ni      2.4520691038     0.0024383080    13.3033204061
Ni      3.6807900198     2.1304783920    13.3053226515
Ni      4.9093914746     4.2578097311    13.3070474588
Ni      6.1376988619     6.3853338284    13.3047749088
Ni      4.9088193331     0.0023213207    13.3034805814
Ni      6.1376595372     2.1313608421    13.3074628202
Ni      7.3663528750     4.2582149518    13.3092254460
Ni      8.5943657344     6.3849632924    13.3066668551
Ni      7.3651790599     0.0029784186    13.3031431078
Ni      8.5940667254     2.1309571581    13.3061770122
Ni      9.8228760966     4.2573406787    13.3076883598
Ni     11.0513959904     6.3854004214    13.3047016664
Ni      2.4504335257     1.4223245393    15.3388333474
Ni      3.6794908110     3.5490155373    15.3421084366
Ni      4.9086000048     5.6764141729    15.3419681881
Ni      6.1357602893     7.8054903677    15.3360389813
Ni      4.9061689947     1.4231233197    15.3413229053
Ni      6.1366921797     3.5511437354    15.3482929842
Ni      7.3641094427     5.6764930179    15.3472597575
Ni      8.5919624678     7.8041453862    15.3394144423
Ni      7.3626629663     1.4254068272    15.3427694436
Ni      8.5905326931     3.5507365936    15.3495771243
Ni      9.8190305230     5.6763834348    15.3452503099
Ni     11.0475988387     7.8053973646    15.3378306286
Ni      9.8191314787     1.4240547072    15.3400212997
Ni     11.0470680754     3.5502967941    15.3453116593
Ni     12.2755750464     5.6765425033    15.3393410577
Ni     13.5053326277     7.8057377934    15.3330215223
Ni      1.2230995511     0.7158193553    17.3915628907
Ni      2.4514049556     2.8390404169    17.3982482316
Ni      3.6832230873     4.9681071848    17.3971663269
Ni      4.9084749222     7.0949524482    17.3894438779
Ni      3.6582315401     0.7282565519    17.4314737744
Ni      4.9208177858     2.8470547132    17.4243992844
Ni      6.1489717439     4.9565962410    17.4382387361
Ni      7.3677769840     7.0891700672    17.4045498757
Ni      6.1338323753     0.7218807414    17.4008648238
Ni      7.3536559314     2.8609993463    17.4586757099
Ni      8.5943372155     4.9745763102    17.4630299758
Ni      9.8167350931     7.0858018829    17.4137858359
Ni      8.5890138104     0.7214354854    17.3967172974
Ni      9.8161877724     2.8513942022    17.4166676266
Ni     11.0319845777     4.9661662186    17.4305226379
Ni     12.2714063621     7.0948047706    17.3910081327
O       8.5276947688     3.4722593269    22.8278030235
O       8.4425759214     4.3702654628    20.2465521019
O      11.4904016392     3.9492869526    23.7252406793
C       9.7582336797     3.8101502777    22.1092085283
C       9.5239296012     3.5244457168    20.6248099087
C      10.9587923558     3.1002621209    22.7033813289
H       9.9292034419     4.8923125240    22.1966768096
H       9.2676556507     2.4514633989    20.4506045378
H      10.4346781849     3.7442939440    20.0330082468
H      11.7179260281     2.9087915704    21.9160148909
H      10.6167389334     2.1253867033    23.1140664720
H       8.0012019800     3.0122189762    22.2556455548
H       8.2682306440     4.1852412883    19.2853060835
H      12.2766254589     3.5243427384    24.1276317069
O       2.5239056832     1.5822410916    18.8586414352
H       2.6848977255     1.7906184246    19.7886302257
80
Step 3 | NEB Image 3 | Cartesian Angstrom
Ni      1.2286761278     0.7093690583    11.2500376885
Ni      2.4573348472     2.8374463163    11.2500662200
Ni      3.6859844486     4.9655170784    11.2500852944
Ni      4.9146257175     7.0935894542    11.2500840609
Ni      3.6859800366     0.7093820195    11.2500895515
Ni      4.9146304558     2.8374533436    11.2501323075
Ni      6.1432730883     4.9655171723    11.2501488437
Ni      7.3719087584     7.0935815688    11.2501313295
Ni      6.1432616743     0.7093976344    11.2501323611
Ni      7.3719018819     2.8374658795    11.2501738789
Ni      8.6005380297     4.9655236988    11.2501802027
Ni      9.8291757163     7.0935830610    11.2501399036
Ni      8.6005342056     0.7094053219    11.2501358185
Ni      9.8291675133     2.8374719674    11.2501606094
Ni     11.0578055292     4.9655286802    11.2501489552
Ni     12.2864562935     7.0935920766    11.2501026513
Ni      9.8231209517     0.0026267481    13.3025908479
Ni     11.0516861492     2.1303203978    13.3050118398
Ni     12.2799018074     4.2571061511    13.3047551317
Ni     13.5091592171     6.3850066471    13.3034069210
Ni      2.4518428765     0.0022102072    13.3027956343
Ni      3.6804397456     2.1303539858    13.3043895299
Ni      4.9089136147     4.2578935273    13.3057729057
Ni      6.1373623217     6.3857020565    13.3036111926
Ni      4.9086925599     0.0019428823    13.3026911347
Ni      6.1374387989     2.1310431828    13.3060596095
Ni      7.3661771084     4.2582501444    13.3074891842
Ni      8.5943239863     6.3853252112    13.3053289892
Ni      7.3651854000     0.0025239213    13.3023363319
Ni      8.5941723520     2.1305878278    13.3048428354
Ni      9.8230782294     4.2573197910    13.3062596755
Ni     11.0516328571     6.3856471570    13.3037217677
Ni      2.4494498738     1.4221870612    15.3366262544
Ni      3.6779323333     3.5492113104    15.3395236753
Ni      4.9065463516     5.6776607238    15.3385099462
Ni      6.1349405734     7.8067331493    15.3342636570
Ni      4.9059174197     1.4222692947    15.3377597616
Ni      6.1347935930     3.5507290740    15.3418740732
Ni      7.3629410493     5.6781263632    15.3414961000
Ni      8.5915506760     7.8056915973    15.3367035136
Ni      7.3625499380     1.4229457084    15.3384784032
Ni      8.5909854205     3.5498284619    15.3430031923
Ni      9.8195828417     5.6775772568    15.3399445924
Ni     11.0482175675     7.8065689260    15.3356852332
Ni      9.8197399044     1.4226974782    15.3375752008
Ni     11.0480977273     3.5496765911    15.3418031760
Ni     12.2768052354     5.6771964574    15.3369076773
Ni     13.5058555854     7.8061781877    15.3322710690
Ni      1.2183704403     0.7141141858    17.3873185239
Ni      2.4480055457     2.8431605754    17.3929428864
Ni      3.6767879937     4.9702706939    17.3925532656
Ni      4.9052017564     7.0985488163    17.3865312562
Ni      3.6755412137     0.7140642455    17.4007432969
Ni      4.9094049555     2.8413322145    17.4089073996
Ni      6.1339761541     4.9726298276    17.3998194828
Ni      7.3633285303     7.0961603338    17.3961496340
Ni      6.1326712277     0.7159131704    17.3960260040
Ni      7.3584729227     2.8397609737    17.4057108779
Ni      8.5876457480     4.9771886509    17.4150123386
Ni      9.8175153527     7.0954113397    17.3969041927
Ni      8.5901431763     0.7157992366    17.3915250748
Ni      9.8175281535     2.8419195408    17.3991387596
Ni     11.0432865096     4.9734854881    17.4015995844
Ni     12.2742407497     7.0977428244    17.3871860349
O       8.3138568024     3.4228682678    21.2866300464
O       9.0561172223     5.2489759318    19.2256281885
O      10.3379619105     3.7923411450    23.6291029356
C       9.5014844677     4.2185713075    21.4138592132
C       9.9715164073     4.4760756426    19.9823325039
C      10.6019098848     3.5437363174    22.2396716894
H       9.2808031867     5.1900390702    21.8954227600
H      10.1220384188     3.4556118485    19.5355929810
H      10.9635313489     4.9711122855    20.0199149322
H      11.5901925487     3.9535125016    21.9584885509
H      10.6087432793     2.4571179062    22.0371219792
H       8.0476067354     3.0821896720    22.1442994907
H       6.4672674738     3.7182489008    18.4546108670
H      11.0866008980     3.4363871603    24.1481585741
O       2.4854537528     0.7460726262    18.9391191985
H       2.5670840166     1.4911471126    19.5681599586
80
Step 4 | NEB Image 4 | Cartesian Angstrom
Ni      1.2285651081     0.7093269381    11.2498671539
Ni      2.4571828746     2.8374367052    11.2497714245
Ni      3.6858274129     4.9655735624    11.2497096930
Ni      4.9145065794     7.0937050661    11.2497276945
Ni      3.6858632570     0.7092881284    11.2497351524
Ni      4.9145028039     2.8374138993    11.2495982158
Ni      6.1431720984     4.9655748059    11.2495503280
Ni      7.3718624251     7.0937214147    11.2496275195
Ni      6.1432137714     0.7092504003    11.2496408896
Ni      7.3718852878     2.8373873588    11.2495132848
Ni      8.6005694949     4.9655600151    11.2495102476
Ni      9.8292454171     7.0937086775    11.2496374742
Ni      8.6005846447     0.7092420468    11.2496521018
Ni      9.8292725936     2.8373833202    11.2495823064
Ni     11.0579465098     4.9655467642    11.2496245008
Ni     12.2865898550     7.0936788609    11.2497500258
Ni      9.8233470793     0.0021783194    13.3017626934
Ni     11.0520855707     2.1299910898    13.3039352105
Ni     12.2803849219     4.2570312688    13.3037448219
Ni     13.5095604389     6.3851295791    13.3027704203
Ni      2.4515793509     0.0019942056    13.3022539754
Ni      3.6800240293     2.1302390392    13.3032934309
Ni      4.9084560671     4.2580371576    13.3043324513
Ni      6.1370187637     6.3860824916    13.3022799664
Ni      4.9085377667     0.0015048521    13.3016854055
Ni      6.1372657949     2.1307262807    13.3043519048
Ni      7.3660524215     4.2582554128    13.3054302032
Ni      8.5943589403     6.3857053547    13.3036005800
Ni      7.3652351026     0.0019724577    13.3012463098
Ni      8.5943773256     2.1301414180    13.3031736580
Ni      9.8234436396     4.2572111264    13.3044371728
Ni     11.0520540920     6.3859037545    13.3023978405
Ni      2.4481315355     1.4221130454    15.3346171028
Ni      3.6757408006     3.5499091072    15.3358350139
Ni      4.9047752279     5.6789565824    15.3351096561
Ni      6.1339471810     7.8080867889    15.3318984812
Ni      4.9055106929     1.4211065598    15.3325961943
Ni      6.1336891162     3.5507891425    15.3346674446
Ni      7.3616020977     5.6795596164    15.3342768699
Ni      8.5914305033     7.8076637045    15.3326507699
Ni      7.3629327748     1.4206557374    15.3331958363
Ni      8.5919297612     3.5481423633    15.3350179305
Ni      9.8212329776     5.6786177653    15.3327002708
Ni     11.0494916274     7.8080584498    15.3325548489
Ni      9.8208016763     1.4210705087    15.3343200683
Ni     11.0497649849     3.5486372461    15.3377019310
Ni     12.2786799808     5.6776844777    15.3337970820
Ni     13.5067630636     7.8067380888    15.3311657439
Ni      1.2165365449     0.7137740616    17.3859751406
Ni      2.4441939882     2.8440066994    17.3894818576
Ni      3.6708154644     4.9743409980    17.3869027985
Ni      4.9021409991     7.1016595828    17.3834286959
Ni      3.6834511318     0.7051378278    17.3661220836
Ni      4.8929588315     2.8436805869    17.3641173619
Ni      6.1213235932     4.9808435649    17.3710070941
Ni      7.3574884800     7.1075431416    17.3775627932
Ni      6.1347687949     0.7036261201    17.3790432987
Ni      7.3683137597     2.8303798967    17.3602735505
Ni      8.5940257054     4.9658298485    17.3456795215
Ni      9.8234545569     7.1096118261    17.3702297777
Ni      8.5928811613     0.7076170142    17.3819647579
Ni      9.8230299491     2.8337875114    17.3808159948
Ni     11.0590176017     4.9719772564    17.3715199698
Ni     12.2800272485     7.1014739600    17.3812010210
O       8.7967070676     3.2088759062    20.2005218543
O       8.4196098910     5.8217066926    18.9827631798
O       9.3047389960     3.3014519966    23.0377975837
C       8.8661739272     4.4171359196    20.9609591046
C       9.3233106295     5.5390507049    20.0409498314
C       9.8441971411     4.2641564023    22.1208029854
H       7.8716838359     4.6657882195    21.3589289303
H      10.3074272374     5.2523758373    19.6198954307
H       9.4567513883     6.4558837383    20.6247729638
H       9.9897721672     5.2324017290    22.6136354648
H      10.8070723264     3.9152517070    21.7249557361
H       8.5387079669     2.4953186587    20.8027976746
H       6.1384440417     2.3345547450    18.3465980700
H       9.9727471166     3.1252744231    23.7140546376
O       2.4779943930     0.5328465871    18.9022221135
H       2.4941566094     1.2908337819    19.5195834142
80
Step 5 | NEB Image 5 | Cartesian Angstrom
Ni      1.2286497034     0.7093615225    11.2499999440
Ni      2.4572989609     2.8374461750    11.2499999440
Ni      3.6859482184     4.9655308275    11.2499999440
Ni      4.9145974759     7.0936154800    11.2499999440
Ni      3.6859497034     0.7093615225    11.2499999440
Ni      4.9145989609     2.8374461750    11.2499999440
Ni      6.1432482184     4.9655308275    11.2499999440
Ni      7.3718974759     7.0936154800    11.2499999440
Ni      6.1432497034     0.7093615225    11.2499999440
Ni      7.3718989609     2.8374461750    11.2499999440
Ni      8.6005482184     4.9655308275    11.2499999440
Ni      9.8291974759     7.0936154800    11.2499999440
Ni      8.6005497034     0.7093615225    11.2499999440
Ni      9.8291989609     2.8374461750    11.2499999440
Ni     11.0578482184     4.9655308275    11.2499999440
Ni     12.2864974759     7.0936154800    11.2499999440
Ni      9.8231926870     0.0024995631    13.3023446442
Ni     11.0518089676     2.1302240586    13.3047083557
Ni     12.2800508544     4.2570722939    13.3044621680
Ni     13.5092873083     6.3850384546    13.3032134512
Ni      2.4517696982     0.0021660497    13.3026623307
Ni      3.6803278881     2.1303359107    13.3041135630
Ni      4.9088074938     4.2579363814    13.3054287544
Ni      6.1372745671     6.3857877107    13.3032783798
Ni      4.9086517115     0.0018312594    13.3024060945
Ni      6.1374036838     2.1309748468    13.3056096270
Ni      7.3661495135     4.2582451239    13.3069522585
Ni      8.5943413203     6.3854189562    13.3048451696
Ni      7.3652044956     0.0023769003    13.3020219334
Ni      8.5942385662     2.1304695544    13.3043868044
Ni      9.8231946918     4.2572739512    13.3057506922
Ni     11.0517679695     6.3857120360    13.3033344194
Ni      2.4490339821     1.4222228929    15.3362210124
Ni      3.6772966574     3.5494520554    15.3385526461
Ni      4.9062018672     5.6779299780    15.3378106046
Ni      6.1346571942     7.8070606266    15.3335999053
Ni      4.9058225197     1.4219699914    15.3362206260
Ni      6.1346426084     3.5508505475    15.3401418518
Ni      7.3625330027     5.6784279498    15.3395242568
Ni      8.5915701206     7.8062468470    15.3354851546
Ni      7.3627071376     1.4224398724    15.3370388041
Ni      8.5913286772     3.5492677633    15.3408174188
Ni      9.8201850849     5.6778143804    15.3377746619
Ni     11.0486433115     7.8070023171    15.3347462049
Ni      9.8200953547     1.4222882677    15.3366654644
Ni     11.0486075444     3.5492992589    15.3407265960
Ni     12.2774144623     5.6772885732    15.3359640033
Ni     13.5061541972     7.8063455902    15.3319299253
Ni      1.2187910631     0.7145173608    17.3879334314
Ni      2.4472474227     2.8420654806    17.3934581627
Ni      3.6755426811     4.9714604374    17.3911199588
Ni      4.9045369929     7.0990999797    17.3858410289
Ni      3.6755273590     0.7130852450    17.3897672789
Ni      4.9037000473     2.8423806074    17.3934481142
Ni      6.1319553005     4.9726957480    17.3963328007
Ni      7.3614524743     7.0997441935    17.3897409983
Ni      6.1332850561     0.7119051795    17.3902534707
Ni      7.3623531846     2.8409773484    17.3961534740
Ni      8.5911690953     4.9716069348    17.3936888912
Ni      9.8197669951     7.1000577029    17.3889506467
Ni      8.5911411426     0.7131642395    17.3880087950
Ni      9.8198330590     2.8408219131    17.3957136598
Ni     11.0487030798     4.9704125685    17.3927698418
Ni     12.2763266601     7.0989938309    17.3852102935
O       9.3819344244     4.1358166692    20.0930362367
O       7.4403591999     5.7710500252    18.8010456662
O       8.6054614657     3.3490556865    22.7703843692
C       8.1664603160     4.5686069475    20.7700096311
C       7.7641571257     5.9228005922    20.1887078083
C       8.3912004598     4.6889035721    22.2787219386
H       7.3485584428     3.8274455412    20.5710354409
H       8.5939941550     6.6612606078    20.2727262356
H       6.8675792875     6.3118286823    20.7285291220
H       7.5127131407     5.1500412147    22.7730789076
H       9.2780443246     5.3384479547    22.4478370724
H       9.6348023466     3.2728259917    20.4951539629
H       4.4134518168     1.3599542848    19.7391102444
H       8.7500633813     3.3953291848    23.7317250903
O       3.5190441201     1.0401590876    20.0091886335
H       2.9303167551     1.7729858078    19.7218291788
