80
Step 1 | NEB Image 1 | Cartesian Angstrom
Ni      1.2286497520     0.7093615510    11.2500000000
Ni      2.4572990100     2.8374462050    11.2500000000
Ni      3.6859482670     4.9655308580    11.2500000000
Ni      4.9145975240     7.0936155120    11.2500000000
Ni      3.6859497520     0.7093615510    11.2500000000
Ni      4.9145990100     2.8374462050    11.2500000000
Ni      6.1432482670     4.9655308580    11.2500000000
Ni      7.3718975240     7.0936155120    11.2500000000
Ni      6.1432497520     0.7093615510    11.2500000000
Ni      7.3718990100     2.8374462050    11.2500000000
Ni      8.6005482670     4.9655308580    11.2500000000
Ni      9.8291975240     7.0936155120    11.2500000000
Ni      8.6005497520     0.7093615510    11.2500000000
Ni      9.8291990100     2.8374462050    11.2500000000
Ni     11.0578482670     4.9655308580    11.2500000000
Ni     12.2864975240     7.0936155120    11.2500000000
Ni      9.8231926171     0.0024995243    13.3023445018
Ni     11.0518089828     2.1302240239    13.3047084143
Ni     12.2800508463     4.2570722555    13.3044621731
Ni     13.5092872810     6.3850384707    13.3032135992
Ni      2.4517697468     0.0021660604    13.3026623602
Ni      3.6803279060     2.1303359400    13.3041136817
Ni      4.9088074779     4.2579363993    13.3054287219
Ni      6.1372745399     6.3857876859    13.3032783461
Ni      4.9086517489     0.0018312679    13.3024059973
Ni      6.1374036900     2.1309748259    13.3056096279
Ni      7.3661494965     4.2582451225    13.3069521294
Ni      8.5943412642     6.3854189356    13.3048452032
Ni      7.3652045598     0.0023769347    13.3020218594
Ni      8.5942385870     2.1304695640    13.3043867892
Ni      9.8231946460     4.2572739586    13.3057508082
Ni     11.0517679487     6.3857120742    13.3033345673
Ni      2.4490340007     1.4222228898    15.3362210296
Ni      3.6772966341     3.5494520402    15.3385526486
Ni      4.9062018309     5.6779299863    15.3378107865
Ni      6.1346571371     7.8070605965    15.3335997660
Ni      4.9058225440     1.4219700119    15.3362205140
Ni      6.1346426161     3.5508505239    15.3401416952
Ni      7.3625330181     5.6784279340    15.3395242275
Ni      8.5915701699     7.8062468637    15.3354849978
Ni      7.3627070876     1.4224398614    15.3370387851
Ni      8.5913286878     3.5492678034    15.3408173342
Ni      9.8201850892     5.6778143966    15.3377748313
Ni     11.0486432903     7.8070022870    15.3347461742
Ni      9.8200953687     1.4222882767    15.3366655971
Ni     11.0486075170     3.5492992344    15.3407266613
Ni     12.2774144290     5.6772885475    15.3359640395
Ni     13.5061541408     7.8063455598    15.3319300907
Ni      1.2187910907     0.7145173253    17.3879335108
Ni      2.4472474042     2.8420654675    17.3934583506
Ni      3.6755426414     4.9714604155    17.3911200986
Ni      4.9045370414     7.0991000162    17.3858411419
Ni      3.6755273378     0.7130852300    17.3897672756
Ni      4.9036999828     2.8423805674    17.3934479204
Ni      6.1319552592     4.9726957523    17.3963329095
Ni      7.3614524683     7.0997442315    17.3897409244
Ni      6.1332850858     0.7119051778    17.3902533166
Ni      7.3623531396     2.8409773511    17.3961535169
Ni      8.5911690575     4.9716069245    17.3936889093
Ni      9.8197669708     7.1000576725    17.3889506802
Ni      8.5911411739     0.7131642406    17.3880086894
Ni      9.8198330202     2.8408219279    17.3957136835
Ni     11.0487030817     4.9704125327    17.3927697587
Ni     12.2763266391     7.0989938258    17.3852102912
O       8.9251371547     3.7718626191    21.8184268850
O       8.2856391285     4.9229512085    19.4555245639
O       9.2075287665     5.5577213861    24.1208549146
C       8.7890586869     5.2052027711    21.7895113295
C       9.0784439890     5.7020940863    20.3779856090
C       9.6515589376     5.9211725815    22.8141432585
H       7.7293756442     5.3817804057    22.0278442606
H      10.1474804590     5.6000307635    20.1164095999
H       8.7838187357     6.7504084847    20.2283688646
H       9.5590105667     7.0098663540    22.6449898105
H      10.7134083106     5.6461089342    22.6557665352
H       9.8741227664     3.5482534744    21.8035304548
H       8.2322125213     4.0045331414    19.8060067960
H       9.6829651335     6.0990185004    24.7711400704
O       6.1653810439     2.8377880350    18.9516314119
H       6.1530320207     2.0167345793    19.4830847610
80
Step 2 | NEB Image 2 | Cartesian Angstrom
Ni      1.2286497520     0.7093615510    11.2500000000
Ni      2.4572990100     2.8374462050    11.2500000000
Ni      3.6859482670     4.9655308580    11.2500000000
Ni      4.9145975240     7.0936155120    11.2500000000
Ni      3.6859497520     0.7093615510    11.2500000000
Ni      4.9145990100     2.8374462050    11.2500000000
Ni      6.1432482670     4.9655308580    11.2500000000
Ni      7.3718975240     7.0936155120    11.2500000000
Ni      6.1432497520     0.7093615510    11.2500000000
Ni      7.3718990100     2.8374462050    11.2500000000
Ni      8.6005482670     4.9655308580    11.2500000000
Ni      9.8291975240     7.0936155120    11.2500000000
Ni      8.6005497520     0.7093615510    11.2500000000
Ni      9.8291990100     2.8374462050    11.2500000000
Ni     11.0578482670     4.9655308580    11.2500000000
Ni     12.2864975240     7.0936155120    11.2500000000
Ni      9.8231926171     0.0024995243    13.3023445018
Ni     11.0518089828     2.1302240239    13.3047084143
Ni     12.2800508463     4.2570722555    13.3044621731
Ni     13.5092872810     6.3850384707    13.3032135992
Ni      2.4517697468     0.0021660604    13.3026623602
Ni      3.6803279060     2.1303359400    13.3041136817
Ni      4.9088074779     4.2579363993    13.3054287219
Ni      6.1372745399     6.3857876859    13.3032783461
Ni      4.9086517489     0.0018312679    13.3024059973
Ni      6.1374036900     2.1309748259    13.3056096279
Ni      7.3661494965     4.2582451225    13.3069521294
Ni      8.5943412642     6.3854189356    13.3048452032
Ni      7.3652045598     0.0023769347    13.3020218594
Ni      8.5942385870     2.1304695640    13.3043867892
Ni      9.8231946460     4.2572739586    13.3057508082
Ni     11.0517679487     6.3857120742    13.3033345673
Ni      2.4490340007     1.4222228898    15.3362210296
Ni      3.6772966341     3.5494520402    15.3385526486
Ni      4.9062018309     5.6779299863    15.3378107865
Ni      6.1346571371     7.8070605965    15.3335997660
Ni      4.9058225440     1.4219700119    15.3362205140
Ni      6.1346426161     3.5508505239    15.3401416952
Ni      7.3625330181     5.6784279340    15.3395242275
Ni      8.5915701699     7.8062468637    15.3354849978
Ni      7.3627070876     1.4224398614    15.3370387851
Ni      8.5913286878     3.5492678034    15.3408173342
Ni      9.8201850892     5.6778143966    15.3377748313
Ni     11.0486432903     7.8070022870    15.3347461742
Ni      9.8200953687     1.4222882767    15.3366655971
Ni     11.0486075170     3.5492992344    15.3407266613
Ni     12.2774144290     5.6772885475    15.3359640395
Ni     13.5061541408     7.8063455598    15.3319300907
Ni      1.2187910907     0.7145173253    17.3879335108
Ni      2.4472474042     2.8420654675    17.3934583506
Ni      3.6755426414     4.9714604155    17.3911200986
Ni      4.9045370414     7.0991000162    17.3858411419
Ni      3.6755273378     0.7130852300    17.3897672756
Ni      4.9036999828     2.8423805674    17.3934479204
Ni      6.1319552592     4.9726957523    17.3963329095
Ni      7.3614524683     7.0997442315    17.3897409244
Ni      6.1332850858     0.7119051778    17.3902533166
Ni      7.3623531396     2.8409773511    17.3961535169
Ni      8.5911690575     4.9716069245    17.3936889093
Ni      9.8197669708     7.1000576725    17.3889506802
Ni      8.5911411739     0.7131642406    17.3880086894
Ni      9.8198330202     2.8408219279    17.3957136835
Ni     11.0487030817     4.9704125327    17.3927697587
Ni     12.2763266391     7.0989938258    17.3852102912
O       9.0059802475     3.7200051706    21.7765139905
O       8.2273592131     5.0000492998    19.4023919363
O       9.1868198300     5.5007942600    24.0848784473
C       8.8095513947     5.1420083943    21.7539309299
C       9.0708571294     5.6719727112    20.3496974475
C       9.6348057895     5.8920041420    22.7861271198
H       7.7445892316     5.2759313521    21.9967911401
H      10.1289262222     5.5254107399    20.0574640363
H       8.8423588873     6.7469678209    20.2611175954
H       9.5000639303     6.9779487944    22.6262398950
H      10.7093321640     5.6616245323    22.6426198764
H       9.9408879043     3.5362852966    21.5956651546
H       7.8913155032     4.1176818721    19.7200310347
H       9.6959805100     5.9891706617    24.7489132568
O       6.4801880674     2.9095428799    19.0915975215
H       6.5302010940     2.0485177668    19.5520503422
80
Step 3 | NEB Image 3 | Cartesian Angstrom
Ni      1.2286497520     0.7093615510    11.2500000000
Ni      2.4572990100     2.8374462050    11.2500000000
Ni      3.6859482670     4.9655308580    11.2500000000
Ni      4.9145975240     7.0936155120    11.2500000000
Ni      3.6859497520     0.7093615510    11.2500000000
Ni      4.9145990100     2.8374462050    11.2500000000
Ni      6.1432482670     4.9655308580    11.2500000000
Ni      7.3718975240     7.0936155120    11.2500000000
Ni      6.1432497520     0.7093615510    11.2500000000
Ni      7.3718990100     2.8374462050    11.2500000000
Ni      8.6005482670     4.9655308580    11.2500000000
Ni      9.8291975240     7.0936155120    11.2500000000
Ni      8.6005497520     0.7093615510    11.2500000000
Ni      9.8291990100     2.8374462050    11.2500000000
Ni     11.0578482670     4.9655308580    11.2500000000
Ni     12.2864975240     7.0936155120    11.2500000000
Ni      9.8231926171     0.0024995243    13.3023445018
Ni     11.0518089828     2.1302240239    13.3047084143
Ni     12.2800508463     4.2570722555    13.3044621731
Ni     13.5092872810     6.3850384707    13.3032135992
Ni      2.4517697468     0.0021660604    13.3026623602
Ni      3.6803279060     2.1303359400    13.3041136817
Ni      4.9088074779     4.2579363993    13.3054287219
Ni      6.1372745399     6.3857876859    13.3032783461
Ni      4.9086517489     0.0018312679    13.3024059973
Ni      6.1374036900     2.1309748259    13.3056096279
Ni      7.3661494965     4.2582451225    13.3069521294
Ni      8.5943412642     6.3854189356    13.3048452032
Ni      7.3652045598     0.0023769347    13.3020218594
Ni      8.5942385870     2.1304695640    13.3043867892
Ni      9.8231946460     4.2572739586    13.3057508082
Ni     11.0517679487     6.3857120742    13.3033345673
Ni      2.4490340007     1.4222228898    15.3362210296
Ni      3.6772966341     3.5494520402    15.3385526486
Ni      4.9062018309     5.6779299863    15.3378107865
Ni      6.1346571371     7.8070605965    15.3335997660
Ni      4.9058225440     1.4219700119    15.3362205140
Ni      6.1346426161     3.5508505239    15.3401416952
Ni      7.3625330181     5.6784279340    15.3395242275
Ni      8.5915701699     7.8062468637    15.3354849978
Ni      7.3627070876     1.4224398614    15.3370387851
Ni      8.5913286878     3.5492678034    15.3408173342
Ni      9.8201850892     5.6778143966    15.3377748313
Ni     11.0486432903     7.8070022870    15.3347461742
Ni      9.8200953687     1.4222882767    15.3366655971
Ni     11.0486075170     3.5492992344    15.3407266613
Ni     12.2774144290     5.6772885475    15.3359640395
Ni     13.5061541408     7.8063455598    15.3319300907
Ni      1.2187910907     0.7145173253    17.3879335108
Ni      2.4472474042     2.8420654675    17.3934583506
Ni      3.6755426414     4.9714604155    17.3911200986
Ni      4.9045370414     7.0991000162    17.3858411419
Ni      3.6755273378     0.7130852300    17.3897672756
Ni      4.9036999828     2.8423805674    17.3934479204
Ni      6.1319552592     4.9726957523    17.3963329095
Ni      7.3614524683     7.0997442315    17.3897409244
Ni      6.1332850858     0.7119051778    17.3902533166
Ni      7.3623531396     2.8409773511    17.3961535169
Ni      8.5911690575     4.9716069245    17.3936889093
Ni      9.8197669708     7.1000576725    17.3889506802
Ni      8.5911411739     0.7131642406    17.3880086894
Ni      9.8198330202     2.8408219279    17.3957136835
Ni     11.0487030817     4.9704125327    17.3927697587
Ni     12.2763266391     7.0989938258    17.3852102912
O       9.0452561213     3.7027774144    21.7751774141
O       8.2666959452     5.0000676799    19.3643654822
O       9.1732450382     5.4913482711    24.0690420526
C       8.8181544995     5.1167261656    21.7352978378
C       9.0808915196     5.6659759780    20.3389784808
C       9.6171136311     5.8878887067    22.7732464957
H       7.7477725947     5.2219974816    21.9726840483
H      10.1445684714     5.5378481092    20.0617671254
H       8.8447378550     6.7385232922    20.2764421939
H       9.4620949327     6.9730675092    22.6116278827
H      10.6987557888     5.6806915714    22.6352159366
H       9.9994432082     3.5423250399    21.5789204172
H       7.8298251550     4.0985619831    19.6263803600
H       9.6810320629     5.9864773095    24.7372753356
O       6.8597615564     2.9658436072    19.2305184691
H       6.9056294245     2.0981574745    19.6752545375
80
Step 4 | NEB Image 4 | Cartesian Angstrom
Ni      1.2286497520     0.7093615510    11.2500000000
Ni      2.4572990100     2.8374462050    11.2500000000
Ni      3.6859482670     4.9655308580    11.2500000000
Ni      4.9145975240     7.0936155120    11.2500000000
Ni      3.6859497520     0.7093615510    11.2500000000
Ni      4.9145990100     2.8374462050    11.2500000000
Ni      6.1432482670     4.9655308580    11.2500000000
Ni      7.3718975240     7.0936155120    11.2500000000
Ni      6.1432497520     0.7093615510    11.2500000000
Ni      7.3718990100     2.8374462050    11.2500000000
Ni      8.6005482670     4.9655308580    11.2500000000
Ni      9.8291975240     7.0936155120    11.2500000000
Ni      8.6005497520     0.7093615510    11.2500000000
Ni      9.8291990100     2.8374462050    11.2500000000
Ni     11.0578482670     4.9655308580    11.2500000000
Ni     12.2864975240     7.0936155120    11.2500000000
Ni      9.8231926171     0.0024995243    13.3023445018
Ni     11.0518089828     2.1302240239    13.3047084143
Ni     12.2800508463     4.2570722555    13.3044621731
Ni     13.5092872810     6.3850384707    13.3032135992
Ni      2.4517697468     0.0021660604    13.3026623602
Ni      3.6803279060     2.1303359400    13.3041136817
Ni      4.9088074779     4.2579363993    13.3054287219
Ni      6.1372745399     6.3857876859    13.3032783461
Ni      4.9086517489     0.0018312679    13.3024059973
Ni      6.1374036900     2.1309748259    13.3056096279
Ni      7.3661494965     4.2582451225    13.3069521294
Ni      8.5943412642     6.3854189356    13.3048452032
Ni      7.3652045598     0.0023769347    13.3020218594
Ni      8.5942385870     2.1304695640    13.3043867892
Ni      9.8231946460     4.2572739586    13.3057508082
Ni     11.0517679487     6.3857120742    13.3033345673
Ni      2.4490340007     1.4222228898    15.3362210296
Ni      3.6772966341     3.5494520402    15.3385526486
Ni      4.9062018309     5.6779299863    15.3378107865
Ni      6.1346571371     7.8070605965    15.3335997660
Ni      4.9058225440     1.4219700119    15.3362205140
Ni      6.1346426161     3.5508505239    15.3401416952
Ni      7.3625330181     5.6784279340    15.3395242275
Ni      8.5915701699     7.8062468637    15.3354849978
Ni      7.3627070876     1.4224398614    15.3370387851
Ni      8.5913286878     3.5492678034    15.3408173342
Ni      9.8201850892     5.6778143966    15.3377748313
Ni     11.0486432903     7.8070022870    15.3347461742
Ni      9.8200953687     1.4222882767    15.3366655971
Ni     11.0486075170     3.5492992344    15.3407266613
Ni     12.2774144290     5.6772885475    15.3359640395
Ni     13.5061541408     7.8063455598    15.3319300907
Ni      1.2187910907     0.7145173253    17.3879335108
Ni      2.4472474042     2.8420654675    17.3934583506
Ni      3.6755426414     4.9714604155    17.3911200986
Ni      4.9045370414     7.0991000162    17.3858411419
Ni      3.6755273378     0.7130852300    17.3897672756
Ni      4.9036999828     2.8423805674    17.3934479204
Ni      6.1319552592     4.9726957523    17.3963329095
Ni      7.3614524683     7.0997442315    17.3897409244
Ni      6.1332850858     0.7119051778    17.3902533166
Ni      7.3623531396     2.8409773511    17.3961535169
Ni      8.5911690575     4.9716069245    17.3936889093
Ni      9.8197669708     7.1000576725    17.3889506802
Ni      8.5911411739     0.7131642406    17.3880086894
Ni      9.8198330202     2.8408219279    17.3957136835
Ni     11.0487030817     4.9704125327    17.3927697587
Ni     12.2763266391     7.0989938258    17.3852102912
O       9.1070950288     3.6997610099    21.6810976938
O       8.3137277978     5.0100466465    19.2903345621
O       9.1512915024     5.4541355485    24.0070872205
C       8.8320794275     5.1118230037    21.6515592831
C       9.0935926802     5.6961303915    20.2571617100
C       9.6019424981     5.8820690941    22.7187829651
H       7.7576255282     5.1851420762    21.8798913590
H      10.1716169807     5.6069500244    20.0136811812
H       8.8426741724     6.7732299766    20.2459265021
H       9.4237162298     6.9635299032    22.5759947666
H      10.6865034680     5.6988872732    22.5943016117
H      10.0502783331     3.5719478888    21.5078304766
H       7.6568081127     3.8036972856    19.5682847406
H       9.6395253710     5.9481749867    24.6840185620
O       7.0269727415     2.9549314207    19.3730899318
H       7.3471482790     2.1822146027    19.8581866002
80
Step 5 | NEB Image 5 | Cartesian Angstrom
Ni      1.2286497520     0.7093615510    11.2500000000
Ni      2.4572990100     2.8374462050    11.2500000000
Ni      3.6859482670     4.9655308580    11.2500000000
Ni      4.9145975240     7.0936155120    11.2500000000
Ni      3.6859497520     0.7093615510    11.2500000000
Ni      4.9145990100     2.8374462050    11.2500000000
Ni      6.1432482670     4.9655308580    11.2500000000
Ni      7.3718975240     7.0936155120    11.2500000000
Ni      6.1432497520     0.7093615510    11.2500000000
Ni      7.3718990100     2.8374462050    11.2500000000
Ni      8.6005482670     4.9655308580    11.2500000000
Ni      9.8291975240     7.0936155120    11.2500000000
Ni      8.6005497520     0.7093615510    11.2500000000
Ni      9.8291990100     2.8374462050    11.2500000000
Ni     11.0578482670     4.9655308580    11.2500000000
Ni     12.2864975240     7.0936155120    11.2500000000
Ni      9.8231926171     0.0024995243    13.3023445018
Ni     11.0518089828     2.1302240239    13.3047084143
Ni     12.2800508463     4.2570722555    13.3044621731
Ni     13.5092872810     6.3850384707    13.3032135992
Ni      2.4517697468     0.0021660604    13.3026623602
Ni      3.6803279060     2.1303359400    13.3041136817
Ni      4.9088074779     4.2579363993    13.3054287219
Ni      6.1372745399     6.3857876859    13.3032783461
Ni      4.9086517489     0.0018312679    13.3024059973
Ni      6.1374036900     2.1309748259    13.3056096279
Ni      7.3661494965     4.2582451225    13.3069521294
Ni      8.5943412642     6.3854189356    13.3048452032
Ni      7.3652045598     0.0023769347    13.3020218594
Ni      8.5942385870     2.1304695640    13.3043867892
Ni      9.8231946460     4.2572739586    13.3057508082
Ni     11.0517679487     6.3857120742    13.3033345673
Ni      2.4490340007     1.4222228898    15.3362210296
Ni      3.6772966341     3.5494520402    15.3385526486
Ni      4.9062018309     5.6779299863    15.3378107865
Ni      6.1346571371     7.8070605965    15.3335997660
Ni      4.9058225440     1.4219700119    15.3362205140
Ni      6.1346426161     3.5508505239    15.3401416952
Ni      7.3625330181     5.6784279340    15.3395242275
Ni      8.5915701699     7.8062468637    15.3354849978
Ni      7.3627070876     1.4224398614    15.3370387851
Ni      8.5913286878     3.5492678034    15.3408173342
Ni      9.8201850892     5.6778143966    15.3377748313
Ni     11.0486432903     7.8070022870    15.3347461742
Ni      9.8200953687     1.4222882767    15.3366655971
Ni     11.0486075170     3.5492992344    15.3407266613
Ni     12.2774144290     5.6772885475    15.3359640395
Ni     13.5061541408     7.8063455598    15.3319300907
Ni      1.2187910907     0.7145173253    17.3879335108
Ni      2.4472474042     2.8420654675    17.3934583506
Ni      3.6755426414     4.9714604155    17.3911200986
Ni      4.9045370414     7.0991000162    17.3858411419
Ni      3.6755273378     0.7130852300    17.3897672756
Ni      4.9036999828     2.8423805674    17.3934479204
Ni      6.1319552592     4.9726957523    17.3963329095
Ni      7.3614524683     7.0997442315    17.3897409244
Ni      6.1332850858     0.7119051778    17.3902533166
Ni      7.3623531396     2.8409773511    17.3961535169
Ni      8.5911690575     4.9716069245    17.3936889093
Ni      9.8197669708     7.1000576725    17.3889506802
Ni      8.5911411739     0.7131642406    17.3880086894
Ni      9.8198330202     2.8408219279    17.3957136835
Ni     11.0487030817     4.9704125327    17.3927697587
Ni     12.2763266391     7.0989938258    17.3852102912
O       9.3045527771     3.7133575323    21.5014801328
O       8.2676799813     5.1067567422    19.2490910386
O       9.1290199374     5.3031558564    23.9330297823
C       8.8881682347     5.0877601593    21.5636972024
C       9.0744650723     5.7741455547    20.2108696172
C       9.5605972026     5.8609600029    22.6899133488
H       7.8101129966     5.0363799002    21.7823565066
H      10.1427716634     5.7393274690    19.9134421831
H       8.7891110085     6.8405022187    20.2658700948
H       9.2748252532     6.9256750790    22.6069801659
H      10.6607265066     5.7971487966    22.5795174168
H      10.2555622390     3.6921116131    21.2897718573
H       7.7255009436     3.7818408526    19.5489249549
H       9.5087506460     5.8278663638    24.6556475781
O       7.2643301131     2.8500978930    19.4130110797
H       7.8626355014     2.1992220207    19.8252374204
