80
Step 1 | NEB Image 1 | Cartesian Angstrom
Ni      1.2286497034     0.7093615225    11.2499999440
Ni      2.4572989609     2.8374461750    11.2499999440
Ni      3.6859482184     4.9655308275    11.2499999440
Ni      4.9145974759     7.0936154800    11.2499999440
Ni      3.6859497034     0.7093615225    11.2499999440
Ni      4.9145989609     2.8374461750    11.2499999440
Ni      6.1432482184     4.9655308275    11.2499999440
Ni      7.3718974759     7.0936154800    11.2499999440
Ni      6.1432497034     0.7093615225    11.2499999440
Ni      7.3718989609     2.8374461750    11.2499999440
Ni      8.6005482184     4.9655308275    11.2499999440
Ni      9.8291974759     7.0936154800    11.2499999440
Ni      8.6005497034     0.7093615225    11.2499999440
Ni      9.8291989609     2.8374461750    11.2499999440
Ni     11.0578482184     4.9655308275    11.2499999440
Ni     12.2864974759     7.0936154800    11.2499999440
Ni      9.8231926870     0.0024995631    13.3023446442
Ni     11.0518089676     2.1302240586    13.3047083557
Ni     12.2800508544     4.2570722939    13.3044621680
Ni     13.5092873083     6.3850384546    13.3032134512
Ni      2.4517696982     0.0021660497    13.3026623307
Ni      3.6803278881     2.1303359107    13.3041135630
Ni      4.9088074938     4.2579363814    13.3054287544
Ni      6.1372745671     6.3857877107    13.3032783798
Ni      4.9086517115     0.0018312594    13.3024060945
Ni      6.1374036838     2.1309748468    13.3056096270
Ni      7.3661495135     4.2582451239    13.3069522585
Ni      8.5943413203     6.3854189562    13.3048451696
Ni      7.3652044956     0.0023769003    13.3020219334
Ni      8.5942385662     2.1304695544    13.3043868044
Ni      9.8231946918     4.2572739512    13.3057506922
Ni     11.0517679695     6.3857120360    13.3033344194
Ni      2.4490339821     1.4222228929    15.3362210124
Ni      3.6772966574     3.5494520554    15.3385526461
Ni      4.9062018672     5.6779299780    15.3378106046
Ni      6.1346571942     7.8070606266    15.3335999053
Ni      4.9058225197     1.4219699914    15.3362206260
Ni      6.1346426084     3.5508505475    15.3401418518
Ni      7.3625330027     5.6784279498    15.3395242568
Ni      8.5915701206     7.8062468470    15.3354851546
Ni      7.3627071376     1.4224398724    15.3370388041
Ni      8.5913286772     3.5492677633    15.3408174188
Ni      9.8201850849     5.6778143804    15.3377746619
Ni     11.0486433115     7.8070023171    15.3347462049
Ni      9.8200953547     1.4222882677    15.3366654644
Ni     11.0486075444     3.5492992589    15.3407265960
Ni     12.2774144623     5.6772885732    15.3359640032
Ni     13.5061541972     7.8063455902    15.3319299253
Ni      1.2187910631     0.7145173608    17.3879334314
Ni      2.4472474227     2.8420654806    17.3934581627
Ni      3.6755426811     4.9714604374    17.3911199588
Ni      4.9045369929     7.0990999797    17.3858410289
Ni      3.6755273590     0.7130852450    17.3897672789
Ni      4.9037000473     2.8423806074    17.3934481142
Ni      6.1319553005     4.9726957480    17.3963328007
Ni      7.3614524743     7.0997441935    17.3897409983
Ni      6.1332850561     0.7119051795    17.3902534707
Ni      7.3623531846     2.8409773484    17.3961534740
Ni      8.5911690953     4.9716069348    17.3936888912
Ni      9.8197669951     7.1000577029    17.3889506467
Ni      8.5911411426     0.7131642395    17.3880087950
Ni      9.8198330590     2.8408219131    17.3957136598
Ni     11.0487030798     4.9704125685    17.3927698418
Ni     12.2763266601     7.0989938309    17.3852102935
O       8.1853233808     3.4574048182    21.7117206478
O       8.5869329741     5.0599815235    19.5762271001
O      10.2109211163     3.6451020548    23.8826602062
C       9.3606393600     4.2890487236    21.7367471584
C       9.7574736302     4.6321502783    20.3055951979
C      10.5272793641     3.6720453941    22.4918474794
H       9.0423459569     5.1976070563    22.2680419510
H      10.2036708160     3.7499198429    19.8025973096
H      10.4835571337     5.4542343167    20.2475656164
H      11.4351836342     4.2717022800    22.2942344717
H      10.7115000118     2.6514065461    22.0984614952
H       8.4384371395     2.5707271966    21.3925898339
H       7.8511829079     4.4818016084    19.8831003151
H      11.0040911060     3.3843978098    24.3788521822
O       2.4676593393     1.4045078651    18.8058894197
H       2.5804189712     1.3115658959    19.7657035449
80
Step 2 | NEB Image 2 | Cartesian Angstrom
Ni      1.2285253863     0.7093104759    11.2498064927
Ni      2.4571311630     2.8374300618    11.2496827537
Ni      3.6857693048     4.9655856102    11.2495995392
Ni      4.9144606054     7.0937398067    11.2496222661
Ni      3.6858288920     0.7092587039    11.2496356485
Ni      4.9144575743     2.8373988440    11.2494588244
Ni      6.1431301489     4.9655909959    11.2493928820
Ni      7.3718382531     7.0937626639    11.2495042091
Ni      6.1431961637     0.7092111239    11.2495272200
Ni      7.3718675140     2.8373680253    11.2493574002
Ni      8.6005611068     4.9655766174    11.2493586774
Ni      9.8292454383     7.0937437689    11.2495342992
Ni      8.6005876550     0.7092070261    11.2495570872
Ni      9.8292821285     2.8373693718    11.2494660251
Ni     11.0579596240     4.9655590733    11.2495234231
Ni     12.2866022752     7.0937013001    11.2496882546
Ni      9.8233667570     0.0021007012    13.3016359239
Ni     11.0521251068     2.1299369525    13.3037404804
Ni     12.2804386334     4.2570412452    13.3035466134
Ni     13.5096020420     6.3851717795    13.3026632268
Ni      2.4515032211     0.0019130593    13.3020631604
Ni      3.6799164636     2.1302014001    13.3030302218
Ni      4.9082695711     4.2580426473    13.3039663189
Ni      6.1368888109     6.3862034261    13.3019326689
Ni      4.9085027619     0.0013918166    13.3014619205
Ni      6.1371619678     2.1306190859    13.3039620134
Ni      7.3659567406     4.2582782153    13.3049232787
Ni      8.5943072106     6.3858330027    13.3032455895
Ni      7.3652204455     0.0018424161    13.3010457317
Ni      8.5943788386     2.1300358719    13.3028052463
Ni      9.8234580801     4.2572293922    13.3040461829
Ni     11.0520760824     6.3859949895    13.3021454667
Ni      2.4478239076     1.4221054284    15.3337830058
Ni      3.6753974095     3.5497697812    15.3354545268
Ni      4.9039488733     5.6793246141    15.3339621947
Ni      6.1336823006     7.8084838066    15.3314671800
Ni      4.9055226485     1.4209569615    15.3318332999
Ni      6.1326384133     3.5504929531    15.3327754155
Ni      7.3611378938     5.6802353257    15.3326911782
Ni      8.5911618015     7.8080942086    15.3321238707
Ni      7.3626690873     1.4196910523    15.3319648726
Ni      8.5919627469     3.5480638466    15.3330515544
Ni      9.8210482453     5.6791456420    15.3312967145
Ni     11.0494846588     7.8084098126    15.3320980748
Ni      9.8208926009     1.4207091839    15.3337296450
Ni     11.0499071894     3.5484759183    15.3366292549
Ni     12.2789719704     5.6779985442    15.3330152949
Ni     13.5068355354     7.8068773517    15.3309964672
Ni      1.2142376328     0.7130127828    17.3839763060
Ni      2.4434410132     2.8456278540    17.3884317365
Ni      3.6684008473     4.9742393601    17.3857323214
Ni      4.9008865612     7.1030139880    17.3825489254
Ni      3.6930564798     0.6982194757    17.3529046875
Ni      4.8891812860     2.8370104641    17.3700327720
Ni      6.1157880109     4.9889442388    17.3557766733
Ni      7.3559780326     7.1086381054    17.3779948109
Ni      6.1323700849     0.7038490544    17.3824959645
Ni      7.3692439291     2.8201723150    17.3376364667
Ni      8.5861154022     4.9714240140    17.3342072947
Ni      9.8216782961     7.1121745246    17.3678576915
Ni      8.5927921728     0.7061053266    17.3809370105
Ni      9.8223712576     2.8307193369    17.3763218756
Ni     11.0629639467     4.9761883158    17.3588707739
Ni     12.2802637350     7.1026216573    17.3803281623
O       8.0477925596     3.2052651714    21.2634943354
O       8.3993895335     5.1940999210    19.1885569592
O       9.5687905788     3.6774017211    23.6645132208
C       8.8675107538     4.3490048602    21.4776207040
C       9.3983894840     4.9996440337    20.1685496154
C      10.0698150336     4.0327749052    22.3808776445
H       8.2206675687     5.0683137652    22.0089292253
H      10.2146785493     4.3494127107    19.7772985462
H       9.8554378465     5.9719739065    20.4386556969
H      10.7379465510     4.9139133405    22.4328387947
H      10.6426725469     3.2000823450    21.9241068371
H       8.6098466978     2.4835717680    20.9030016166
H       6.5410465776     3.6609932082    18.3495092994
H      10.4055931150     3.4319354551    24.2645246083
O       2.5460719182     1.4370012770    18.7874413888
H       2.6926139564     1.4331964106    19.7584213728
80
Step 3 | NEB Image 3 | Cartesian Angstrom
Ni      1.2285046973     0.7093092854    11.2497818460
Ni      2.4571029128     2.8374345037    11.2496335625
Ni      3.6857434223     4.9655989139    11.2495338682
Ni      4.9144395173     7.0937591927    11.2495522216
Ni      3.6857988685     0.7092448792    11.2495495681
Ni      4.9144308557     2.8373973574    11.2493333005
Ni      6.1431106438     4.9656026653    11.2492510749
Ni      7.3718308374     7.0937924695    11.2493672325
Ni      6.1431859072     0.7091776859    11.2493811897
Ni      7.3718699378     2.8373486651    11.2491721542
Ni      8.6005786437     4.9655786544    11.2491594122
Ni      9.8292776630     7.0937759925    11.2493701667
Ni      8.6006096083     0.7091583257    11.2493951463
Ni      9.8293249338     2.8373365808    11.2492775901
Ni     11.0580182374     4.9655555364    11.2493430703
Ni     12.2866596821     7.0937265584    11.2495590842
Ni      9.8234693852     0.0019449021    13.3013154026
Ni     11.0522953365     2.1298143777    13.3033732345
Ni     12.2806443387     4.2569775762    13.3031850465
Ni     13.5097845506     6.3852015914    13.3024085105
Ni      2.4514231239     0.0018921628    13.3019503717
Ni      3.6797961233     2.1302026816    13.3027560350
Ni      4.9081969608     4.2581026773    13.3036579412
Ni      6.1368113328     6.3862656272    13.3016124178
Ni      4.9084587491     0.0012807733    13.3011251549
Ni      6.1371554055     2.1305765056    13.3034790510
Ni      7.3659513269     4.2582581400    13.3043642704
Ni      8.5943523696     6.3859141824    13.3026750233
Ni      7.3652561090     0.0016831316    13.3006566424
Ni      8.5944788926     2.1299088773    13.3022889563
Ni      9.8236295586     4.2571444225    13.3034516309
Ni     11.0522746226     6.3860526033    13.3016611175
Ni      2.4472788500     1.4222226322    15.3336220422
Ni      3.6745913820     3.5501847692    15.3343003556
Ni      4.9038616870     5.6794901555    15.3335906433
Ni      6.1333558443     7.8087709206    15.3306687555
Ni      4.9054130308     1.4206176401    15.3298178110
Ni      6.1328774746     3.5508541056    15.3312209366
Ni      7.3606579824     5.6803620644    15.3304575947
Ni      8.5913167423     7.8087471261    15.3304981010
Ni      7.3630064741     1.4193994959    15.3303561213
Ni      8.5925142536     3.5472163662    15.3306211962
Ni      9.8220776369     5.6792746166    15.3285240340
Ni     11.0501465552     7.8089320846    15.3308597273
Ni      9.8214220984     1.4202960440    15.3326395789
Ni     11.0506161329     3.5479007830    15.3355132439
Ni     12.2798279721     5.6779942468    15.3318384264
Ni     13.5072762161     7.8070833087    15.3305368724
Ni      1.2164741694     0.7143349256    17.3864704163
Ni      2.4429590795     2.8421719559    17.3911384685
Ni      3.6678032409     4.9759410369    17.3842460136
Ni      4.9005170457     7.1030542029    17.3820365959
Ni      3.6880545883     0.7003774902    17.3397149073
Ni      4.8810558414     2.8405339371    17.3441226954
Ni      6.1161916012     4.9844139976    17.3601700186
Ni      7.3535142141     7.1137096687    17.3677561062
Ni      6.1338248712     0.6976758841    17.3726007920
Ni      7.3756165977     2.8288586716    17.3339260476
Ni      8.5948941271     4.9596326382    17.3057791760
Ni      9.8258693998     7.1186526840    17.3570542601
Ni      8.5944434732     0.7024883661    17.3754194103
Ni      9.8265673949     2.8313691031    17.3747763585
Ni     11.0705520817     4.9678541690    17.3494900411
Ni     12.2835904980     7.1042839202    17.3775026598
O       8.6254598593     3.0552829878    20.5088527460
O       8.1013824699     5.4268851054    19.0476154466
O       9.1912887079     3.4037327881    23.3365550332
C       8.6472271300     4.3144177376    21.1897539832
C       8.9835038280     5.4035557508    20.1671189349
C       9.6675070169     4.3065030033    22.3227922014
H       7.6534834574     4.5316436310    21.6345239192
H      10.0263098167     5.2383787621    19.8306265426
H       8.9254689697     6.3841378066    20.6725896241
H       9.7941451287     5.3261583413    22.7289558477
H      10.6396337529     3.9563176967    21.9267437965
H       8.9021436087     2.3652748818    21.1457757938
H       6.1206666384     2.9656204354    18.3002568007
H       9.8739379586     3.3540311282    24.0520042426
O       2.5589889502     0.8473450278    18.9055533027
H       2.8267266750     1.5836705916    19.4923339483
80
Step 4 | NEB Image 4 | Cartesian Angstrom
Ni      1.2285641716     0.7093268840    11.2498636974
Ni      2.4571782001     2.8374393178    11.2497463624
Ni      3.6858277825     4.9655837791    11.2496748403
Ni      4.9145095752     7.0937149172    11.2496974896
Ni      3.6858546812     0.7092812415    11.2497019501
Ni      4.9145018099     2.8374134724    11.2495338561
Ni      6.1431787738     4.9655807071    11.2494800297
Ni      7.3718713979     7.0937329143    11.2495605210
Ni      6.1432142539     0.7092334800    11.2495698635
Ni      7.3718989467     2.8373766256    11.2494193217
Ni      8.6005921096     4.9655567850    11.2494091854
Ni      9.8292733764     7.0937202949    11.2495516051
Ni      8.6006013795     0.7092150137    11.2495648174
Ni      9.8293039627     2.8373636152    11.2494802252
Ni     11.0579879276     4.9655410305    11.2495284562
Ni     12.2866286851     7.0936885163    11.2496793369
Ni      9.8234133385     0.0020853776    13.3015772391
Ni     11.0521989774     2.1299210018    13.3037211936
Ni     12.2805146622     4.2569949378    13.3035673390
Ni     13.5096694297     6.3851313598    13.3026421052
Ni      2.4515609148     0.0019930263    13.3022482260
Ni      3.6799777314     2.1302286538    13.3031360015
Ni      4.9084783284     4.2580892672    13.3041397988
Ni      6.1370277421     6.3861068667    13.3021209999
Ni      4.9085139506     0.0014522187    13.3015368307
Ni      6.1373118645     2.1307121342    13.3040933012
Ni      7.3661122198     4.2582335590    13.3051599936
Ni      8.5944322047     6.3857168950    13.3033065601
Ni      7.3652708585     0.0018949230    13.3010377744
Ni      8.5944565439     2.1300785774    13.3029145284
Ni      9.8235714854     4.2571519675    13.3041467374
Ni     11.0521945017     6.3859044915    13.3021582463
Ni      2.4479781812     1.4220596865    15.3346993726
Ni      3.6752508116     3.5503456722    15.3347152935
Ni      4.9049512269     5.6791054790    15.3349356590
Ni      6.1338550473     7.8082012624    15.3314309381
Ni      4.9053149755     1.4207858351    15.3314087272
Ni      6.1344133522     3.5511155924    15.3337825888
Ni      7.3616226245     5.6793959643    15.3331465017
Ni      8.5916767453     7.8079664693    15.3316372487
Ni      7.3633856442     1.4207910415    15.3324526785
Ni      8.5922418248     3.5475798888    15.3340281857
Ni      9.8220712209     5.6784434872    15.3314448367
Ni     11.0499959988     7.8082474865    15.3318313126
Ni      9.8211041882     1.4208009450    15.3336706532
Ni     11.0502676721     3.5484453458    15.3372440911
Ni     12.2790647660     5.6775326697    15.3334821867
Ni     13.5070308718     7.8067979100    15.3309253150
Ni      1.2180375291     0.7142776581    17.3872857229
Ni      2.4433370054     2.8431364134    17.3884768776
Ni      3.6710039456     4.9761438157    17.3858708761
Ni      4.9022730790     7.1014983005    17.3830959696
Ni      3.6763491786     0.7089458734    17.3683648490
Ni      4.8912611491     2.8525468985    17.3397751488
Ni      6.1218887814     4.9756990968    17.3748590377
Ni      7.3570073054     7.1107668403    17.3699138088
Ni      6.1385465469     0.6985182289    17.3682949616
Ni      7.3706844208     2.8366950935    17.3669357589
Ni      8.6053378374     4.9556124215    17.3315935401
Ni      9.8277741921     7.1120825407    17.3621917453
Ni      8.5940086036     0.7062124476    17.3796709633
Ni      9.8257109999     2.8334439188    17.3776357739
Ni     11.0602595669     4.9677103954    17.3744897238
Ni     12.2819074240     7.1015302870    17.3799178092
O       9.2473874982     3.4677415955    20.1637047868
O       7.7587939050     5.6207096581    18.8993803716
O       8.9338733920     3.2760656866    22.9901911114
C       8.4543592026     4.3714379017    20.9323095450
C       8.3969212723     5.7016859317    20.1831687852
C       9.0577657970     4.5464169559    22.3262731517
H       7.4216794068     3.9829461399    21.0539583954
H       9.4295395768     6.0842238730    20.0500011506
H       7.8221228624     6.4211246960    20.7926404704
H       8.5148891394     5.3355463844    22.8797361713
H      10.1212366793     4.8292986491    22.2288071211
H       9.3184322558     2.6083252217    20.7403326933
H       5.6524027263     2.3205731355    18.5107640067
H       9.4148080169     3.3239751450    23.8428597921
O       2.9111909664     0.6778650969    19.0907983567
H       3.0339999562     1.6061747391    19.4527168946
80
Step 5 | NEB Image 5 | Cartesian Angstrom
Ni      1.2286497034     0.7093615225    11.2499999440
Ni      2.4572989609     2.8374461750    11.2499999440
Ni      3.6859482184     4.9655308275    11.2499999440
Ni      4.9145974759     7.0936154800    11.2499999440
Ni      3.6859497034     0.7093615225    11.2499999440
Ni      4.9145989609     2.8374461750    11.2499999440
Ni      6.1432482184     4.9655308275    11.2499999440
Ni      7.3718974759     7.0936154800    11.2499999440
Ni      6.1432497034     0.7093615225    11.2499999440
Ni      7.3718989609     2.8374461750    11.2499999440
Ni      8.6005482184     4.9655308275    11.2499999440
Ni      9.8291974759     7.0936154800    11.2499999440
Ni      8.6005497034     0.7093615225    11.2499999440
Ni      9.8291989609     2.8374461750    11.2499999440
Ni     11.0578482184     4.9655308275    11.2499999440
Ni     12.2864974759     7.0936154800    11.2499999440
Ni      9.8231926870     0.0024995631    13.3023446442
Ni     11.0518089676     2.1302240586    13.3047083557
Ni     12.2800508544     4.2570722939    13.3044621680
Ni     13.5092873083     6.3850384546    13.3032134512
Ni      2.4517696982     0.0021660497    13.3026623307
Ni      3.6803278881     2.1303359107    13.3041135630
Ni      4.9088074938     4.2579363814    13.3054287544
Ni      6.1372745671     6.3857877107    13.3032783798
Ni      4.9086517115     0.0018312594    13.3024060945
Ni      6.1374036838     2.1309748468    13.3056096270
Ni      7.3661495135     4.2582451239    13.3069522585
Ni      8.5943413203     6.3854189562    13.3048451696
Ni      7.3652044956     0.0023769003    13.3020219334
Ni      8.5942385662     2.1304695544    13.3043868044
Ni      9.8231946918     4.2572739512    13.3057506922
Ni     11.0517679695     6.3857120360    13.3033344194
Ni      2.4490339821     1.4222228929    15.3362210124
Ni      3.6772966574     3.5494520554    15.3385526461
Ni      4.9062018672     5.6779299780    15.3378106046
Ni      6.1346571942     7.8070606266    15.3335999053
Ni      4.9058225197     1.4219699914    15.3362206260
Ni      6.1346426084     3.5508505475    15.3401418518
Ni      7.3625330027     5.6784279498    15.3395242568
Ni      8.5915701206     7.8062468470    15.3354851546
Ni      7.3627071376     1.4224398724    15.3370388041
Ni      8.5913286772     3.5492677633    15.3408174188
Ni      9.8201850849     5.6778143804    15.3377746619
Ni     11.0486433115     7.8070023171    15.3347462049
Ni      9.8200953547     1.4222882677    15.3366654644
Ni     11.0486075444     3.5492992589    15.3407265960
Ni     12.2774144623     5.6772885732    15.3359640032
Ni     13.5061541972     7.8063455902    15.3319299253
Ni      1.2187910631     0.7145173608    17.3879334314
Ni      2.4472474227     2.8420654806    17.3934581627
Ni      3.6755426811     4.9714604374    17.3911199588
Ni      4.9045369929     7.0990999797    17.3858410289
Ni      3.6755273590     0.7130852450    17.3897672789
Ni      4.9037000473     2.8423806074    17.3934481142
Ni      6.1319553005     4.9726957480    17.3963328007
Ni      7.3614524743     7.0997441935    17.3897409983
Ni      6.1332850561     0.7119051795    17.3902534707
Ni      7.3623531846     2.8409773484    17.3961534740
Ni      8.5911690953     4.9716069348    17.3936888912
Ni      9.8197669951     7.1000577029    17.3889506467
Ni      8.5911411426     0.7131642395    17.3880087950
Ni      9.8198330590     2.8408219131    17.3957136598
Ni     11.0487030798     4.9704125685    17.3927698418
Ni     12.2763266601     7.0989938309    17.3852102935
O       9.3819344244     4.1358166692    20.0930362367
O       7.4403591999     5.7710500252    18.8010456662
O       8.6054614657     3.3490556865    22.7703843692
C       8.1664603160     4.5686069475    20.7700096311
C       7.7641571257     5.9228005922    20.1887078083
C       8.3912004598     4.6889035721    22.2787219386
H       7.3485584428     3.8274455412    20.5710354409
H       8.5939941550     6.6612606078    20.2727262356
H       6.8675792875     6.3118286823    20.7285291220
H       7.5127131407     5.1500412147    22.7730789076
H       9.2780443246     5.3384479547    22.4478370724
H       9.6348023466     3.2728259917    20.4951539629
H       4.4134518168     1.3599542848    19.7391102444
H       8.7500633813     3.3953291848    23.7317250903
O       3.5190441201     1.0401590876    20.0091886335
H       2.9303167551     1.7729858078    19.7218291788
