80
Step 1 | NEB Image 1 | Cartesian Angstrom
Ni      1.2286497034     0.7093615225    11.2499999440
Ni      2.4572989609     2.8374461750    11.2499999440
Ni      3.6859482184     4.9655308275    11.2499999440
Ni      4.9145974759     7.0936154800    11.2499999440
Ni      3.6859497034     0.7093615225    11.2499999440
Ni      4.9145989609     2.8374461750    11.2499999440
Ni      6.1432482184     4.9655308275    11.2499999440
Ni      7.3718974759     7.0936154800    11.2499999440
Ni      6.1432497034     0.7093615225    11.2499999440
Ni      7.3718989609     2.8374461750    11.2499999440
Ni      8.6005482184     4.9655308275    11.2499999440
Ni      9.8291974759     7.0936154800    11.2499999440
Ni      8.6005497034     0.7093615225    11.2499999440
Ni      9.8291989609     2.8374461750    11.2499999440
Ni     11.0578482184     4.9655308275    11.2499999440
Ni     12.2864974759     7.0936154800    11.2499999440
Ni      9.8231926870     0.0024995631    13.3023446442
Ni     11.0518089676     2.1302240586    13.3047083557
Ni     12.2800508544     4.2570722939    13.3044621680
Ni     13.5092873083     6.3850384546    13.3032134512
Ni      2.4517696982     0.0021660497    13.3026623307
Ni      3.6803278881     2.1303359107    13.3041135630
Ni      4.9088074938     4.2579363814    13.3054287544
Ni      6.1372745671     6.3857877107    13.3032783798
Ni      4.9086517115     0.0018312594    13.3024060945
Ni      6.1374036838     2.1309748468    13.3056096270
Ni      7.3661495135     4.2582451239    13.3069522585
Ni      8.5943413203     6.3854189562    13.3048451696
Ni      7.3652044956     0.0023769003    13.3020219334
Ni      8.5942385662     2.1304695544    13.3043868044
Ni      9.8231946918     4.2572739512    13.3057506922
Ni     11.0517679695     6.3857120360    13.3033344194
Ni      2.4490339821     1.4222228929    15.3362210124
Ni      3.6772966574     3.5494520554    15.3385526461
Ni      4.9062018672     5.6779299780    15.3378106046
Ni      6.1346571942     7.8070606266    15.3335999053
Ni      4.9058225197     1.4219699914    15.3362206260
Ni      6.1346426084     3.5508505475    15.3401418518
Ni      7.3625330027     5.6784279498    15.3395242568
Ni      8.5915701206     7.8062468470    15.3354851546
Ni      7.3627071376     1.4224398724    15.3370388041
Ni      8.5913286772     3.5492677633    15.3408174188
Ni      9.8201850849     5.6778143804    15.3377746619
Ni     11.0486433115     7.8070023171    15.3347462049
Ni      9.8200953547     1.4222882677    15.3366654644
Ni     11.0486075444     3.5492992589    15.3407265960
Ni     12.2774144623     5.6772885732    15.3359640033
Ni     13.5061541972     7.8063455902    15.3319299253
Ni      1.2187910631     0.7145173608    17.3879334314
Ni      2.4472474227     2.8420654806    17.3934581627
Ni      3.6755426811     4.9714604374    17.3911199588
Ni      4.9045369929     7.0990999797    17.3858410289
Ni      3.6755273590     0.7130852450    17.3897672789
Ni      4.9037000473     2.8423806074    17.3934481142
Ni      6.1319553005     4.9726957480    17.3963328007
Ni      7.3614524743     7.0997441935    17.3897409983
Ni      6.1332850561     0.7119051795    17.3902534707
Ni      7.3623531846     2.8409773484    17.3961534740
Ni      8.5911690953     4.9716069348    17.3936888912
Ni      9.8197669951     7.1000577029    17.3889506467
Ni      8.5911411426     0.7131642395    17.3880087950
Ni      9.8198330590     2.8408219131    17.3957136598
Ni     11.0487030798     4.9704125685    17.3927698418
Ni     12.2763266601     7.0989938309    17.3852102935
O       8.1853233808     3.4574048182    21.7117206478
O       8.5869329741     5.0599815235    19.5762271001
O      10.2109211163     3.6451020548    23.8826602062
C       9.3606393600     4.2890487236    21.7367471584
C       9.7574736302     4.6321502783    20.3055951979
C      10.5272793641     3.6720453941    22.4918474794
H       9.0423459569     5.1976070563    22.2680419510
H      10.2036708160     3.7499198429    19.8025973096
H      10.4835571337     5.4542343167    20.2475656164
H      11.4351836342     4.2717022800    22.2942344717
H      10.7115000118     2.6514065461    22.0984614952
H       8.4384371395     2.5707271966    21.3925898339
H       7.8511829079     4.4818016084    19.8831003151
H      11.0040911060     3.3843978098    24.3788521822
O       2.4676593393     1.4045078651    18.8058894197
H       2.5804189712     1.3115658959    19.7657035449
80
Step 2 | NEB Image 2 | Cartesian Angstrom
Ni      1.2286131478     0.7093432323    11.2499396942
Ni      2.4572498001     2.8374382139    11.2499052912
Ni      3.6858938452     4.9655449589    11.2498820951
Ni      4.9145564300     7.0936525330    11.2498923907
Ni      3.6859187051     0.7093298765    11.2499045491
Ni      4.9145588156     2.8374293916    11.2498573496
Ni      6.1432133584     4.9655477219    11.2498403956
Ni      7.3718788711     7.0936562717    11.2498792501
Ni      6.1432345548     0.7093212296    11.2498918379
Ni      7.3718861381     2.8374261482    11.2498470357
Ni      8.6005448754     4.9655468328    11.2498538671
Ni      9.8292004249     7.0936482180    11.2499027190
Ni      8.6005536819     0.7093266671    11.2499101541
Ni      9.8292101122     2.8374327603    11.2498886068
Ni     11.0578625904     4.9655428886    11.2499060871
Ni     12.2865099792     7.0936357007    11.2499436577
Ni      9.8232101730     0.0024233000    13.3022289384
Ni     11.0518480439     2.1301738734    13.3045183283
Ni     12.2801002713     4.2570897715    13.3042885166
Ni     13.5093204035     6.3850742315    13.3031260977
Ni      2.4517075426     0.0020821381    13.3024920208
Ni      3.6802306134     2.1302858372    13.3038386384
Ni      4.9086414640     4.2579481140    13.3050297231
Ni      6.1371669709     6.3859128686    13.3029273772
Ni      4.9086167664     0.0017195465    13.3022104708
Ni      6.1373170204     2.1308628939    13.3052212859
Ni      7.3660802443     4.2582665539    13.3064575070
Ni      8.5943077413     6.3855351162    13.3045141963
Ni      7.3651940175     0.0022520298    13.3018385774
Ni      8.5942446116     2.1303672243    13.3040377773
Ni      9.8232136080     4.2572962328    13.3053917459
Ni     11.0517911129     6.3857905324    13.3031156501
Ni      2.4488337778     1.4221275458    15.3353932993
Ni      3.6769627803     3.5493786481    15.3379392114
Ni      4.9054083373     5.6783685197    15.3365598315
Ni      6.1344450441     7.8074555135    15.3331762891
Ni      4.9057630917     1.4217518707    15.3355187924
Ni      6.1337889222     3.5505533653    15.3381315369
Ni      7.3622335746     5.6790392801    15.3380177351
Ni      8.5913475426     7.8066321688    15.3349851258
Ni      7.3625371708     1.4215555770    15.3358968125
Ni      8.5913119598     3.5492096372    15.3390537424
Ni      9.8200331511     5.6782492366    15.3366421844
Ni     11.0486515642     7.8072851832    15.3343324466
Ni      9.8201487819     1.4218939916    15.3360783494
Ni     11.0487637203     3.5492555555    15.3397208314
Ni     12.2776009673     5.6775538630    15.3354076711
Ni     13.5062050715     7.8064487018    15.3317942811
Ni      1.2160934304     0.7133643511    17.3853421023
Ni      2.4460685892     2.8449381674    17.3904006579
Ni      3.6731750875     4.9717036385    17.3898102926
Ni      4.9033552062     7.1005269701    17.3848601660
Ni      3.6843074029     0.7065964559    17.3820666969
Ni      4.9020077691     2.8387297070    17.3966822947
Ni      6.1258064309     4.9807720817    17.3793669456
Ni      7.3605436595     7.1007164667    17.3900795383
Ni      6.1322567157     0.7117551267    17.3919403386
Ni      7.3620118007     2.8293445706    17.3761704455
Ni      8.5852528221     4.9769322632    17.3846479759
Ni      9.8185480448     7.1015952337    17.3860995876
Ni      8.5909978628     0.7121977297    17.3878990974
Ni      9.8188596839     2.8368083728    17.3892879946
Ni     11.0505458911     4.9763241217    17.3844462155
Ni     12.2762672475     7.0995855105    17.3846902890
O       8.1230636041     3.4516319875    21.5380005196
O       8.7094239047     5.1137240574    19.2463734044
O      10.1713314525     3.9182797889    23.6992963739
C       9.2911408621     4.2802799444    21.4832637713
C       9.7329508175     4.5302784136    20.0244291146
C      10.4468200823     3.6907986359    22.3053593798
H       9.0090036209     5.2363709153    21.9550035499
H      10.0408240987     3.5325751215    19.5991554801
H      10.6492764821     5.1612790720    20.0253676283
H      11.4053162313     4.1688270548    22.0187931794
H      10.5174075660     2.6064955237    22.0882215129
H       8.1879151164     2.8095717256    20.8166168655
H       6.3053068019     3.6406315810    18.4054611281
H      10.9037503921     3.6041844276    24.2243418413
O       2.5113976086     1.4873434497    18.7896231708
H       2.6433846483     1.5323232551    19.7842287036
80
Step 3 | NEB Image 3 | Cartesian Angstrom
Ni      1.2285491663     0.7093206412    11.2498438655
Ni      2.4571631760     2.8374335820    11.2497431788
Ni      3.6858037720     4.9655755486    11.2496755609
Ni      4.9144869566     7.0937161285    11.2496935875
Ni      3.6858513162     0.7092784296    11.2497033636
Ni      4.9144844486     2.8374082413    11.2495592399
Ni      6.1431528894     4.9655796824    11.2495055183
Ni      7.3718498972     7.0937349995    11.2495948588
Ni      6.1432063496     0.7092391306    11.2496126904
Ni      7.3718742141     2.8373824329    11.2494743402
Ni      8.6005599123     4.9655674872    11.2494744658
Ni      9.8292381118     7.0937200243    11.2496170835
Ni      8.6005815610     0.7092348325    11.2496353951
Ni      9.8292683841     2.8373826091    11.2495608640
Ni     11.0579412700     4.9655531094    11.2496073126
Ni     12.2865851296     7.0936856526    11.2497423678
Ni      9.8233387056     0.0021704129    13.3017570360
Ni     11.0520731531     2.1299865066    13.3039104511
Ni     12.2803745563     4.2570433206    13.3037071183
Ni     13.5095509467     6.3851467033    13.3027572425
Ni      2.4515519431     0.0019626118    13.3021770427
Ni      3.6799915186     2.1302282248    13.3032294636
Ni      4.9083738947     4.2580256087    13.3042390038
Ni      6.1369621154     6.3861239438    13.3021819771
Ni      4.9085297725     0.0014728652    13.3016300649
Ni      6.1372109575     2.1306878114    13.3042610969
Ni      7.3659962514     4.2582700724    13.3052944622
Ni      8.5943179161     6.3857546289    13.3035296246
Ni      7.3652198728     0.0019394216    13.3012162988
Ni      8.5943576750     2.1301147054    13.3030892814
Ni      9.8234170481     4.2572325794    13.3043500226
Ni     11.0520277933     6.3859414057    13.3023529229
Ni      2.4480340037     1.4221342563    15.3342645415
Ni      3.6757249625     3.5497370365    15.3359912577
Ni      4.9043991433     5.6790569506    15.3347100245
Ni      6.1338582608     7.8082163141    15.3318423749
Ni      4.9055730067     1.4211354054    15.3325805829
Ni      6.1330671428     3.5505904971    15.3341505663
Ni      7.3613919877     5.6798767421    15.3339179730
Ni      8.5912568111     7.8077651308    15.3326899561
Ni      7.3627037751     1.4202288654    15.3328804025
Ni      8.5918715405     3.5482483890    15.3344574183
Ni      9.8209472046     5.6788823933    15.3324207849
Ni     11.0493616267     7.8081596166    15.3325478134
Ni      9.8207673161     1.4209980887    15.3342464954
Ni     11.0496948136     3.5486061292    15.3373812359
Ni     12.2787135514     5.6778530563    15.3335365757
Ni     13.5067280074     7.8067830658    15.3311540380
Ni      1.2153002938     0.7133955485    17.3849296449
Ni      2.4441611254     2.8447103013    17.3895656339
Ni      3.6698036122     4.9738095053    17.3867116942
Ni      4.9016008010     7.1022285728    17.3831745603
Ni      3.6891345544     0.7013897339    17.3596242624
Ni      4.8916192318     2.8384501546    17.3728512196
Ni      6.1190610512     4.9853426737    17.3642172805
Ni      7.3569327820     7.1071923994    17.3796467421
Ni      6.1327057964     0.7050305724    17.3833065043
Ni      7.3682532810     2.8249343564    17.3492941020
Ni      8.5878231855     4.9706244629    17.3443184288
Ni      9.8216058967     7.1101441284    17.3713447901
Ni      8.5925724560     0.7072973353    17.3820116106
Ni      9.8221414835     2.8327724426    17.3800627686
Ni     11.0605397758     4.9744974338    17.3652162650
Ni     12.2796910191     7.1019854263    17.3811290085
O       8.5580378377     3.3080961966    20.3803027874
O       8.9449094767     5.8952227902    18.9644930666
O       9.3467605302     3.4945044413    23.1883229122
C       9.0613056402     4.4787816325    21.0291108850
C       9.7741131506     5.3364379918    19.9823400887
C      10.0629630547     4.1240392698    22.1305394806
H       8.2324105470     5.0554556944    21.4802318503
H      10.5587480732     4.6830616055    19.5237774393
H      10.2778294053     6.1692484526    20.4937070251
H      10.5653520005     5.0431216377    22.4789453723
H      10.8243388567     3.4435863072    21.7099995493
H       8.2759794253     2.6719489971    21.0547323908
H       6.1214348563     3.5507334583    18.3034231811
H      10.0204847439     3.2378979061    23.8936236889
O       2.4877779757     0.4830600928    18.8788018799
H       2.5363105625     1.1865624839    19.5560938823
80
Step 4 | NEB Image 4 | Cartesian Angstrom
Ni      1.2285427999     0.7093194015    11.2498329743
Ni      2.4571510333     2.8374365748    11.2497041529
Ni      3.6857969255     4.9655890191    11.2496224868
Ni      4.9144843235     7.0937314685    11.2496451204
Ni      3.6858358489     0.7092673507    11.2496498111
Ni      4.9144768292     2.8374066507    11.2494645731
Ni      6.1431546347     4.9655885951    11.2494011319
Ni      7.3718568863     7.0937539640    11.2494967610
Ni      6.1432043271     0.7092140186    11.2495096299
Ni      7.3718879639     2.8373671089    11.2493387818
Ni      8.6005858858     4.9655653683    11.2493296534
Ni      9.8292723546     7.0937390766    11.2494963505
Ni      8.6006026184     0.7091970875    11.2495139719
Ni      9.8293083294     2.8373561921    11.2494186746
Ni     11.0579943401     4.9655472797    11.2494736116
Ni     12.2866352388     7.0937008577    11.2496452458
Ni      9.8234247786     0.0020449232    13.3015070036
Ni     11.0522200658     2.1298914255    13.3036193006
Ni     12.2805447004     4.2569963583    13.3034553448
Ni     13.5096950349     6.3851554088    13.3025783866
Ni      2.4515163536     0.0019534071    13.3021432365
Ni      3.6799187210     2.1302150618    13.3030073354
Ni      4.9083757754     4.2580897609    13.3039683055
Ni      6.1369526875     6.3861660672    13.3019465240
Ni      4.9084961070     0.0013943192    13.3014109339
Ni      6.1372525473     2.1306601687    13.3038942251
Ni      7.3660530809     4.2582454355    13.3048973062
Ni      8.5943989014     6.3857862230    13.3031149114
Ni      7.3652619758     0.0018265682    13.3009275187
Ni      8.5944560240     2.1300235278    13.3027184606
Ni      9.8235779218     4.2571588789    13.3039335060
Ni     11.0522062982     6.3859559547    13.3020145060
Ni      2.4477751591     1.4220937116    15.3342777557
Ni      3.6750696043     3.5502506448    15.3346157957
Ni      4.9045227801     5.6792611100    15.3344020808
Ni      6.1336979618     7.8084029048    15.3312065088
Ni      4.9053504479     1.4207376922    15.3309878338
Ni      6.1338051638     3.5509699226    15.3328747591
Ni      7.3613173227     5.6797625301    15.3323043306
Ni      8.5915236098     7.8082054252    15.3313515337
Ni      7.3632160603     1.4202718750    15.3317880715
Ni      8.5922828846     3.5475265230    15.3329418025
Ni      9.8219713680     5.6787481118    15.3306093363
Ni     11.0499902946     7.8084558160    15.3315763761
Ni      9.8211689749     1.4206312143    15.3333664921
Ni     11.0503375336     3.5483111165    15.3366712588
Ni     12.2792611171     5.6777106161    15.3329876700
Ni     13.5070791241     7.8068842813    15.3308233533
Ni      1.2170686050     0.7140703141    17.3865507140
Ni      2.4431367417     2.8433974149    17.3888167740
Ni      3.6697705040     4.9759579481    17.3853338242
Ni      4.9016115180     7.1021464373    17.3826946706
Ni      3.6814785899     0.7053118543    17.3593260724
Ni      4.8884350436     2.8479510133    17.3437071842
Ni      6.1193772816     4.9797390025    17.3679902422
Ni      7.3559804594     7.1113996589    17.3701044560
Ni      6.1367746404     0.6987482411    17.3707082542
Ni      7.3717287313     2.8322390053    17.3544485169
Ni      8.6005876026     4.9584535935    17.3246364838
Ni      9.8266753684     7.1138412622    17.3611368988
Ni      8.5939975096     0.7052014932    17.3787326865
Ni      9.8255408123     2.8323105922    17.3761909998
Ni     11.0631745378     4.9690480149    17.3662635964
Ni     12.2821722405     7.1023509914    17.3793132806
O       9.0843368737     3.4150681013    20.0027575455
O       7.8719415140     5.7729623773    18.8715433070
O       9.0157076281     3.2656724493    22.8216762068
C       8.5318551695     4.4623260741    20.8164530646
C       8.6515459794     5.7838544472    20.0676562480
C       9.2583352579     4.5183388567    22.1516245097
H       7.4578980261     4.2597342108    20.9975323738
H       9.7153790395     5.9630987526    19.8186468617
H       8.2962534526     6.6047023499    20.7087522283
H       8.8868230086     5.3635608791    22.7526998530
H      10.3377294609     4.6556703366    21.9634571558
H       8.9447938779     2.5747394438    20.4690704006
H       6.1318524347     2.1740542230    18.2920225712
H       9.6084537083     3.1982554814    23.5740590287
O       2.4706253588     0.5036448754    18.9046460453
H       2.4852204863     1.2668255342    19.5115108034
80
Step 5 | NEB Image 5 | Cartesian Angstrom
Ni      1.2286497034     0.7093615225    11.2499999440
Ni      2.4572989609     2.8374461750    11.2499999440
Ni      3.6859482184     4.9655308275    11.2499999440
Ni      4.9145974759     7.0936154800    11.2499999440
Ni      3.6859497034     0.7093615225    11.2499999440
Ni      4.9145989609     2.8374461750    11.2499999440
Ni      6.1432482184     4.9655308275    11.2499999440
Ni      7.3718974759     7.0936154800    11.2499999440
Ni      6.1432497034     0.7093615225    11.2499999440
Ni      7.3718989609     2.8374461750    11.2499999440
Ni      8.6005482184     4.9655308275    11.2499999440
Ni      9.8291974759     7.0936154800    11.2499999440
Ni      8.6005497034     0.7093615225    11.2499999440
Ni      9.8291989609     2.8374461750    11.2499999440
Ni     11.0578482184     4.9655308275    11.2499999440
Ni     12.2864974759     7.0936154800    11.2499999440
Ni      9.8231926870     0.0024995631    13.3023446442
Ni     11.0518089676     2.1302240586    13.3047083557
Ni     12.2800508544     4.2570722939    13.3044621680
Ni     13.5092873083     6.3850384546    13.3032134512
Ni      2.4517696982     0.0021660497    13.3026623307
Ni      3.6803278881     2.1303359107    13.3041135630
Ni      4.9088074938     4.2579363814    13.3054287544
Ni      6.1372745671     6.3857877107    13.3032783798
Ni      4.9086517115     0.0018312594    13.3024060945
Ni      6.1374036838     2.1309748468    13.3056096270
Ni      7.3661495135     4.2582451239    13.3069522585
Ni      8.5943413203     6.3854189562    13.3048451696
Ni      7.3652044956     0.0023769003    13.3020219334
Ni      8.5942385662     2.1304695544    13.3043868044
Ni      9.8231946918     4.2572739512    13.3057506922
Ni     11.0517679695     6.3857120360    13.3033344194
Ni      2.4490339821     1.4222228929    15.3362210124
Ni      3.6772966574     3.5494520554    15.3385526461
Ni      4.9062018672     5.6779299780    15.3378106046
Ni      6.1346571942     7.8070606266    15.3335999053
Ni      4.9058225197     1.4219699914    15.3362206260
Ni      6.1346426084     3.5508505475    15.3401418518
Ni      7.3625330027     5.6784279498    15.3395242568
Ni      8.5915701206     7.8062468470    15.3354851546
Ni      7.3627071376     1.4224398724    15.3370388041
Ni      8.5913286772     3.5492677633    15.3408174188
Ni      9.8201850849     5.6778143804    15.3377746619
Ni     11.0486433115     7.8070023171    15.3347462049
Ni      9.8200953547     1.4222882677    15.3366654644
Ni     11.0486075444     3.5492992589    15.3407265960
Ni     12.2774144623     5.6772885732    15.3359640033
Ni     13.5061541972     7.8063455902    15.3319299253
Ni      1.2187910631     0.7145173608    17.3879334314
Ni      2.4472474227     2.8420654806    17.3934581627
Ni      3.6755426811     4.9714604374    17.3911199588
Ni      4.9045369929     7.0990999797    17.3858410289
Ni      3.6755273590     0.7130852450    17.3897672789
Ni      4.9037000473     2.8423806074    17.3934481142
Ni      6.1319553005     4.9726957480    17.3963328007
Ni      7.3614524743     7.0997441935    17.3897409983
Ni      6.1332850561     0.7119051795    17.3902534707
Ni      7.3623531846     2.8409773484    17.3961534740
Ni      8.5911690953     4.9716069348    17.3936888912
Ni      9.8197669951     7.1000577029    17.3889506467
Ni      8.5911411426     0.7131642395    17.3880087950
Ni      9.8198330590     2.8408219131    17.3957136598
Ni     11.0487030798     4.9704125685    17.3927698418
Ni     12.2763266601     7.0989938309    17.3852102935
O       9.3819344244     4.1358166692    20.0930362367
O       7.4403591999     5.7710500252    18.8010456662
O       8.6054614657     3.3490556865    22.7703843692
C       8.1664603160     4.5686069475    20.7700096311
C       7.7641571257     5.9228005922    20.1887078083
C       8.3912004598     4.6889035721    22.2787219386
H       7.3485584428     3.8274455412    20.5710354409
H       8.5939941550     6.6612606078    20.2727262356
H       6.8675792875     6.3118286823    20.7285291220
H       7.5127131407     5.1500412147    22.7730789076
H       9.2780443246     5.3384479547    22.4478370724
H       9.6348023466     3.2728259917    20.4951539629
H       4.4134518168     1.3599542848    19.7391102444
H       8.7500633813     3.3953291848    23.7317250903
O       3.5190441201     1.0401590876    20.0091886335
H       2.9303167551     1.7729858078    19.7218291788
