80
Step 1 | NEB Image 1 | Cartesian Angstrom
Ni      1.2286497520     0.7093615510    11.2500000000
Ni      2.4572990100     2.8374462050    11.2500000000
Ni      3.6859482670     4.9655308580    11.2500000000
Ni      4.9145975240     7.0936155120    11.2500000000
Ni      3.6859497520     0.7093615510    11.2500000000
Ni      4.9145990100     2.8374462050    11.2500000000
Ni      6.1432482670     4.9655308580    11.2500000000
Ni      7.3718975240     7.0936155120    11.2500000000
Ni      6.1432497520     0.7093615510    11.2500000000
Ni      7.3718990100     2.8374462050    11.2500000000
Ni      8.6005482670     4.9655308580    11.2500000000
Ni      9.8291975240     7.0936155120    11.2500000000
Ni      8.6005497520     0.7093615510    11.2500000000
Ni      9.8291990100     2.8374462050    11.2500000000
Ni     11.0578482670     4.9655308580    11.2500000000
Ni     12.2864975240     7.0936155120    11.2500000000
Ni      9.8231926171     0.0024995243    13.3023445018
Ni     11.0518089828     2.1302240239    13.3047084143
Ni     12.2800508463     4.2570722555    13.3044621731
Ni     13.5092872810     6.3850384707    13.3032135992
Ni      2.4517697468     0.0021660604    13.3026623602
Ni      3.6803279060     2.1303359400    13.3041136817
Ni      4.9088074779     4.2579363993    13.3054287219
Ni      6.1372745399     6.3857876859    13.3032783461
Ni      4.9086517489     0.0018312679    13.3024059973
Ni      6.1374036900     2.1309748259    13.3056096279
Ni      7.3661494965     4.2582451225    13.3069521294
Ni      8.5943412642     6.3854189356    13.3048452032
Ni      7.3652045598     0.0023769347    13.3020218594
Ni      8.5942385870     2.1304695640    13.3043867892
Ni      9.8231946460     4.2572739586    13.3057508082
Ni     11.0517679487     6.3857120742    13.3033345673
Ni      2.4490340007     1.4222228898    15.3362210296
Ni      3.6772966341     3.5494520402    15.3385526486
Ni      4.9062018309     5.6779299863    15.3378107865
Ni      6.1346571371     7.8070605965    15.3335997660
Ni      4.9058225440     1.4219700119    15.3362205140
Ni      6.1346426161     3.5508505239    15.3401416952
Ni      7.3625330181     5.6784279340    15.3395242275
Ni      8.5915701699     7.8062468637    15.3354849978
Ni      7.3627070876     1.4224398614    15.3370387851
Ni      8.5913286878     3.5492678034    15.3408173342
Ni      9.8201850892     5.6778143966    15.3377748313
Ni     11.0486432903     7.8070022870    15.3347461742
Ni      9.8200953687     1.4222882767    15.3366655971
Ni     11.0486075170     3.5492992344    15.3407266613
Ni     12.2774144290     5.6772885475    15.3359640395
Ni     13.5061541408     7.8063455598    15.3319300907
Ni      1.2187910907     0.7145173253    17.3879335108
Ni      2.4472474042     2.8420654675    17.3934583506
Ni      3.6755426414     4.9714604155    17.3911200986
Ni      4.9045370414     7.0991000162    17.3858411419
Ni      3.6755273378     0.7130852300    17.3897672756
Ni      4.9036999828     2.8423805674    17.3934479204
Ni      6.1319552592     4.9726957523    17.3963329095
Ni      7.3614524683     7.0997442315    17.3897409244
Ni      6.1332850858     0.7119051778    17.3902533166
Ni      7.3623531396     2.8409773511    17.3961535169
Ni      8.5911690575     4.9716069245    17.3936889093
Ni      9.8197669708     7.1000576725    17.3889506802
Ni      8.5911411739     0.7131642406    17.3880086894
Ni      9.8198330202     2.8408219279    17.3957136835
Ni     11.0487030817     4.9704125327    17.3927697587
Ni     12.2763266391     7.0989938258    17.3852102912
O       8.9251371547     3.7718626191    21.8184268850
O       8.2856391285     4.9229512085    19.4555245639
O       9.2075287665     5.5577213861    24.1208549146
C       8.7890586869     5.2052027711    21.7895113295
C       9.0784439890     5.7020940863    20.3779856090
C       9.6515589376     5.9211725815    22.8141432585
H       7.7293756442     5.3817804057    22.0278442606
H      10.1474804590     5.6000307635    20.1164095999
H       8.7838187357     6.7504084847    20.2283688646
H       9.5590105667     7.0098663540    22.6449898105
H      10.7134083106     5.6461089342    22.6557665352
H       9.8741227664     3.5482534744    21.8035304548
H       8.2322125213     4.0045331414    19.8060067960
H       9.6829651335     6.0990185004    24.7711400704
O       6.1653810439     2.8377880350    18.9516314119
H       6.1530320207     2.0167345793    19.4830847610
80
Step 2 | NEB Image 2 | Cartesian Angstrom
Ni      1.2286497520     0.7093615510    11.2500000000
Ni      2.4572990100     2.8374462050    11.2500000000
Ni      3.6859482670     4.9655308580    11.2500000000
Ni      4.9145975240     7.0936155120    11.2500000000
Ni      3.6859497520     0.7093615510    11.2500000000
Ni      4.9145990100     2.8374462050    11.2500000000
Ni      6.1432482670     4.9655308580    11.2500000000
Ni      7.3718975240     7.0936155120    11.2500000000
Ni      6.1432497520     0.7093615510    11.2500000000
Ni      7.3718990100     2.8374462050    11.2500000000
Ni      8.6005482670     4.9655308580    11.2500000000
Ni      9.8291975240     7.0936155120    11.2500000000
Ni      8.6005497520     0.7093615510    11.2500000000
Ni      9.8291990100     2.8374462050    11.2500000000
Ni     11.0578482670     4.9655308580    11.2500000000
Ni     12.2864975240     7.0936155120    11.2500000000
Ni      9.8231926171     0.0024995243    13.3023445018
Ni     11.0518089828     2.1302240239    13.3047084143
Ni     12.2800508463     4.2570722555    13.3044621731
Ni     13.5092872810     6.3850384707    13.3032135992
Ni      2.4517697468     0.0021660604    13.3026623602
Ni      3.6803279060     2.1303359400    13.3041136817
Ni      4.9088074779     4.2579363993    13.3054287219
Ni      6.1372745399     6.3857876859    13.3032783461
Ni      4.9086517489     0.0018312679    13.3024059973
Ni      6.1374036900     2.1309748259    13.3056096279
Ni      7.3661494965     4.2582451225    13.3069521294
Ni      8.5943412642     6.3854189356    13.3048452032
Ni      7.3652045598     0.0023769347    13.3020218594
Ni      8.5942385870     2.1304695640    13.3043867892
Ni      9.8231946460     4.2572739586    13.3057508082
Ni     11.0517679487     6.3857120742    13.3033345673
Ni      2.4490340007     1.4222228898    15.3362210296
Ni      3.6772966341     3.5494520402    15.3385526486
Ni      4.9062018309     5.6779299863    15.3378107865
Ni      6.1346571371     7.8070605965    15.3335997660
Ni      4.9058225440     1.4219700119    15.3362205140
Ni      6.1346426161     3.5508505239    15.3401416952
Ni      7.3625330181     5.6784279340    15.3395242275
Ni      8.5915701699     7.8062468637    15.3354849978
Ni      7.3627070876     1.4224398614    15.3370387851
Ni      8.5913286878     3.5492678034    15.3408173342
Ni      9.8201850892     5.6778143966    15.3377748313
Ni     11.0486432903     7.8070022870    15.3347461742
Ni      9.8200953687     1.4222882767    15.3366655971
Ni     11.0486075170     3.5492992344    15.3407266613
Ni     12.2774144290     5.6772885475    15.3359640395
Ni     13.5061541408     7.8063455598    15.3319300907
Ni      1.2187910907     0.7145173253    17.3879335108
Ni      2.4472474042     2.8420654675    17.3934583506
Ni      3.6755426414     4.9714604155    17.3911200986
Ni      4.9045370414     7.0991000162    17.3858411419
Ni      3.6755273378     0.7130852300    17.3897672756
Ni      4.9036999828     2.8423805674    17.3934479204
Ni      6.1319552592     4.9726957523    17.3963329095
Ni      7.3614524683     7.0997442315    17.3897409244
Ni      6.1332850858     0.7119051778    17.3902533166
Ni      7.3623531396     2.8409773511    17.3961535169
Ni      8.5911690575     4.9716069245    17.3936889093
Ni      9.8197669708     7.1000576725    17.3889506802
Ni      8.5911411739     0.7131642406    17.3880086894
Ni      9.8198330202     2.8408219279    17.3957136835
Ni     11.0487030817     4.9704125327    17.3927697587
Ni     12.2763266391     7.0989938258    17.3852102912
O       9.0200341623     3.7473067706    21.7396685017
O       8.2819535270     4.9616874608    19.4046094033
O       9.1830810773     5.4898592558    24.0716684784
C       8.8138522911     5.1690576049    21.7353480424
C       9.0707511508     5.6972574224    20.3356001050
C       9.6287179848     5.9067862687    22.7820641927
H       7.7446122534     5.2901749921    21.9669914525
H      10.1460066321     5.6263010434    20.0570300256
H       8.7753472845     6.7614384717    20.2266384901
H       9.4850144816     6.9927778366    22.6358252048
H      10.7046049800     5.6866750852    22.6343045332
H       9.9824109650     3.5795469642    21.6615451059
H       8.1041399031     4.0236534532    19.7346247365
H       9.6396986600     6.0251093687    24.7435835569
O       6.4543983180     2.8651892552    19.0697502564
H       6.6003323296     2.0338546259    19.5800359794
80
Step 3 | NEB Image 3 | Cartesian Angstrom
Ni      1.2286497520     0.7093615510    11.2500000000
Ni      2.4572990100     2.8374462050    11.2500000000
Ni      3.6859482670     4.9655308580    11.2500000000
Ni      4.9145975240     7.0936155120    11.2500000000
Ni      3.6859497520     0.7093615510    11.2500000000
Ni      4.9145990100     2.8374462050    11.2500000000
Ni      6.1432482670     4.9655308580    11.2500000000
Ni      7.3718975240     7.0936155120    11.2500000000
Ni      6.1432497520     0.7093615510    11.2500000000
Ni      7.3718990100     2.8374462050    11.2500000000
Ni      8.6005482670     4.9655308580    11.2500000000
Ni      9.8291975240     7.0936155120    11.2500000000
Ni      8.6005497520     0.7093615510    11.2500000000
Ni      9.8291990100     2.8374462050    11.2500000000
Ni     11.0578482670     4.9655308580    11.2500000000
Ni     12.2864975240     7.0936155120    11.2500000000
Ni      9.8231926171     0.0024995243    13.3023445018
Ni     11.0518089828     2.1302240239    13.3047084143
Ni     12.2800508463     4.2570722555    13.3044621731
Ni     13.5092872810     6.3850384707    13.3032135992
Ni      2.4517697468     0.0021660604    13.3026623602
Ni      3.6803279060     2.1303359400    13.3041136817
Ni      4.9088074779     4.2579363993    13.3054287219
Ni      6.1372745399     6.3857876859    13.3032783461
Ni      4.9086517489     0.0018312679    13.3024059973
Ni      6.1374036900     2.1309748259    13.3056096279
Ni      7.3661494965     4.2582451225    13.3069521294
Ni      8.5943412642     6.3854189356    13.3048452032
Ni      7.3652045598     0.0023769347    13.3020218594
Ni      8.5942385870     2.1304695640    13.3043867892
Ni      9.8231946460     4.2572739586    13.3057508082
Ni     11.0517679487     6.3857120742    13.3033345673
Ni      2.4490340007     1.4222228898    15.3362210296
Ni      3.6772966341     3.5494520402    15.3385526486
Ni      4.9062018309     5.6779299863    15.3378107865
Ni      6.1346571371     7.8070605965    15.3335997660
Ni      4.9058225440     1.4219700119    15.3362205140
Ni      6.1346426161     3.5508505239    15.3401416952
Ni      7.3625330181     5.6784279340    15.3395242275
Ni      8.5915701699     7.8062468637    15.3354849978
Ni      7.3627070876     1.4224398614    15.3370387851
Ni      8.5913286878     3.5492678034    15.3408173342
Ni      9.8201850892     5.6778143966    15.3377748313
Ni     11.0486432903     7.8070022870    15.3347461742
Ni      9.8200953687     1.4222882767    15.3366655971
Ni     11.0486075170     3.5492992344    15.3407266613
Ni     12.2774144290     5.6772885475    15.3359640395
Ni     13.5061541408     7.8063455598    15.3319300907
Ni      1.2187910907     0.7145173253    17.3879335108
Ni      2.4472474042     2.8420654675    17.3934583506
Ni      3.6755426414     4.9714604155    17.3911200986
Ni      4.9045370414     7.0991000162    17.3858411419
Ni      3.6755273378     0.7130852300    17.3897672756
Ni      4.9036999828     2.8423805674    17.3934479204
Ni      6.1319552592     4.9726957523    17.3963329095
Ni      7.3614524683     7.0997442315    17.3897409244
Ni      6.1332850858     0.7119051778    17.3902533166
Ni      7.3623531396     2.8409773511    17.3961535169
Ni      8.5911690575     4.9716069245    17.3936889093
Ni      9.8197669708     7.1000576725    17.3889506802
Ni      8.5911411739     0.7131642406    17.3880086894
Ni      9.8198330202     2.8408219279    17.3957136835
Ni     11.0487030817     4.9704125327    17.3927697587
Ni     12.2763266391     7.0989938258    17.3852102912
O       9.1045409635     3.7288012339    21.6782004270
O       8.2807678183     4.9655314365    19.3595090200
O       9.1659978612     5.4344551203    24.0308201410
C       8.8350277222     5.1380124231    21.6887357053
C       9.0718907619     5.7059879245    20.3054354060
C       9.6089533009     5.8942960156    22.7548988807
H       7.7595237461     5.2129022836    21.9167142719
H      10.1359439275     5.6506363569    20.0095988475
H       8.7664724946     6.7627294129    20.2256746869
H       9.4219869897     6.9769920980    22.6281979134
H      10.6949547905     5.7202504608    22.6163849311
H      10.0697927240     3.6102086712    21.5475482466
H       7.9754781574     4.0502442310    19.6510949232
H       9.6016731673     5.9662235239    24.7190149396
O       6.7517318450     2.8907696666    19.1949356237
H       6.9859747170     2.0491257094    19.6624260227
80
Step 4 | NEB Image 4 | Cartesian Angstrom
Ni      1.2286497520     0.7093615510    11.2500000000
Ni      2.4572990100     2.8374462050    11.2500000000
Ni      3.6859482670     4.9655308580    11.2500000000
Ni      4.9145975240     7.0936155120    11.2500000000
Ni      3.6859497520     0.7093615510    11.2500000000
Ni      4.9145990100     2.8374462050    11.2500000000
Ni      6.1432482670     4.9655308580    11.2500000000
Ni      7.3718975240     7.0936155120    11.2500000000
Ni      6.1432497520     0.7093615510    11.2500000000
Ni      7.3718990100     2.8374462050    11.2500000000
Ni      8.6005482670     4.9655308580    11.2500000000
Ni      9.8291975240     7.0936155120    11.2500000000
Ni      8.6005497520     0.7093615510    11.2500000000
Ni      9.8291990100     2.8374462050    11.2500000000
Ni     11.0578482670     4.9655308580    11.2500000000
Ni     12.2864975240     7.0936155120    11.2500000000
Ni      9.8231926171     0.0024995243    13.3023445018
Ni     11.0518089828     2.1302240239    13.3047084143
Ni     12.2800508463     4.2570722555    13.3044621731
Ni     13.5092872810     6.3850384707    13.3032135992
Ni      2.4517697468     0.0021660604    13.3026623602
Ni      3.6803279060     2.1303359400    13.3041136817
Ni      4.9088074779     4.2579363993    13.3054287219
Ni      6.1372745399     6.3857876859    13.3032783461
Ni      4.9086517489     0.0018312679    13.3024059973
Ni      6.1374036900     2.1309748259    13.3056096279
Ni      7.3661494965     4.2582451225    13.3069521294
Ni      8.5943412642     6.3854189356    13.3048452032
Ni      7.3652045598     0.0023769347    13.3020218594
Ni      8.5942385870     2.1304695640    13.3043867892
Ni      9.8231946460     4.2572739586    13.3057508082
Ni     11.0517679487     6.3857120742    13.3033345673
Ni      2.4490340007     1.4222228898    15.3362210296
Ni      3.6772966341     3.5494520402    15.3385526486
Ni      4.9062018309     5.6779299863    15.3378107865
Ni      6.1346571371     7.8070605965    15.3335997660
Ni      4.9058225440     1.4219700119    15.3362205140
Ni      6.1346426161     3.5508505239    15.3401416952
Ni      7.3625330181     5.6784279340    15.3395242275
Ni      8.5915701699     7.8062468637    15.3354849978
Ni      7.3627070876     1.4224398614    15.3370387851
Ni      8.5913286878     3.5492678034    15.3408173342
Ni      9.8201850892     5.6778143966    15.3377748313
Ni     11.0486432903     7.8070022870    15.3347461742
Ni      9.8200953687     1.4222882767    15.3366655971
Ni     11.0486075170     3.5492992344    15.3407266613
Ni     12.2774144290     5.6772885475    15.3359640395
Ni     13.5061541408     7.8063455598    15.3319300907
Ni      1.2187910907     0.7145173253    17.3879335108
Ni      2.4472474042     2.8420654675    17.3934583506
Ni      3.6755426414     4.9714604155    17.3911200986
Ni      4.9045370414     7.0991000162    17.3858411419
Ni      3.6755273378     0.7130852300    17.3897672756
Ni      4.9036999828     2.8423805674    17.3934479204
Ni      6.1319552592     4.9726957523    17.3963329095
Ni      7.3614524683     7.0997442315    17.3897409244
Ni      6.1332850858     0.7119051778    17.3902533166
Ni      7.3623531396     2.8409773511    17.3961535169
Ni      8.5911690575     4.9716069245    17.3936889093
Ni      9.8197669708     7.1000576725    17.3889506802
Ni      8.5911411739     0.7131642406    17.3880086894
Ni      9.8198330202     2.8408219279    17.3957136835
Ni     11.0487030817     4.9704125327    17.3927697587
Ni     12.2763266391     7.0989938258    17.3852102912
O       9.1854111686     3.7206052084    21.6119468195
O       8.2810543202     4.9895338801    19.3172345585
O       9.1507800861     5.3822686299    23.9922292909
C       8.8557920805     5.1150176111    21.6386374265
C       9.0648116892     5.7233180904    20.2591512174
C       9.5900769433     5.8817660624    22.7281628067
H       7.7781050061     5.1418339848    21.8637343961
H      10.1339571951     5.6842727173    19.9697876377
H       8.7721805371     6.7891311801    20.2384059435
H       9.3632090360     6.9583301024    22.6209966231
H      10.6830273709     5.7507298899    22.6013291050
H      10.1466213025     3.6429307547    21.4433479832
H       7.8000543802     3.9161930729    19.5574163853
H       9.5658867242     5.9110479205    24.6942553932
O       7.0525739014     2.9503426116    19.3186785996
H       7.3473085821     2.1043548515    19.7382797323
80
Step 5 | NEB Image 5 | Cartesian Angstrom
Ni      1.2286497520     0.7093615510    11.2500000000
Ni      2.4572990100     2.8374462050    11.2500000000
Ni      3.6859482670     4.9655308580    11.2500000000
Ni      4.9145975240     7.0936155120    11.2500000000
Ni      3.6859497520     0.7093615510    11.2500000000
Ni      4.9145990100     2.8374462050    11.2500000000
Ni      6.1432482670     4.9655308580    11.2500000000
Ni      7.3718975240     7.0936155120    11.2500000000
Ni      6.1432497520     0.7093615510    11.2500000000
Ni      7.3718990100     2.8374462050    11.2500000000
Ni      8.6005482670     4.9655308580    11.2500000000
Ni      9.8291975240     7.0936155120    11.2500000000
Ni      8.6005497520     0.7093615510    11.2500000000
Ni      9.8291990100     2.8374462050    11.2500000000
Ni     11.0578482670     4.9655308580    11.2500000000
Ni     12.2864975240     7.0936155120    11.2500000000
Ni      9.8231926171     0.0024995243    13.3023445018
Ni     11.0518089828     2.1302240239    13.3047084143
Ni     12.2800508463     4.2570722555    13.3044621731
Ni     13.5092872810     6.3850384707    13.3032135992
Ni      2.4517697468     0.0021660604    13.3026623602
Ni      3.6803279060     2.1303359400    13.3041136817
Ni      4.9088074779     4.2579363993    13.3054287219
Ni      6.1372745399     6.3857876859    13.3032783461
Ni      4.9086517489     0.0018312679    13.3024059973
Ni      6.1374036900     2.1309748259    13.3056096279
Ni      7.3661494965     4.2582451225    13.3069521294
Ni      8.5943412642     6.3854189356    13.3048452032
Ni      7.3652045598     0.0023769347    13.3020218594
Ni      8.5942385870     2.1304695640    13.3043867892
Ni      9.8231946460     4.2572739586    13.3057508082
Ni     11.0517679487     6.3857120742    13.3033345673
Ni      2.4490340007     1.4222228898    15.3362210296
Ni      3.6772966341     3.5494520402    15.3385526486
Ni      4.9062018309     5.6779299863    15.3378107865
Ni      6.1346571371     7.8070605965    15.3335997660
Ni      4.9058225440     1.4219700119    15.3362205140
Ni      6.1346426161     3.5508505239    15.3401416952
Ni      7.3625330181     5.6784279340    15.3395242275
Ni      8.5915701699     7.8062468637    15.3354849978
Ni      7.3627070876     1.4224398614    15.3370387851
Ni      8.5913286878     3.5492678034    15.3408173342
Ni      9.8201850892     5.6778143966    15.3377748313
Ni     11.0486432903     7.8070022870    15.3347461742
Ni      9.8200953687     1.4222882767    15.3366655971
Ni     11.0486075170     3.5492992344    15.3407266613
Ni     12.2774144290     5.6772885475    15.3359640395
Ni     13.5061541408     7.8063455598    15.3319300907
Ni      1.2187910907     0.7145173253    17.3879335108
Ni      2.4472474042     2.8420654675    17.3934583506
Ni      3.6755426414     4.9714604155    17.3911200986
Ni      4.9045370414     7.0991000162    17.3858411419
Ni      3.6755273378     0.7130852300    17.3897672756
Ni      4.9036999828     2.8423805674    17.3934479204
Ni      6.1319552592     4.9726957523    17.3963329095
Ni      7.3614524683     7.0997442315    17.3897409244
Ni      6.1332850858     0.7119051778    17.3902533166
Ni      7.3623531396     2.8409773511    17.3961535169
Ni      8.5911690575     4.9716069245    17.3936889093
Ni      9.8197669708     7.1000576725    17.3889506802
Ni      8.5911411739     0.7131642406    17.3880086894
Ni      9.8198330202     2.8408219279    17.3957136835
Ni     11.0487030817     4.9704125327    17.3927697587
Ni     12.2763266391     7.0989938258    17.3852102912
O       9.3045527771     3.7133575323    21.5014801328
O       8.2676799813     5.1067567422    19.2490910386
O       9.1290199374     5.3031558564    23.9330297823
C       8.8881682347     5.0877601593    21.5636972024
C       9.0744650723     5.7741455547    20.2108696172
C       9.5605972026     5.8609600029    22.6899133488
H       7.8101129966     5.0363799002    21.7823565066
H      10.1427716634     5.7393274690    19.9134421831
H       8.7891110085     6.8405022187    20.2658700948
H       9.2748252532     6.9256750790    22.6069801659
H      10.6607265066     5.7971487966    22.5795174168
H      10.2555622390     3.6921116131    21.2897718573
H       7.7255009436     3.7818408526    19.5489249549
H       9.5087506460     5.8278663638    24.6556475781
O       7.2643301131     2.8500978930    19.4130110797
H       7.8626355014     2.1992220207    19.8252374204
