80
Step 1 | NEB Image 1 | Cartesian Angstrom
Ni      1.2286497034     0.7093615225    11.2499999440
Ni      2.4572989609     2.8374461750    11.2499999440
Ni      3.6859482184     4.9655308275    11.2499999440
Ni      4.9145974759     7.0936154800    11.2499999440
Ni      3.6859497034     0.7093615225    11.2499999440
Ni      4.9145989609     2.8374461750    11.2499999440
Ni      6.1432482184     4.9655308275    11.2499999440
Ni      7.3718974759     7.0936154800    11.2499999440
Ni      6.1432497034     0.7093615225    11.2499999440
Ni      7.3718989609     2.8374461750    11.2499999440
Ni      8.6005482184     4.9655308275    11.2499999440
Ni      9.8291974759     7.0936154800    11.2499999440
Ni      8.6005497034     0.7093615225    11.2499999440
Ni      9.8291989609     2.8374461750    11.2499999440
Ni     11.0578482184     4.9655308275    11.2499999440
Ni     12.2864974759     7.0936154800    11.2499999440
Ni      9.8231926870     0.0024995631    13.3023446442
Ni     11.0518089676     2.1302240586    13.3047083557
Ni     12.2800508544     4.2570722939    13.3044621680
Ni     13.5092873083     6.3850384546    13.3032134512
Ni      2.4517696982     0.0021660497    13.3026623307
Ni      3.6803278881     2.1303359107    13.3041135630
Ni      4.9088074938     4.2579363814    13.3054287544
Ni      6.1372745671     6.3857877107    13.3032783798
Ni      4.9086517115     0.0018312594    13.3024060945
Ni      6.1374036838     2.1309748468    13.3056096270
Ni      7.3661495135     4.2582451239    13.3069522585
Ni      8.5943413203     6.3854189562    13.3048451696
Ni      7.3652044956     0.0023769003    13.3020219334
Ni      8.5942385662     2.1304695544    13.3043868044
Ni      9.8231946918     4.2572739512    13.3057506922
Ni     11.0517679695     6.3857120360    13.3033344194
Ni      2.4490339821     1.4222228929    15.3362210124
Ni      3.6772966574     3.5494520554    15.3385526461
Ni      4.9062018672     5.6779299780    15.3378106046
Ni      6.1346571942     7.8070606266    15.3335999053
Ni      4.9058225197     1.4219699914    15.3362206260
Ni      6.1346426084     3.5508505475    15.3401418518
Ni      7.3625330027     5.6784279498    15.3395242568
Ni      8.5915701206     7.8062468470    15.3354851546
Ni      7.3627071376     1.4224398724    15.3370388041
Ni      8.5913286772     3.5492677633    15.3408174188
Ni      9.8201850849     5.6778143804    15.3377746619
Ni     11.0486433115     7.8070023171    15.3347462049
Ni      9.8200953547     1.4222882677    15.3366654644
Ni     11.0486075444     3.5492992589    15.3407265960
Ni     12.2774144623     5.6772885732    15.3359640033
Ni     13.5061541972     7.8063455902    15.3319299253
Ni      1.2187910631     0.7145173608    17.3879334314
Ni      2.4472474227     2.8420654806    17.3934581627
Ni      3.6755426811     4.9714604374    17.3911199588
Ni      4.9045369929     7.0990999797    17.3858410289
Ni      3.6755273590     0.7130852450    17.3897672789
Ni      4.9037000473     2.8423806074    17.3934481142
Ni      6.1319553005     4.9726957480    17.3963328007
Ni      7.3614524743     7.0997441935    17.3897409983
Ni      6.1332850561     0.7119051795    17.3902534707
Ni      7.3623531846     2.8409773484    17.3961534740
Ni      8.5911690953     4.9716069348    17.3936888912
Ni      9.8197669951     7.1000577029    17.3889506467
Ni      8.5911411426     0.7131642395    17.3880087950
Ni      9.8198330590     2.8408219131    17.3957136598
Ni     11.0487030798     4.9704125685    17.3927698418
Ni     12.2763266601     7.0989938309    17.3852102935
O       8.1853233808     3.4574048182    21.7117206478
O       8.5869329741     5.0599815235    19.5762271001
O      10.2109211163     3.6451020548    23.8826602062
C       9.3606393600     4.2890487236    21.7367471584
C       9.7574736302     4.6321502783    20.3055951979
C      10.5272793641     3.6720453941    22.4918474794
H       9.0423459569     5.1976070563    22.2680419510
H      10.2036708160     3.7499198429    19.8025973096
H      10.4835571337     5.4542343167    20.2475656164
H      11.4351836342     4.2717022800    22.2942344717
H      10.7115000118     2.6514065461    22.0984614952
H       8.4384371395     2.5707271966    21.3925898339
H       7.8511829079     4.4818016084    19.8831003151
H      11.0040911060     3.3843978098    24.3788521822
O       2.4676593393     1.4045078651    18.8058894197
H       2.5804189712     1.3115658959    19.7657035449
80
Step 2 | NEB Image 2 | Cartesian Angstrom
Ni      1.2285506753     0.7093187630    11.2498436816
Ni      2.4571653947     2.8374312916    11.2497462750
Ni      3.6858045806     4.9655732518    11.2496807553
Ni      4.9144879578     7.0937148786    11.2497011940
Ni      3.6858563244     0.7092786843    11.2497170998
Ni      4.9144872508     2.8374066382    11.2495791595
Ni      6.1431541158     4.9655782738    11.2495281620
Ni      7.3718495878     7.0937311854    11.2496207705
Ni      6.1432074402     0.7092441524    11.2496428036
Ni      7.3718716952     2.8373857597    11.2495107013
Ni      8.6005540380     4.9655689098    11.2495158126
Ni      9.8292286878     7.0937145372    11.2496539957
Ni      8.6005754253     0.7092450860    11.2496726097
Ni      9.8292568572     2.8373907631    11.2496033446
Ni     11.0579254073     4.9655556995    11.2496494811
Ni     12.2865694365     7.0936806803    11.2497739340
Ni      9.8233101216     0.0022076205    13.3018384697
Ni     11.0520268949     2.1300169117    13.3039968110
Ni     12.2803190677     4.2570643988    13.3037931230
Ni     13.5095005303     6.3851424690    13.3028221420
Ni      2.4515677108     0.0019584360    13.3021887997
Ni      3.6800151006     2.1302219822    13.3032777419
Ni      4.9083741092     4.2580088101    13.3042827033
Ni      6.1369710789     6.3861208364    13.3022342495
Ni      4.9085386089     0.0014921544    13.3017057288
Ni      6.1372014143     2.1306866991    13.3043574143
Ni      7.3659882216     4.2582788549    13.3053998799
Ni      8.5942994635     6.3857452423    13.3036587034
Ni      7.3652076806     0.0019714251    13.3013096205
Ni      8.5943281858     2.1301399046    13.3031999319
Ni      9.8233677016     4.2572607920    13.3044825086
Ni     11.0519709591     6.3859344114    13.3024698511
Ni      2.4481688918     1.4220901418    15.3342085699
Ni      3.6759250012     3.5496006540    15.3362694600
Ni      4.9043243437     5.6790598353    15.3346680600
Ni      6.1339278583     7.8081797366    15.3320289008
Ni      4.9056010387     1.4212124440    15.3330961940
Ni      6.1328808098     3.5504445330    15.3343692949
Ni      7.3614927548     5.6799178469    15.3343972720
Ni      8.5911805661     7.8076188805    15.3331149825
Ni      7.3625775876     1.4202024072    15.3332173202
Ni      8.5917053602     3.5484952026    15.3349591295
Ni      9.8206173588     5.6789016418    15.3331024232
Ni     11.0491630767     7.8080405936    15.3328666135
Ni      9.8206161452     1.4210738925    15.3345003072
Ni     11.0495007730     3.5487693907    15.3375879043
Ni     12.2784833632     5.6778894686    15.3338124427
Ni     13.5066026574     7.8067353937    15.3312739804
Ni      1.2143025037     0.7128668418    17.3838746829
Ni      2.4441729086     2.8460663946    17.3884385274
Ni      3.6696837397     4.9733160816    17.3869988285
Ni      4.9015606301     7.1023934455    17.3832088136
Ni      3.6917729234     0.6999089904    17.3624250308
Ni      4.8937754250     2.8368235306    17.3811454616
Ni      6.1181878563     4.9877221007    17.3608232269
Ni      7.3575378949     7.1057939912    17.3827716588
Ni      6.1320900539     0.7068813892    17.3865574031
Ni      7.3663392768     2.8209092917    17.3478008486
Ni      8.5843677118     4.9748500268    17.3516430483
Ni      9.8201722968     7.1084260342    17.3742519390
Ni      8.5920597840     0.7082439750    17.3836243254
Ni      9.8207683639     2.8321057420    17.3797878886
Ni     11.0585647550     4.9776868785    17.3668356577
Ni     12.2786936697     7.1015798265    17.3819006812
O       8.0768556953     3.3176030434    21.2335965416
O       8.5777113208     5.2866685075    19.1732043531
O       9.7375095278     3.8252111222    23.6333450287
C       9.0463581190     4.3532228639    21.3908992767
C       9.6019223191     4.8466133667    20.0404164002
C      10.2134947176     3.9238539022    22.2885387287
H       8.5139742924     5.1722401788    21.8852466566
H      10.1844619293     4.0061055332    19.5850206933
H      10.3278945811     5.6662924208    20.2225503196
H      11.0301653189     4.6666123642    22.2126557459
H      10.5995436010     2.9518351390    21.9284795266
H       8.4379942952     2.6408815283    20.6269857794
H       6.1412128590     3.5432461406    18.3119502091
H      10.4819783562     3.5667651576    24.2051737233
O       2.5175111337     1.4400161963    18.7938297988
H       2.6456145301     1.4518454540    19.7508807783
80
Step 3 | NEB Image 3 | Cartesian Angstrom
Ni      1.2285181919     0.7093112476    11.2497991389
Ni      2.4571212745     2.8374327712    11.2496661508
Ni      3.6857609418     4.9655909500    11.2495767465
Ni      4.9144535606     7.0937463680    11.2495966460
Ni      3.6858168163     0.7092544078    11.2496014798
Ni      4.9144477664     2.8373993630    11.2494092099
Ni      6.1431234164     4.9655953416    11.2493367250
Ni      7.3718361034     7.0937739265    11.2494475197
Ni      6.1431923820     0.7091980768    11.2494652784
Ni      7.3718696477     2.8373602267    11.2492799688
Ni      8.6005697807     4.9655764077    11.2492740382
Ni      9.8292606728     7.0937567752    11.2494628836
Ni      8.6005978829     0.7091862718    11.2494861685
Ni      9.8293018190     2.8373546568    11.2493840047
Ni     11.0579866477     4.9655564866    11.2494439947
Ni     12.2866288531     7.0937118951    11.2496305610
Ni      9.8234146187     0.0020317057    13.3014909805
Ni     11.0522037673     2.1298819600    13.3035786118
Ni     12.2805335053     4.2570094910    13.3033863567
Ni     13.5096869857     6.3851833852    13.3025477578
Ni      2.4514695132     0.0019092340    13.3020218151
Ni      3.6798660528     2.1302056502    13.3029191224
Ni      4.9082471572     4.2580705701    13.3038479013
Ni      6.1368597576     6.3862239988    13.3018051636
Ni      4.9084842593     0.0013468806    13.3013151851
Ni      6.1371653143     2.1306069344    13.3037593454
Ni      7.3659593993     4.2582670078    13.3046920961
Ni      8.5943314177     6.3858632520    13.3029968303
Ni      7.3652383258     0.0017753615    13.3008729697
Ni      8.5944263467     2.1299826107    13.3025837988
Ni      9.8235388534     4.2571870612    13.3037880407
Ni     11.0521694906     6.3860167256    13.3019297696
Ni      2.4475781321     1.4221681732    15.3337670793
Ni      3.6750359915     3.5499743434    15.3349457468
Ni      4.9039658995     5.6793718775    15.3338760816
Ni      6.1335418517     7.8085921655    15.3311160249
Ni      4.9054741622     1.4208101729    15.3309199278
Ni      6.1328170117     3.5506879168    15.3321786512
Ni      7.3609309499     5.6802505475    15.3317328692
Ni      8.5912527061     7.8083782957    15.3313821129
Ni      7.3628437496     1.4196171217    15.3312790124
Ni      8.5922279322     3.5476622531    15.3320186070
Ni      9.8215527750     5.6791748271    15.3300534902
Ni     11.0498012130     7.8086387637    15.3315356230
Ni      9.8211421224     1.4205402276    15.3332508339
Ni     11.0502353468     3.5482042235    15.3361692687
Ni     12.2793677279     5.6779766373    15.3324937578
Ni     13.5070427781     7.8069682149    15.3307864877
Ni      1.2155063333     0.7137293544    17.3853595583
Ni      2.4432950627     2.8437664204    17.3899440807
Ni      3.6682897178     4.9750383497    17.3851163443
Ni      4.9007972230     7.1029281964    17.3823754418
Ni      3.6900074097     0.6997348709    17.3471830500
Ni      4.8854243800     2.8389835193    17.3573677581
Ni      6.1164325107     4.9861771866    17.3591259418
Ni      7.3548679304     7.1109952183    17.3730643962
Ni      6.1331499657     0.7009009376    17.3776219879
Ni      7.3723155475     2.8251857527    17.3373488365
Ni      8.5907681691     4.9653804616    17.3212689258
Ni      9.8237789707     7.1151591192    17.3628904255
Ni      8.5935935494     0.7044467781    17.3783065443
Ni      9.8244517585     2.8313223185    17.3760463758
Ni     11.0664522360     4.9717676955    17.3550138513
Ni     12.2818603275     7.1033714308    17.3790148000
O       8.6227871852     3.1227938873    20.4424473392
O       8.3751316220     5.6510852423    19.0311108970
O       9.2898041291     3.4202857575    23.2461219110
C       8.8200219385     4.3775859211    21.1021992778
C       9.3031175706     5.3933911291    20.0736873415
C       9.8502009156     4.2535470228    22.2178403026
H       7.8646784072     4.7269958246    21.5413283042
H      10.2610279250     5.0171117014    19.6520080310
H       9.5144275847     6.3458259804    20.5895633340
H      10.1011566126     5.2520682023    22.6125208674
H      10.7656665643     3.7951173144    21.8030517748
H       8.4646677760     2.4482290600    21.1259553081
H       6.0971638958     3.5245433931    18.2856907353
H       9.9645697054     3.2810436142    23.9297843334
O       2.4897673934     0.4999891962    18.8788652229
H       2.5250869535     1.2343869851    19.5236189870
80
Step 4 | NEB Image 4 | Cartesian Angstrom
Ni      1.2285513234     0.7093227369    11.2498456345
Ni      2.4571619167     2.8374379655    11.2497215925
Ni      3.6858093898     4.9655869484    11.2496440169
Ni      4.9144944008     7.0937246348    11.2496661728
Ni      3.6858430195     0.7092731673    11.2496699367
Ni      4.9144866346     2.8374096853    11.2494916110
Ni      6.1431641256     4.9655854270    11.2494318477
Ni      7.3718626148     7.0937456320    11.2495207226
Ni      6.1432082034     0.7092216678    11.2495316343
Ni      7.3718924555     2.8373707856    11.2493687591
Ni      8.6005886945     4.9655617396    11.2493586669
Ni      9.8292734256     7.0937319164    11.2495157079
Ni      8.6006025778     0.7092036020    11.2495315226
Ni      9.8293074228     2.8373585358    11.2494402071
Ni     11.0579929748     4.9655444970    11.2494922915
Ni     12.2866338600     7.0936963022    11.2496563542
Ni      9.8234225900     0.0020583855    13.3015285145
Ni     11.0522153073     2.1299008480    13.3036537654
Ni     12.2805372259     4.2569936129    13.3034930051
Ni     13.5096891709     6.3851461760    13.3025981677
Ni      2.4515326872     0.0019702320    13.3021844919
Ni      3.6799405357     2.1302218183    13.3030568834
Ni      4.9084170045     4.2580906640    13.3040369614
Ni      6.1369817456     6.3861417127    13.3020142161
Ni      4.9085027126     0.0014164900    13.3014550338
Ni      6.1372769441     2.1306819245    13.3039680693
Ni      7.3660768110     4.2582398658    13.3049960697
Ni      8.5944132780     6.3857590148    13.3031817931
Ni      7.3652664585     0.0018517803    13.3009642125
Ni      8.5944585042     2.1300439288    13.3027889555
Ni      9.8235792164     4.2571534419    13.3040085932
Ni     11.0522061835     6.3859359717    13.3020621832
Ni      2.4478420429     1.4220878283    15.3344559761
Ni      3.6751269102     3.5502980370    15.3346450028
Ni      4.9047040783     5.6791931619    15.3346307892
Ni      6.1337541811     7.8083229798    15.3312828674
Ni      4.9053370446     1.4207544703    15.3311146685
Ni      6.1340617326     3.5510423675    15.3332364566
Ni      7.3614263713     5.6796111784    15.3326069934
Ni      8.5915908666     7.8081215582    15.3314320224
Ni      7.3632919272     1.4204840911    15.3320290828
Ni      8.5922825115     3.5475266246    15.3333370311
Ni      9.8220387761     5.6786255838    15.3308824852
Ni     11.0500086714     7.8083834446    15.3316523478
Ni      9.8211569373     1.4206964312    15.3334702493
Ni     11.0503244406     3.5483467285    15.3368865613
Ni     12.2792049451     5.6776366333    15.3331568611
Ni     13.5070709194     7.8068545253    15.3308535513
Ni      1.2175724715     0.7142202047    17.3869727322
Ni      2.4432397222     2.8431121880    17.3888729388
Ni      3.6702867522     4.9760589533    17.3855379382
Ni      4.9018839840     7.1018616545    17.3828622908
Ni      3.6791824237     0.7069135651    17.3625378937
Ni      4.8893128533     2.8498313270    17.3415196732
Ni      6.1205173177     4.9778735870    17.3711961620
Ni      7.3563223343     7.1112632156    17.3697662987
Ni      6.1374882389     0.6985156622    17.3695272904
Ni      7.3715240422     2.8344880650    17.3595890656
Ni      8.6027377722     4.9569385207    17.3267627577
Ni      9.8272215536     7.1133131028    17.3613499918
Ni      8.5940481692     0.7055107744    17.3789369239
Ni      9.8257429200     2.8328817281    17.3769069951
Ni     11.0622456916     4.9681413374    17.3693002332
Ni     12.2821622986     7.1020749301    17.3794794862
O       9.1440815778     3.4336087751    20.0581906129
O       7.7813312269     5.7118208087    18.8665672320
O       8.9699506462     3.2861175024    22.8675845354
C       8.4687752781     4.4304785652    20.8403853511
C       8.5081655899     5.7581268666    20.0967052979
C       9.1332894356     4.5507951525    22.2050015033
H       7.4095174885     4.1355593853    20.9812390113
H       9.5663524671     6.0239093025    19.8859710981
H       8.0686895366     6.5450917953    20.7273376028
H       8.6620160849     5.3649833944    22.7878643745
H      10.2029354470     4.7844409549    22.0630980982
H       9.0915492185     2.5901338477    20.5544647519
H       6.1267845155     2.1598641040    18.2925504220
H       9.5243995933     3.2774350319    23.6640319094
O       2.4732213031     0.5203687213    18.9103294996
H       2.4993601413     1.3015023750    19.4996729075
80
Step 5 | NEB Image 5 | Cartesian Angstrom
Ni      1.2286497034     0.7093615225    11.2499999440
Ni      2.4572989609     2.8374461750    11.2499999440
Ni      3.6859482184     4.9655308275    11.2499999440
Ni      4.9145974759     7.0936154800    11.2499999440
Ni      3.6859497034     0.7093615225    11.2499999440
Ni      4.9145989609     2.8374461750    11.2499999440
Ni      6.1432482184     4.9655308275    11.2499999440
Ni      7.3718974759     7.0936154800    11.2499999440
Ni      6.1432497034     0.7093615225    11.2499999440
Ni      7.3718989609     2.8374461750    11.2499999440
Ni      8.6005482184     4.9655308275    11.2499999440
Ni      9.8291974759     7.0936154800    11.2499999440
Ni      8.6005497034     0.7093615225    11.2499999440
Ni      9.8291989609     2.8374461750    11.2499999440
Ni     11.0578482184     4.9655308275    11.2499999440
Ni     12.2864974759     7.0936154800    11.2499999440
Ni      9.8231926870     0.0024995631    13.3023446442
Ni     11.0518089676     2.1302240586    13.3047083557
Ni     12.2800508544     4.2570722939    13.3044621680
Ni     13.5092873083     6.3850384546    13.3032134512
Ni      2.4517696982     0.0021660497    13.3026623307
Ni      3.6803278881     2.1303359107    13.3041135630
Ni      4.9088074938     4.2579363814    13.3054287544
Ni      6.1372745671     6.3857877107    13.3032783798
Ni      4.9086517115     0.0018312594    13.3024060945
Ni      6.1374036838     2.1309748468    13.3056096270
Ni      7.3661495135     4.2582451239    13.3069522585
Ni      8.5943413203     6.3854189562    13.3048451696
Ni      7.3652044956     0.0023769003    13.3020219334
Ni      8.5942385662     2.1304695544    13.3043868044
Ni      9.8231946918     4.2572739512    13.3057506922
Ni     11.0517679695     6.3857120360    13.3033344194
Ni      2.4490339821     1.4222228929    15.3362210124
Ni      3.6772966574     3.5494520554    15.3385526461
Ni      4.9062018672     5.6779299780    15.3378106046
Ni      6.1346571942     7.8070606266    15.3335999053
Ni      4.9058225197     1.4219699914    15.3362206260
Ni      6.1346426084     3.5508505475    15.3401418518
Ni      7.3625330027     5.6784279498    15.3395242568
Ni      8.5915701206     7.8062468470    15.3354851546
Ni      7.3627071376     1.4224398724    15.3370388041
Ni      8.5913286772     3.5492677633    15.3408174188
Ni      9.8201850849     5.6778143804    15.3377746619
Ni     11.0486433115     7.8070023171    15.3347462049
Ni      9.8200953547     1.4222882677    15.3366654644
Ni     11.0486075444     3.5492992589    15.3407265960
Ni     12.2774144623     5.6772885732    15.3359640033
Ni     13.5061541972     7.8063455902    15.3319299253
Ni      1.2187910631     0.7145173608    17.3879334314
Ni      2.4472474227     2.8420654806    17.3934581627
Ni      3.6755426811     4.9714604374    17.3911199588
Ni      4.9045369929     7.0990999797    17.3858410289
Ni      3.6755273590     0.7130852450    17.3897672789
Ni      4.9037000473     2.8423806074    17.3934481142
Ni      6.1319553005     4.9726957480    17.3963328007
Ni      7.3614524743     7.0997441935    17.3897409983
Ni      6.1332850561     0.7119051795    17.3902534707
Ni      7.3623531846     2.8409773484    17.3961534740
Ni      8.5911690953     4.9716069348    17.3936888912
Ni      9.8197669951     7.1000577029    17.3889506467
Ni      8.5911411426     0.7131642395    17.3880087950
Ni      9.8198330590     2.8408219131    17.3957136598
Ni     11.0487030798     4.9704125685    17.3927698418
Ni     12.2763266601     7.0989938309    17.3852102935
O       9.3819344244     4.1358166692    20.0930362367
O       7.4403591999     5.7710500252    18.8010456662
O       8.6054614657     3.3490556865    22.7703843692
C       8.1664603160     4.5686069475    20.7700096311
C       7.7641571257     5.9228005922    20.1887078083
C       8.3912004598     4.6889035721    22.2787219386
H       7.3485584428     3.8274455412    20.5710354409
H       8.5939941550     6.6612606078    20.2727262356
H       6.8675792875     6.3118286823    20.7285291220
H       7.5127131407     5.1500412147    22.7730789076
H       9.2780443246     5.3384479547    22.4478370724
H       9.6348023466     3.2728259917    20.4951539629
H       4.4134518168     1.3599542848    19.7391102444
H       8.7500633813     3.3953291848    23.7317250903
O       3.5190441201     1.0401590876    20.0091886335
H       2.9303167551     1.7729858078    19.7218291788
