80
Step 1 | NEB Image 1 | Cartesian Angstrom
Ni      1.2286497034     0.7093615225    11.2499999440
Ni      2.4572989609     2.8374461750    11.2499999440
Ni      3.6859482184     4.9655308275    11.2499999440
Ni      4.9145974759     7.0936154800    11.2499999440
Ni      3.6859497034     0.7093615225    11.2499999440
Ni      4.9145989609     2.8374461750    11.2499999440
Ni      6.1432482184     4.9655308275    11.2499999440
Ni      7.3718974759     7.0936154800    11.2499999440
Ni      6.1432497034     0.7093615225    11.2499999440
Ni      7.3718989609     2.8374461750    11.2499999440
Ni      8.6005482184     4.9655308275    11.2499999440
Ni      9.8291974759     7.0936154800    11.2499999440
Ni      8.6005497034     0.7093615225    11.2499999440
Ni      9.8291989609     2.8374461750    11.2499999440
Ni     11.0578482184     4.9655308275    11.2499999440
Ni     12.2864974759     7.0936154800    11.2499999440
Ni      9.8231926870     0.0024995631    13.3023446442
Ni     11.0518089676     2.1302240586    13.3047083557
Ni     12.2800508544     4.2570722939    13.3044621680
Ni     13.5092873083     6.3850384546    13.3032134512
Ni      2.4517696982     0.0021660497    13.3026623307
Ni      3.6803278881     2.1303359107    13.3041135630
Ni      4.9088074938     4.2579363814    13.3054287544
Ni      6.1372745671     6.3857877107    13.3032783798
Ni      4.9086517115     0.0018312594    13.3024060945
Ni      6.1374036838     2.1309748468    13.3056096270
Ni      7.3661495135     4.2582451239    13.3069522585
Ni      8.5943413203     6.3854189562    13.3048451696
Ni      7.3652044956     0.0023769003    13.3020219334
Ni      8.5942385662     2.1304695544    13.3043868044
Ni      9.8231946918     4.2572739512    13.3057506922
Ni     11.0517679695     6.3857120360    13.3033344194
Ni      2.4490339821     1.4222228929    15.3362210124
Ni      3.6772966574     3.5494520554    15.3385526461
Ni      4.9062018672     5.6779299780    15.3378106046
Ni      6.1346571942     7.8070606266    15.3335999053
Ni      4.9058225197     1.4219699914    15.3362206260
Ni      6.1346426084     3.5508505475    15.3401418518
Ni      7.3625330027     5.6784279498    15.3395242568
Ni      8.5915701206     7.8062468470    15.3354851546
Ni      7.3627071376     1.4224398724    15.3370388041
Ni      8.5913286772     3.5492677633    15.3408174188
Ni      9.8201850849     5.6778143804    15.3377746619
Ni     11.0486433115     7.8070023171    15.3347462049
Ni      9.8200953547     1.4222882677    15.3366654644
Ni     11.0486075444     3.5492992589    15.3407265960
Ni     12.2774144623     5.6772885732    15.3359640033
Ni     13.5061541972     7.8063455902    15.3319299253
Ni      1.2187910631     0.7145173608    17.3879334314
Ni      2.4472474227     2.8420654806    17.3934581627
Ni      3.6755426811     4.9714604374    17.3911199588
Ni      4.9045369929     7.0990999797    17.3858410289
Ni      3.6755273590     0.7130852450    17.3897672789
Ni      4.9037000473     2.8423806074    17.3934481142
Ni      6.1319553005     4.9726957480    17.3963328007
Ni      7.3614524743     7.0997441935    17.3897409983
Ni      6.1332850561     0.7119051795    17.3902534707
Ni      7.3623531846     2.8409773484    17.3961534740
Ni      8.5911690953     4.9716069348    17.3936888912
Ni      9.8197669951     7.1000577029    17.3889506467
Ni      8.5911411426     0.7131642395    17.3880087950
Ni      9.8198330590     2.8408219131    17.3957136598
Ni     11.0487030798     4.9704125685    17.3927698418
Ni     12.2763266601     7.0989938309    17.3852102935
O       8.1853233808     3.4574048182    21.7117206478
O       8.5869329741     5.0599815235    19.5762271001
O      10.2109211163     3.6451020548    23.8826602062
C       9.3606393600     4.2890487236    21.7367471584
C       9.7574736302     4.6321502783    20.3055951979
C      10.5272793641     3.6720453941    22.4918474794
H       9.0423459569     5.1976070563    22.2680419510
H      10.2036708160     3.7499198429    19.8025973096
H      10.4835571337     5.4542343167    20.2475656164
H      11.4351836342     4.2717022800    22.2942344717
H      10.7115000118     2.6514065461    22.0984614952
H       8.4384371395     2.5707271966    21.3925898339
H       7.8511829079     4.4818016084    19.8831003151
H      11.0040911060     3.3843978098    24.3788521822
O       2.4676593393     1.4045078651    18.8058894197
H       2.5804189712     1.3115658959    19.7657035449
80
Step 2 | NEB Image 2 | Cartesian Angstrom
Ni      1.2286010685     0.7093383146    11.2499209357
Ni      2.4572334863     2.8374366950    11.2498744397
Ni      3.6858764870     4.9655503281    11.2498431222
Ni      4.9145431497     7.0936646263    11.2498555899
Ni      3.6859068925     0.7093198908    11.2498689378
Ni      4.9145450597     2.8374248288    11.2498044318
Ni      6.1432019042     4.9655535901    11.2497810280
Ni      7.3718731521     7.0936706269    11.2498306274
Ni      6.1432293470     0.7093065321    11.2498453683
Ni      7.3718831578     2.8374184954    11.2497839536
Ni      8.6005462667     4.9655512421    11.2497908120
Ni      9.8292052861     7.0936607694    11.2498567936
Ni      8.6005574960     0.7093114655    11.2498664301
Ni      9.8292184281     2.8374251402    11.2498359380
Ni     11.0578737357     4.9655455727    11.2498590000
Ni     12.2865204762     7.0936441225    11.2499127766
Ni      9.8232276538     0.0023838304    13.3021585119
Ni     11.0518796842     2.1301453962    13.3044226395
Ni     12.2801390424     4.2570863396    13.3041979772
Ni     13.5093519682     6.3850872311    13.3030714237
Ni      2.4516814095     0.0020576783    13.3024337250
Ni      3.6801902435     2.1302728804    13.3037324997
Ni      4.9085893528     4.2579587974    13.3048868396
Ni      6.1371294405     6.3859532708    13.3027957326
Ni      4.9086021324     0.0016765195    13.3021173852
Ni      6.1372938348     2.1308283944    13.3050594449
Ni      7.3660618052     4.2582695733    13.3062585188
Ni      8.5943048841     6.3855754363    13.3043563975
Ni      7.3651958364     0.0021995285    13.3017419761
Ni      8.5942588560     2.1303246375    13.3038821005
Ni      9.8232402137     4.2572913280    13.3052237246
Ni     11.0518222037     6.3858180823    13.3029979693
Ni      2.4487139177     1.4221167889    15.3351580299
Ni      3.6767743662     3.5494125714    15.3376320424
Ni      4.9051915005     5.6785039692    15.3361870940
Ni      6.1343491911     7.8075943207    15.3329655083
Ni      4.9057331723     1.4216517522    15.3350825500
Ni      6.1335991295     3.5505217628    15.3374120073
Ni      7.3620966819     5.6792135001    15.3373450961
Ni      8.5913097052     7.8068142928    15.3346502040
Ni      7.3625364640     1.4212897861    15.3353978448
Ni      8.5913768068     3.5490877145    15.3382905709
Ni      9.8201239570     5.6783776414    15.3360003612
Ni     11.0487374194     7.8074239881    15.3340689972
Ni      9.8202291800     1.4217391148    15.3357882354
Ni     11.0488939285     3.5491726411    15.3393192671
Ni     12.2777565480     5.6776217922    15.3351165903
Ni     13.5062737349     7.8065011657    15.3317013183
Ni      1.2156715195     0.7132282702    17.3849785847
Ni      2.4456977011     2.8452592535    17.3899301750
Ni      3.6724850591     4.9719847744    17.3892811797
Ni      4.9030022275     7.1009033682    17.3845397837
Ni      3.6859490767     0.7051873055    17.3784506190
Ni      4.9005609766     2.8382534051    17.3942267361
Ni      6.1242546774     4.9822977175    17.3754991061
Ni      7.3600019043     7.1016082795    17.3888738408
Ni      6.1321856089     0.7109333384    17.3911132170
Ni      7.3627163403     2.8274068724    17.3705351191
Ni      8.5848424181     4.9768242833    17.3787319238
Ni      9.8187656185     7.1028033656    17.3839906047
Ni      8.5911686592     0.7114948785    17.3871821745
Ni      9.8191338427     2.8358393795    17.3874063851
Ni     11.0519637775     4.9768226506    17.3811385397
Ni     12.2766692096     7.0999440896    17.3842016244
O       8.1116874753     3.4416709377    21.4524517353
O       8.7240658940     5.1910310018    19.2245283721
O      10.0719609223     3.9075793546    23.6755229404
C       9.2552068011     4.3003651081    21.4482504778
C       9.7339407595     4.6032049753    20.0165916038
C      10.4040398572     3.7306474301    22.2905949342
H       8.9246826304     5.2381865855    21.9309775785
H      10.0770205287     3.6253937660    19.5709150580
H      10.6353487206     5.2535884855    20.0597570846
H      11.3503091444     4.2562363213    22.0474512057
H      10.5258079424     2.6602044830    22.0431560645
H       8.2271075205     2.7942053900    20.7274600871
H       6.2557510202     3.6113417785    18.3801671702
H      10.8122797951     3.6001723034    24.2198187715
O       2.5140785781     1.4771586644    18.8065485118
H       2.6410994502     1.5167128510    19.7620790331
80
Step 3 | NEB Image 3 | Cartesian Angstrom
Ni      1.2285425455     0.7093183573    11.2498340045
Ni      2.4571542094     2.8374331554    11.2497264275
Ni      3.6857944800     4.9655787459    11.2496541926
Ni      4.9144797803     7.0937227007    11.2496729596
Ni      3.6858442690     0.7092731295    11.2496823544
Ni      4.9144767296     2.8374060997    11.2495281243
Ni      6.1431466338     4.9655830024    11.2494705584
Ni      7.3718469179     7.0937431864    11.2495650226
Ni      6.1432034211     0.7092305714    11.2495833016
Ni      7.3718730380     2.8373778614    11.2494351882
Ni      8.6005615838     4.9655695831    11.2494345144
Ni      9.8292421928     7.0937275359    11.2495868799
Ni      8.6005845627     0.7092251576    11.2496063051
Ni      9.8292746303     2.8373772703    11.2495262063
Ni     11.0579497108     4.9655541058    11.2495756423
Ni     12.2865932041     7.0936909033    11.2497209624
Ni      9.8233525548     0.0021435768    13.3017066942
Ni     11.0520973243     2.1299665605    13.3038460095
Ni     12.2804039911     4.2570380796    13.3036453980
Ni     13.5095757719     6.3851542589    13.3027178600
Ni      2.4515355768     0.0019503993    13.3021443522
Ni      3.6799663908     2.1302224363    13.3031657199
Ni      4.9083463336     4.2580339447    13.3041566834
Ni      6.1369408202     6.3861457367    13.3021041191
Ni      4.9085206266     0.0014470545    13.3015686679
Ni      6.1372002346     2.1306698150    13.3041601750
Ni      7.3659877621     4.2582702460    13.3051724551
Ni      8.5943193504     6.3857774354    13.3034254722
Ni      7.3652227948     0.0019065477    13.3011502169
Ni      8.5943699473     2.1300881651    13.3029892431
Ni      9.8234390522     4.2572254159    13.3042399086
Ni     11.0520533827     6.3859570955    13.3022718638
Ni      2.4479486984     1.4221359522    15.3341495487
Ni      3.6755932189     3.5497768311    15.3357848736
Ni      4.9042968485     5.6791277136    15.3345205706
Ni      6.1337963229     7.8082954224    15.3317010315
Ni      4.9055528779     1.4210703255    15.3322669597
Ni      6.1329967405     3.5505974685    15.3337361129
Ni      7.3613030791     5.6799621045    15.3334855498
Ni      8.5912490875     7.8078849421    15.3324445033
Ni      7.3627235902     1.4200928131    15.3325625665
Ni      8.5919327596     3.5481441003    15.3339733193
Ni      9.8210483936     5.6789472131    15.3319713585
Ni     11.0494389951     7.8082522414    15.3323571974
Ni      9.8208342728     1.4209042480    15.3340524445
Ni     11.0497948388     3.5485356828    15.3371358953
Ni     12.2788331123     5.6778831002    15.3333378739
Ni     13.5067845563     7.8068185362    15.3310855226
Ni      1.2152404129     0.7134104036    17.3849103034
Ni      2.4439647739     2.8446568288    17.3895052133
Ni      3.6694591038     4.9740367192    17.3863866109
Ni      4.9014210217     7.1024001379    17.3830003642
Ni      3.6895750641     0.7008854223    17.3572502173
Ni      4.8905020352     2.8384546185    17.3702207406
Ni      6.1183858801     4.9857618688    17.3627320187
Ni      7.3565476523     7.1078892813    17.3785054253
Ni      6.1327644697     0.7042986414    17.3823486802
Ni      7.3689378514     2.8245680529    17.3465579940
Ni      8.5881610991     4.9698841464    17.3400073605
Ni      9.8219512593     7.1110618516    17.3697634922
Ni      8.5927456388     0.7067721284    17.3813701957
Ni      9.8225091278     2.8323719356    17.3791202179
Ni     11.0616124494     4.9742395562    17.3631991285
Ni     12.2800651614     7.1022415662    17.3807455437
O       8.5829239615     3.2931172294    20.3542384127
O       8.9054858033     5.9047962433    18.9572993300
O       9.3235465275     3.4646990826    23.1824452171
C       9.0254432063     4.4765004744    21.0190126989
C       9.7253566938     5.3706543682    19.9953832636
C      10.0188498987     4.1561279866    22.1329277508
H       8.1616478549     5.0183323902    21.4591487711
H      10.5480627416     4.7582647457    19.5568877292
H      10.1740435714     6.2209833347    20.5290746450
H      10.4673217302     5.0907053666    22.5115872148
H      10.8200947165     3.5198046451    21.7207125987
H       8.3107503045     2.6422503113    21.0227884812
H       6.1187930095     3.5440752864    18.3003078815
H       9.9773370231     3.2329627748    23.8666950760
O       2.4874782609     0.4765858309    18.8745185935
H       2.5323113806     1.1677980400    19.5541134553
80
Step 4 | NEB Image 4 | Cartesian Angstrom
Ni      1.2285435682     0.7093197450    11.2498341252
Ni      2.4571519624     2.8374367774    11.2497054101
Ni      3.6857980944     4.9655889984    11.2496239642
Ni      4.9144852998     7.0937309769    11.2496465782
Ni      3.6858363309     0.7092678022    11.2496510448
Ni      4.9144776974     2.8374069564    11.2494659392
Ni      6.1431556022     4.9655883982    11.2494027218
Ni      7.3718575538     7.0937533935    11.2494977071
Ni      6.1432046825     0.7092144322    11.2495102709
Ni      7.3718886129     2.8373672581    11.2493397660
Ni      8.6005865501     4.9655649597    11.2493303722
Ni      9.8292729830     7.0937386444    11.2494964337
Ni      8.6006029379     0.7091971747    11.2495138605
Ni      9.8293088504     2.8373560180    11.2494186556
Ni     11.0579950221     4.9655468987    11.2494734103
Ni     12.2866358817     7.0937006367    11.2496448401
Ni      9.8234259194     0.0020443491    13.3015052406
Ni     11.0522218810     2.1298908870    13.3036182952
Ni     12.2805466256     4.2569952759    13.3034551431
Ni     13.5096967508     6.3851546277    13.3025774953
Ni      2.4515173983     0.0019550445    13.3021468688
Ni      3.6799197823     2.1302156560    13.3030091181
Ni      4.9083799663     4.2580908170    13.3039714847
Ni      6.1369554123     6.3861641482    13.3019499359
Ni      4.9084962687     0.0013953951    13.3014118946
Ni      6.1372556255     2.1306620474    13.3038961751
Ni      7.3660562591     4.2582444755    13.3049013084
Ni      8.5944015427     6.3857839584    13.3031152108
Ni      7.3652630755     0.0018273940    13.3009266894
Ni      8.5944577958     2.1300242055    13.3027198632
Ni      9.8235805530     4.2571571206    13.3039345754
Ni     11.0522090842     6.3859541878    13.3020139223
Ni      2.4477772796     1.4220931206    15.3342965715
Ni      3.6750652271     3.5502631836    15.3345989855
Ni      4.9045434546     5.6792566748    15.3344219604
Ni      6.1337009283     7.8083974881    15.3312044464
Ni      4.9053460845     1.4207337127    15.3309756072
Ni      6.1338421379     3.5509834793    15.3328934554
Ni      7.3613263199     5.6797453769    15.3323100444
Ni      8.5915344969     7.8082039099    15.3313387124
Ni      7.3632313491     1.4202941591    15.3317954542
Ni      8.5922896884     3.5475150298    15.3329578148
Ni      9.8219942796     5.6787338765    15.3306074016
Ni     11.0500019879     7.8084534144    15.3315687302
Ni      9.8211743132     1.4206325216    15.3333634922
Ni     11.0503461630     3.5483093178    15.3366821287
Ni     12.2792646428     5.6777010003    15.3329950484
Ni     13.5070839489     7.8068830308    15.3308210612
Ni      1.2171521636     0.7140995717    17.3866248525
Ni      2.4431346307     2.8433374654    17.3888260352
Ni      3.6698236696     4.9759996977    17.3853345777
Ni      4.9016396598     7.1021147866    17.3827054351
Ni      3.6811240828     0.7055379463    17.3596159460
Ni      4.8884611241     2.8482744316    17.3430402072
Ni      6.1195062237     4.9794558072    17.3683982645
Ni      7.3559967312     7.1114524529    17.3699197301
Ni      6.1369029681     0.6986279338    17.3703998804
Ni      7.3717715493     2.8326000493    17.3550476362
Ni      8.6009983228     4.9581056624    17.3245312475
Ni      9.8268080427     7.1138518444    17.3610023234
Ni      8.5940256287     0.7051967998    17.3786955802
Ni      9.8256177925     2.8323702551    17.3762196583
Ni     11.0631346141     4.9688545833    17.3665652813
Ni     12.2822124461     7.1023320390    17.3792994664
O       9.0969904886     3.4327665567    20.0010054212
O       7.8475531595     5.7660079151    18.8675604443
O       9.0039036175     3.2693267259    22.8163917337
C       8.5108242863     4.4625372546    20.8137921796
C       8.6108306546     5.7844131575    20.0710113907
C       9.2237567501     4.5245767736    22.1569910756
H       7.4468860682     4.2375353766    20.9844021826
H       9.6775415875     5.9908175633    19.8302890555
H       8.2368205976     6.5992965688    20.7110362706
H       8.8317610406     5.3630854955    22.7573735318
H      10.3070872978     4.6906396170    21.9791454506
H       8.9665608638     2.5807580302    20.4667948596
H       6.1332375514     2.1682915641    18.2905783014
H       9.5949910758     3.2071696527    23.5771030894
O       2.4695821972     0.5036825722    18.9053198466
H       2.4861051118     1.2668957078    19.5112087542
80
Step 5 | NEB Image 5 | Cartesian Angstrom
Ni      1.2286497034     0.7093615225    11.2499999440
Ni      2.4572989609     2.8374461750    11.2499999440
Ni      3.6859482184     4.9655308275    11.2499999440
Ni      4.9145974759     7.0936154800    11.2499999440
Ni      3.6859497034     0.7093615225    11.2499999440
Ni      4.9145989609     2.8374461750    11.2499999440
Ni      6.1432482184     4.9655308275    11.2499999440
Ni      7.3718974759     7.0936154800    11.2499999440
Ni      6.1432497034     0.7093615225    11.2499999440
Ni      7.3718989609     2.8374461750    11.2499999440
Ni      8.6005482184     4.9655308275    11.2499999440
Ni      9.8291974759     7.0936154800    11.2499999440
Ni      8.6005497034     0.7093615225    11.2499999440
Ni      9.8291989609     2.8374461750    11.2499999440
Ni     11.0578482184     4.9655308275    11.2499999440
Ni     12.2864974759     7.0936154800    11.2499999440
Ni      9.8231926870     0.0024995631    13.3023446442
Ni     11.0518089676     2.1302240586    13.3047083557
Ni     12.2800508544     4.2570722939    13.3044621680
Ni     13.5092873083     6.3850384546    13.3032134512
Ni      2.4517696982     0.0021660497    13.3026623307
Ni      3.6803278881     2.1303359107    13.3041135630
Ni      4.9088074938     4.2579363814    13.3054287544
Ni      6.1372745671     6.3857877107    13.3032783798
Ni      4.9086517115     0.0018312594    13.3024060945
Ni      6.1374036838     2.1309748468    13.3056096270
Ni      7.3661495135     4.2582451239    13.3069522585
Ni      8.5943413203     6.3854189562    13.3048451696
Ni      7.3652044956     0.0023769003    13.3020219334
Ni      8.5942385662     2.1304695544    13.3043868044
Ni      9.8231946918     4.2572739512    13.3057506922
Ni     11.0517679695     6.3857120360    13.3033344194
Ni      2.4490339821     1.4222228929    15.3362210124
Ni      3.6772966574     3.5494520554    15.3385526461
Ni      4.9062018672     5.6779299780    15.3378106046
Ni      6.1346571942     7.8070606266    15.3335999053
Ni      4.9058225197     1.4219699914    15.3362206260
Ni      6.1346426084     3.5508505475    15.3401418518
Ni      7.3625330027     5.6784279498    15.3395242568
Ni      8.5915701206     7.8062468470    15.3354851546
Ni      7.3627071376     1.4224398724    15.3370388041
Ni      8.5913286772     3.5492677633    15.3408174188
Ni      9.8201850849     5.6778143804    15.3377746619
Ni     11.0486433115     7.8070023171    15.3347462049
Ni      9.8200953547     1.4222882677    15.3366654644
Ni     11.0486075444     3.5492992589    15.3407265960
Ni     12.2774144623     5.6772885732    15.3359640033
Ni     13.5061541972     7.8063455902    15.3319299253
Ni      1.2187910631     0.7145173608    17.3879334314
Ni      2.4472474227     2.8420654806    17.3934581627
Ni      3.6755426811     4.9714604374    17.3911199588
Ni      4.9045369929     7.0990999797    17.3858410289
Ni      3.6755273590     0.7130852450    17.3897672789
Ni      4.9037000473     2.8423806074    17.3934481142
Ni      6.1319553005     4.9726957480    17.3963328007
Ni      7.3614524743     7.0997441935    17.3897409983
Ni      6.1332850561     0.7119051795    17.3902534707
Ni      7.3623531846     2.8409773484    17.3961534740
Ni      8.5911690953     4.9716069348    17.3936888912
Ni      9.8197669951     7.1000577029    17.3889506467
Ni      8.5911411426     0.7131642395    17.3880087950
Ni      9.8198330590     2.8408219131    17.3957136598
Ni     11.0487030798     4.9704125685    17.3927698418
Ni     12.2763266601     7.0989938309    17.3852102935
O       9.3819344244     4.1358166692    20.0930362367
O       7.4403591999     5.7710500252    18.8010456662
O       8.6054614657     3.3490556865    22.7703843692
C       8.1664603160     4.5686069475    20.7700096311
C       7.7641571257     5.9228005922    20.1887078083
C       8.3912004598     4.6889035721    22.2787219386
H       7.3485584428     3.8274455412    20.5710354409
H       8.5939941550     6.6612606078    20.2727262356
H       6.8675792875     6.3118286823    20.7285291220
H       7.5127131407     5.1500412147    22.7730789076
H       9.2780443246     5.3384479547    22.4478370724
H       9.6348023466     3.2728259917    20.4951539629
H       4.4134518168     1.3599542848    19.7391102444
H       8.7500633813     3.3953291848    23.7317250903
O       3.5190441201     1.0401590876    20.0091886335
H       2.9303167551     1.7729858078    19.7218291788
