80
Step 1 | NEB Image 1 | Cartesian Angstrom
Ni      1.2286497520     0.7093615510    11.2500000000
Ni      2.4572990100     2.8374462050    11.2500000000
Ni      3.6859482670     4.9655308580    11.2500000000
Ni      4.9145975240     7.0936155120    11.2500000000
Ni      3.6859497520     0.7093615510    11.2500000000
Ni      4.9145990100     2.8374462050    11.2500000000
Ni      6.1432482670     4.9655308580    11.2500000000
Ni      7.3718975240     7.0936155120    11.2500000000
Ni      6.1432497520     0.7093615510    11.2500000000
Ni      7.3718990100     2.8374462050    11.2500000000
Ni      8.6005482670     4.9655308580    11.2500000000
Ni      9.8291975240     7.0936155120    11.2500000000
Ni      8.6005497520     0.7093615510    11.2500000000
Ni      9.8291990100     2.8374462050    11.2500000000
Ni     11.0578482670     4.9655308580    11.2500000000
Ni     12.2864975240     7.0936155120    11.2500000000
Ni      9.8231926171     0.0024995243    13.3023445018
Ni     11.0518089828     2.1302240239    13.3047084143
Ni     12.2800508463     4.2570722555    13.3044621731
Ni     13.5092872810     6.3850384707    13.3032135992
Ni      2.4517697468     0.0021660604    13.3026623602
Ni      3.6803279060     2.1303359400    13.3041136817
Ni      4.9088074779     4.2579363993    13.3054287219
Ni      6.1372745399     6.3857876859    13.3032783461
Ni      4.9086517489     0.0018312679    13.3024059973
Ni      6.1374036900     2.1309748259    13.3056096279
Ni      7.3661494965     4.2582451225    13.3069521294
Ni      8.5943412642     6.3854189356    13.3048452032
Ni      7.3652045598     0.0023769347    13.3020218594
Ni      8.5942385870     2.1304695640    13.3043867892
Ni      9.8231946460     4.2572739586    13.3057508082
Ni     11.0517679487     6.3857120742    13.3033345673
Ni      2.4490340007     1.4222228898    15.3362210296
Ni      3.6772966341     3.5494520402    15.3385526486
Ni      4.9062018309     5.6779299863    15.3378107865
Ni      6.1346571371     7.8070605965    15.3335997660
Ni      4.9058225440     1.4219700119    15.3362205140
Ni      6.1346426161     3.5508505239    15.3401416952
Ni      7.3625330181     5.6784279340    15.3395242275
Ni      8.5915701699     7.8062468637    15.3354849978
Ni      7.3627070876     1.4224398614    15.3370387851
Ni      8.5913286878     3.5492678034    15.3408173342
Ni      9.8201850892     5.6778143966    15.3377748313
Ni     11.0486432903     7.8070022870    15.3347461742
Ni      9.8200953687     1.4222882767    15.3366655971
Ni     11.0486075170     3.5492992344    15.3407266613
Ni     12.2774144290     5.6772885475    15.3359640395
Ni     13.5061541408     7.8063455598    15.3319300907
Ni      1.2187910907     0.7145173253    17.3879335108
Ni      2.4472474042     2.8420654675    17.3934583506
Ni      3.6755426414     4.9714604155    17.3911200986
Ni      4.9045370414     7.0991000162    17.3858411419
Ni      3.6755273378     0.7130852300    17.3897672756
Ni      4.9036999828     2.8423805674    17.3934479204
Ni      6.1319552592     4.9726957523    17.3963329095
Ni      7.3614524683     7.0997442315    17.3897409244
Ni      6.1332850858     0.7119051778    17.3902533166
Ni      7.3623531396     2.8409773511    17.3961535169
Ni      8.5911690575     4.9716069245    17.3936889093
Ni      9.8197669708     7.1000576725    17.3889506802
Ni      8.5911411739     0.7131642406    17.3880086894
Ni      9.8198330202     2.8408219279    17.3957136835
Ni     11.0487030817     4.9704125327    17.3927697587
Ni     12.2763266391     7.0989938258    17.3852102912
O       8.9251371547     3.7718626191    21.8184268850
O       8.2856391285     4.9229512085    19.4555245639
O       9.2075287665     5.5577213861    24.1208549146
C       8.7890586869     5.2052027711    21.7895113295
C       9.0784439890     5.7020940863    20.3779856090
C       9.6515589376     5.9211725815    22.8141432585
H       7.7293756442     5.3817804057    22.0278442606
H      10.1474804590     5.6000307635    20.1164095999
H       8.7838187357     6.7504084847    20.2283688646
H       9.5590105667     7.0098663540    22.6449898105
H      10.7134083106     5.6461089342    22.6557665352
H       9.8741227664     3.5482534744    21.8035304548
H       8.2322125213     4.0045331414    19.8060067960
H       9.6829651335     6.0990185004    24.7711400704
O       6.1653810439     2.8377880350    18.9516314119
H       6.1530320207     2.0167345793    19.4830847610
80
Step 2 | NEB Image 2 | Cartesian Angstrom
Ni      1.2286497520     0.7093615510    11.2500000000
Ni      2.4572990100     2.8374462050    11.2500000000
Ni      3.6859482670     4.9655308580    11.2500000000
Ni      4.9145975240     7.0936155120    11.2500000000
Ni      3.6859497520     0.7093615510    11.2500000000
Ni      4.9145990100     2.8374462050    11.2500000000
Ni      6.1432482670     4.9655308580    11.2500000000
Ni      7.3718975240     7.0936155120    11.2500000000
Ni      6.1432497520     0.7093615510    11.2500000000
Ni      7.3718990100     2.8374462050    11.2500000000
Ni      8.6005482670     4.9655308580    11.2500000000
Ni      9.8291975240     7.0936155120    11.2500000000
Ni      8.6005497520     0.7093615510    11.2500000000
Ni      9.8291990100     2.8374462050    11.2500000000
Ni     11.0578482670     4.9655308580    11.2500000000
Ni     12.2864975240     7.0936155120    11.2500000000
Ni      9.8231926171     0.0024995243    13.3023445018
Ni     11.0518089828     2.1302240239    13.3047084143
Ni     12.2800508463     4.2570722555    13.3044621731
Ni     13.5092872810     6.3850384707    13.3032135992
Ni      2.4517697468     0.0021660604    13.3026623602
Ni      3.6803279060     2.1303359400    13.3041136817
Ni      4.9088074779     4.2579363993    13.3054287219
Ni      6.1372745399     6.3857876859    13.3032783461
Ni      4.9086517489     0.0018312679    13.3024059973
Ni      6.1374036900     2.1309748259    13.3056096279
Ni      7.3661494965     4.2582451225    13.3069521294
Ni      8.5943412642     6.3854189356    13.3048452032
Ni      7.3652045598     0.0023769347    13.3020218594
Ni      8.5942385870     2.1304695640    13.3043867892
Ni      9.8231946460     4.2572739586    13.3057508082
Ni     11.0517679487     6.3857120742    13.3033345673
Ni      2.4490340007     1.4222228898    15.3362210296
Ni      3.6772966341     3.5494520402    15.3385526486
Ni      4.9062018309     5.6779299863    15.3378107865
Ni      6.1346571371     7.8070605965    15.3335997660
Ni      4.9058225440     1.4219700119    15.3362205140
Ni      6.1346426161     3.5508505239    15.3401416952
Ni      7.3625330181     5.6784279340    15.3395242275
Ni      8.5915701699     7.8062468637    15.3354849978
Ni      7.3627070876     1.4224398614    15.3370387851
Ni      8.5913286878     3.5492678034    15.3408173342
Ni      9.8201850892     5.6778143966    15.3377748313
Ni     11.0486432903     7.8070022870    15.3347461742
Ni      9.8200953687     1.4222882767    15.3366655971
Ni     11.0486075170     3.5492992344    15.3407266613
Ni     12.2774144290     5.6772885475    15.3359640395
Ni     13.5061541408     7.8063455598    15.3319300907
Ni      1.2187910907     0.7145173253    17.3879335108
Ni      2.4472474042     2.8420654675    17.3934583506
Ni      3.6755426414     4.9714604155    17.3911200986
Ni      4.9045370414     7.0991000162    17.3858411419
Ni      3.6755273378     0.7130852300    17.3897672756
Ni      4.9036999828     2.8423805674    17.3934479204
Ni      6.1319552592     4.9726957523    17.3963329095
Ni      7.3614524683     7.0997442315    17.3897409244
Ni      6.1332850858     0.7119051778    17.3902533166
Ni      7.3623531396     2.8409773511    17.3961535169
Ni      8.5911690575     4.9716069245    17.3936889093
Ni      9.8197669708     7.1000576725    17.3889506802
Ni      8.5911411739     0.7131642406    17.3880086894
Ni      9.8198330202     2.8408219279    17.3957136835
Ni     11.0487030817     4.9704125327    17.3927697587
Ni     12.2763266391     7.0989938258    17.3852102912
O       9.0227084929     3.7386347976    21.7529580327
O       8.2543531940     4.9540937502    19.4012058285
O       9.1836616984     5.4996824190    24.0785699812
C       8.8068467360     5.1681571785    21.7313770222
C       9.0877172325     5.7160419043    20.3609186453
C       9.6343101679     5.9069299478    22.7890368297
H       7.7496560413     5.2847659757    21.9817574295
H      10.1418483056     5.6027022495    20.0631339471
H       8.7992720269     6.7598479446    20.2375768177
H       9.4898387619     6.9932332635    22.6324418620
H      10.7067423919     5.6841979698    22.6393180260
H       9.9615189216     3.5623253830    21.6452747024
H       8.0512536219     4.0779644190    19.7344095005
H       9.6565585013     6.0163750645    24.7481718618
O       6.4316967754     2.8652935054    19.0590430181
H       6.5366695754     2.0086149975    19.5434065389
80
Step 3 | NEB Image 3 | Cartesian Angstrom
Ni      1.2286497520     0.7093615510    11.2500000000
Ni      2.4572990100     2.8374462050    11.2500000000
Ni      3.6859482670     4.9655308580    11.2500000000
Ni      4.9145975240     7.0936155120    11.2500000000
Ni      3.6859497520     0.7093615510    11.2500000000
Ni      4.9145990100     2.8374462050    11.2500000000
Ni      6.1432482670     4.9655308580    11.2500000000
Ni      7.3718975240     7.0936155120    11.2500000000
Ni      6.1432497520     0.7093615510    11.2500000000
Ni      7.3718990100     2.8374462050    11.2500000000
Ni      8.6005482670     4.9655308580    11.2500000000
Ni      9.8291975240     7.0936155120    11.2500000000
Ni      8.6005497520     0.7093615510    11.2500000000
Ni      9.8291990100     2.8374462050    11.2500000000
Ni     11.0578482670     4.9655308580    11.2500000000
Ni     12.2864975240     7.0936155120    11.2500000000
Ni      9.8231926171     0.0024995243    13.3023445018
Ni     11.0518089828     2.1302240239    13.3047084143
Ni     12.2800508463     4.2570722555    13.3044621731
Ni     13.5092872810     6.3850384707    13.3032135992
Ni      2.4517697468     0.0021660604    13.3026623602
Ni      3.6803279060     2.1303359400    13.3041136817
Ni      4.9088074779     4.2579363993    13.3054287219
Ni      6.1372745399     6.3857876859    13.3032783461
Ni      4.9086517489     0.0018312679    13.3024059973
Ni      6.1374036900     2.1309748259    13.3056096279
Ni      7.3661494965     4.2582451225    13.3069521294
Ni      8.5943412642     6.3854189356    13.3048452032
Ni      7.3652045598     0.0023769347    13.3020218594
Ni      8.5942385870     2.1304695640    13.3043867892
Ni      9.8231946460     4.2572739586    13.3057508082
Ni     11.0517679487     6.3857120742    13.3033345673
Ni      2.4490340007     1.4222228898    15.3362210296
Ni      3.6772966341     3.5494520402    15.3385526486
Ni      4.9062018309     5.6779299863    15.3378107865
Ni      6.1346571371     7.8070605965    15.3335997660
Ni      4.9058225440     1.4219700119    15.3362205140
Ni      6.1346426161     3.5508505239    15.3401416952
Ni      7.3625330181     5.6784279340    15.3395242275
Ni      8.5915701699     7.8062468637    15.3354849978
Ni      7.3627070876     1.4224398614    15.3370387851
Ni      8.5913286878     3.5492678034    15.3408173342
Ni      9.8201850892     5.6778143966    15.3377748313
Ni     11.0486432903     7.8070022870    15.3347461742
Ni      9.8200953687     1.4222882767    15.3366655971
Ni     11.0486075170     3.5492992344    15.3407266613
Ni     12.2774144290     5.6772885475    15.3359640395
Ni     13.5061541408     7.8063455598    15.3319300907
Ni      1.2187910907     0.7145173253    17.3879335108
Ni      2.4472474042     2.8420654675    17.3934583506
Ni      3.6755426414     4.9714604155    17.3911200986
Ni      4.9045370414     7.0991000162    17.3858411419
Ni      3.6755273378     0.7130852300    17.3897672756
Ni      4.9036999828     2.8423805674    17.3934479204
Ni      6.1319552592     4.9726957523    17.3963329095
Ni      7.3614524683     7.0997442315    17.3897409244
Ni      6.1332850858     0.7119051778    17.3902533166
Ni      7.3623531396     2.8409773511    17.3961535169
Ni      8.5911690575     4.9716069245    17.3936889093
Ni      9.8197669708     7.1000576725    17.3889506802
Ni      8.5911411739     0.7131642406    17.3880086894
Ni      9.8198330202     2.8408219279    17.3957136835
Ni     11.0487030817     4.9704125327    17.3927697587
Ni     12.2763266391     7.0989938258    17.3852102912
O       9.0671438654     3.7266444038    21.7378433831
O       8.2694401339     4.9620382965    19.3671749447
O       9.1716206297     5.4651427473    24.0464762022
C       8.8488115695     5.1284200719    21.7113102028
C       9.0784579567     5.6930929797    20.3281346638
C       9.6086769144     5.8941872224    22.7712356134
H       7.7431336354     5.2171089707    21.9599182495
H      10.1365135110     5.6146279271    20.0472984606
H       8.7927626732     6.7649965246    20.2535236006
H       9.4432918727     6.9859894654    22.6253380682
H      10.6995404358     5.7071007689    22.6246459663
H      10.0392518737     3.5750185781    21.5706966629
H       7.8782236178     4.1001547783    19.6446267832
H       9.6372879493     5.9866898995    24.7368391655
O       6.8374653258     2.9261833273    19.2198111552
H       6.8454033712     2.0181525920    19.6129964562
80
Step 4 | NEB Image 4 | Cartesian Angstrom
Ni      1.2286497520     0.7093615510    11.2500000000
Ni      2.4572990100     2.8374462050    11.2500000000
Ni      3.6859482670     4.9655308580    11.2500000000
Ni      4.9145975240     7.0936155120    11.2500000000
Ni      3.6859497520     0.7093615510    11.2500000000
Ni      4.9145990100     2.8374462050    11.2500000000
Ni      6.1432482670     4.9655308580    11.2500000000
Ni      7.3718975240     7.0936155120    11.2500000000
Ni      6.1432497520     0.7093615510    11.2500000000
Ni      7.3718990100     2.8374462050    11.2500000000
Ni      8.6005482670     4.9655308580    11.2500000000
Ni      9.8291975240     7.0936155120    11.2500000000
Ni      8.6005497520     0.7093615510    11.2500000000
Ni      9.8291990100     2.8374462050    11.2500000000
Ni     11.0578482670     4.9655308580    11.2500000000
Ni     12.2864975240     7.0936155120    11.2500000000
Ni      9.8231926171     0.0024995243    13.3023445018
Ni     11.0518089828     2.1302240239    13.3047084143
Ni     12.2800508463     4.2570722555    13.3044621731
Ni     13.5092872810     6.3850384707    13.3032135992
Ni      2.4517697468     0.0021660604    13.3026623602
Ni      3.6803279060     2.1303359400    13.3041136817
Ni      4.9088074779     4.2579363993    13.3054287219
Ni      6.1372745399     6.3857876859    13.3032783461
Ni      4.9086517489     0.0018312679    13.3024059973
Ni      6.1374036900     2.1309748259    13.3056096279
Ni      7.3661494965     4.2582451225    13.3069521294
Ni      8.5943412642     6.3854189356    13.3048452032
Ni      7.3652045598     0.0023769347    13.3020218594
Ni      8.5942385870     2.1304695640    13.3043867892
Ni      9.8231946460     4.2572739586    13.3057508082
Ni     11.0517679487     6.3857120742    13.3033345673
Ni      2.4490340007     1.4222228898    15.3362210296
Ni      3.6772966341     3.5494520402    15.3385526486
Ni      4.9062018309     5.6779299863    15.3378107865
Ni      6.1346571371     7.8070605965    15.3335997660
Ni      4.9058225440     1.4219700119    15.3362205140
Ni      6.1346426161     3.5508505239    15.3401416952
Ni      7.3625330181     5.6784279340    15.3395242275
Ni      8.5915701699     7.8062468637    15.3354849978
Ni      7.3627070876     1.4224398614    15.3370387851
Ni      8.5913286878     3.5492678034    15.3408173342
Ni      9.8201850892     5.6778143966    15.3377748313
Ni     11.0486432903     7.8070022870    15.3347461742
Ni      9.8200953687     1.4222882767    15.3366655971
Ni     11.0486075170     3.5492992344    15.3407266613
Ni     12.2774144290     5.6772885475    15.3359640395
Ni     13.5061541408     7.8063455598    15.3319300907
Ni      1.2187910907     0.7145173253    17.3879335108
Ni      2.4472474042     2.8420654675    17.3934583506
Ni      3.6755426414     4.9714604155    17.3911200986
Ni      4.9045370414     7.0991000162    17.3858411419
Ni      3.6755273378     0.7130852300    17.3897672756
Ni      4.9036999828     2.8423805674    17.3934479204
Ni      6.1319552592     4.9726957523    17.3963329095
Ni      7.3614524683     7.0997442315    17.3897409244
Ni      6.1332850858     0.7119051778    17.3902533166
Ni      7.3623531396     2.8409773511    17.3961535169
Ni      8.5911690575     4.9716069245    17.3936889093
Ni      9.8197669708     7.1000576725    17.3889506802
Ni      8.5911411739     0.7131642406    17.3880086894
Ni      9.8198330202     2.8408219279    17.3957136835
Ni     11.0487030817     4.9704125327    17.3927697587
Ni     12.2763266391     7.0989938258    17.3852102912
O       9.1769902575     3.7037275916    21.6763016608
O       8.3006765245     4.9850211055    19.3064272615
O       9.1578706662     5.4213117495    24.0138912114
C       8.8428463769     5.1040003202    21.6617520780
C       9.0642499310     5.6963793136    20.2711523249
C       9.5908071324     5.8856294790    22.7297713812
H       7.7680874852     5.1380597384    21.9003228749
H      10.1425034294     5.6482155908    20.0008147969
H       8.7671539993     6.7631360006    20.2420903129
H       9.3842348833     6.9663322337    22.6082982815
H      10.6833723223     5.7356653503    22.5990467318
H      10.0969347096     3.6077657399    21.4790309485
H       7.7623894433     3.9058509514    19.5382636158
H       9.5953097665     5.9283937038    24.6929821802
O       7.0567059583     2.9614812430    19.3240551030
H       7.3079640667     2.1798311624    19.7819149535
80
Step 5 | NEB Image 5 | Cartesian Angstrom
Ni      1.2286497520     0.7093615510    11.2500000000
Ni      2.4572990100     2.8374462050    11.2500000000
Ni      3.6859482670     4.9655308580    11.2500000000
Ni      4.9145975240     7.0936155120    11.2500000000
Ni      3.6859497520     0.7093615510    11.2500000000
Ni      4.9145990100     2.8374462050    11.2500000000
Ni      6.1432482670     4.9655308580    11.2500000000
Ni      7.3718975240     7.0936155120    11.2500000000
Ni      6.1432497520     0.7093615510    11.2500000000
Ni      7.3718990100     2.8374462050    11.2500000000
Ni      8.6005482670     4.9655308580    11.2500000000
Ni      9.8291975240     7.0936155120    11.2500000000
Ni      8.6005497520     0.7093615510    11.2500000000
Ni      9.8291990100     2.8374462050    11.2500000000
Ni     11.0578482670     4.9655308580    11.2500000000
Ni     12.2864975240     7.0936155120    11.2500000000
Ni      9.8231926171     0.0024995243    13.3023445018
Ni     11.0518089828     2.1302240239    13.3047084143
Ni     12.2800508463     4.2570722555    13.3044621731
Ni     13.5092872810     6.3850384707    13.3032135992
Ni      2.4517697468     0.0021660604    13.3026623602
Ni      3.6803279060     2.1303359400    13.3041136817
Ni      4.9088074779     4.2579363993    13.3054287219
Ni      6.1372745399     6.3857876859    13.3032783461
Ni      4.9086517489     0.0018312679    13.3024059973
Ni      6.1374036900     2.1309748259    13.3056096279
Ni      7.3661494965     4.2582451225    13.3069521294
Ni      8.5943412642     6.3854189356    13.3048452032
Ni      7.3652045598     0.0023769347    13.3020218594
Ni      8.5942385870     2.1304695640    13.3043867892
Ni      9.8231946460     4.2572739586    13.3057508082
Ni     11.0517679487     6.3857120742    13.3033345673
Ni      2.4490340007     1.4222228898    15.3362210296
Ni      3.6772966341     3.5494520402    15.3385526486
Ni      4.9062018309     5.6779299863    15.3378107865
Ni      6.1346571371     7.8070605965    15.3335997660
Ni      4.9058225440     1.4219700119    15.3362205140
Ni      6.1346426161     3.5508505239    15.3401416952
Ni      7.3625330181     5.6784279340    15.3395242275
Ni      8.5915701699     7.8062468637    15.3354849978
Ni      7.3627070876     1.4224398614    15.3370387851
Ni      8.5913286878     3.5492678034    15.3408173342
Ni      9.8201850892     5.6778143966    15.3377748313
Ni     11.0486432903     7.8070022870    15.3347461742
Ni      9.8200953687     1.4222882767    15.3366655971
Ni     11.0486075170     3.5492992344    15.3407266613
Ni     12.2774144290     5.6772885475    15.3359640395
Ni     13.5061541408     7.8063455598    15.3319300907
Ni      1.2187910907     0.7145173253    17.3879335108
Ni      2.4472474042     2.8420654675    17.3934583506
Ni      3.6755426414     4.9714604155    17.3911200986
Ni      4.9045370414     7.0991000162    17.3858411419
Ni      3.6755273378     0.7130852300    17.3897672756
Ni      4.9036999828     2.8423805674    17.3934479204
Ni      6.1319552592     4.9726957523    17.3963329095
Ni      7.3614524683     7.0997442315    17.3897409244
Ni      6.1332850858     0.7119051778    17.3902533166
Ni      7.3623531396     2.8409773511    17.3961535169
Ni      8.5911690575     4.9716069245    17.3936889093
Ni      9.8197669708     7.1000576725    17.3889506802
Ni      8.5911411739     0.7131642406    17.3880086894
Ni      9.8198330202     2.8408219279    17.3957136835
Ni     11.0487030817     4.9704125327    17.3927697587
Ni     12.2763266391     7.0989938258    17.3852102912
O       9.3045527771     3.7133575323    21.5014801328
O       8.2676799813     5.1067567422    19.2490910386
O       9.1290199374     5.3031558564    23.9330297823
C       8.8881682347     5.0877601593    21.5636972024
C       9.0744650723     5.7741455547    20.2108696172
C       9.5605972026     5.8609600029    22.6899133488
H       7.8101129966     5.0363799002    21.7823565066
H      10.1427716634     5.7393274690    19.9134421831
H       8.7891110085     6.8405022187    20.2658700948
H       9.2748252532     6.9256750790    22.6069801659
H      10.6607265066     5.7971487966    22.5795174168
H      10.2555622390     3.6921116131    21.2897718573
H       7.7255009436     3.7818408526    19.5489249549
H       9.5087506460     5.8278663638    24.6556475781
O       7.2643301131     2.8500978930    19.4130110797
H       7.8626355014     2.1992220207    19.8252374204
