80
Step 1 | NEB Image 1 | Cartesian Angstrom
Ni      1.2286497034     0.7093615225    11.2499999440
Ni      2.4572989609     2.8374461750    11.2499999440
Ni      3.6859482184     4.9655308275    11.2499999440
Ni      4.9145974759     7.0936154800    11.2499999440
Ni      3.6859497034     0.7093615225    11.2499999440
Ni      4.9145989609     2.8374461750    11.2499999440
Ni      6.1432482184     4.9655308275    11.2499999440
Ni      7.3718974759     7.0936154800    11.2499999440
Ni      6.1432497034     0.7093615225    11.2499999440
Ni      7.3718989609     2.8374461750    11.2499999440
Ni      8.6005482184     4.9655308275    11.2499999440
Ni      9.8291974759     7.0936154800    11.2499999440
Ni      8.6005497034     0.7093615225    11.2499999440
Ni      9.8291989609     2.8374461750    11.2499999440
Ni     11.0578482184     4.9655308275    11.2499999440
Ni     12.2864974759     7.0936154800    11.2499999440
Ni      9.8231926870     0.0024995631    13.3023446442
Ni     11.0518089676     2.1302240586    13.3047083557
Ni     12.2800508544     4.2570722939    13.3044621680
Ni     13.5092873083     6.3850384546    13.3032134512
Ni      2.4517696982     0.0021660497    13.3026623307
Ni      3.6803278881     2.1303359107    13.3041135630
Ni      4.9088074938     4.2579363814    13.3054287544
Ni      6.1372745671     6.3857877107    13.3032783798
Ni      4.9086517115     0.0018312594    13.3024060945
Ni      6.1374036838     2.1309748468    13.3056096270
Ni      7.3661495135     4.2582451239    13.3069522585
Ni      8.5943413203     6.3854189562    13.3048451696
Ni      7.3652044956     0.0023769003    13.3020219334
Ni      8.5942385662     2.1304695544    13.3043868044
Ni      9.8231946918     4.2572739512    13.3057506922
Ni     11.0517679695     6.3857120360    13.3033344194
Ni      2.4490339821     1.4222228929    15.3362210124
Ni      3.6772966574     3.5494520554    15.3385526461
Ni      4.9062018672     5.6779299780    15.3378106046
Ni      6.1346571942     7.8070606266    15.3335999053
Ni      4.9058225197     1.4219699914    15.3362206260
Ni      6.1346426084     3.5508505475    15.3401418518
Ni      7.3625330027     5.6784279498    15.3395242568
Ni      8.5915701206     7.8062468470    15.3354851546
Ni      7.3627071376     1.4224398724    15.3370388041
Ni      8.5913286772     3.5492677633    15.3408174188
Ni      9.8201850849     5.6778143804    15.3377746619
Ni     11.0486433115     7.8070023171    15.3347462049
Ni      9.8200953547     1.4222882677    15.3366654644
Ni     11.0486075444     3.5492992589    15.3407265960
Ni     12.2774144623     5.6772885732    15.3359640033
Ni     13.5061541972     7.8063455902    15.3319299253
Ni      1.2187910631     0.7145173608    17.3879334314
Ni      2.4472474227     2.8420654806    17.3934581627
Ni      3.6755426811     4.9714604374    17.3911199588
Ni      4.9045369929     7.0990999797    17.3858410289
Ni      3.6755273590     0.7130852450    17.3897672789
Ni      4.9037000473     2.8423806074    17.3934481142
Ni      6.1319553005     4.9726957480    17.3963328007
Ni      7.3614524743     7.0997441935    17.3897409983
Ni      6.1332850561     0.7119051795    17.3902534707
Ni      7.3623531846     2.8409773484    17.3961534740
Ni      8.5911690953     4.9716069348    17.3936888912
Ni      9.8197669951     7.1000577029    17.3889506467
Ni      8.5911411426     0.7131642395    17.3880087950
Ni      9.8198330590     2.8408219131    17.3957136598
Ni     11.0487030798     4.9704125685    17.3927698418
Ni     12.2763266601     7.0989938309    17.3852102935
O       8.1853233808     3.4574048182    21.7117206478
O       8.5869329741     5.0599815235    19.5762271001
O      10.2109211163     3.6451020548    23.8826602062
C       9.3606393600     4.2890487236    21.7367471584
C       9.7574736302     4.6321502783    20.3055951979
C      10.5272793641     3.6720453941    22.4918474794
H       9.0423459569     5.1976070563    22.2680419510
H      10.2036708160     3.7499198429    19.8025973096
H      10.4835571337     5.4542343167    20.2475656164
H      11.4351836342     4.2717022800    22.2942344717
H      10.7115000118     2.6514065461    22.0984614952
H       8.4384371395     2.5707271966    21.3925898339
H       7.8511829079     4.4818016084    19.8831003151
H      11.0040911060     3.3843978098    24.3788521822
O       2.4676593393     1.4045078651    18.8058894197
H       2.5804189712     1.3115658959    19.7657035449
80
Step 2 | NEB Image 2 | Cartesian Angstrom
Ni      1.2285497567     0.7093184261    11.2498422937
Ni      2.4571641529     2.8374312119    11.2497439502
Ni      3.6858032801     4.9655736800    11.2496778008
Ni      4.9144869559     7.0937157904    11.2496983625
Ni      3.6858553766     0.7092779425    11.2497142664
Ni      4.9144861884     2.8374063237    11.2495749631
Ni      6.1431532444     4.9655787278    11.2495234489
Ni      7.3718491640     7.0937323026    11.2496168045
Ni      6.1432070372     0.7092429941    11.2496389364
Ni      7.3718715056     2.8373851468    11.2495055180
Ni      8.6005542190     4.9655692172    11.2495105600
Ni      9.8292291770     7.0937155456    11.2496500740
Ni      8.6005757926     0.7092438166    11.2496688474
Ni      9.8292576326     2.8373900845    11.2495988464
Ni     11.0579264530     4.9655558625    11.2496453991
Ni     12.2865704327     7.0936813754    11.2497712018
Ni      9.8233118166     0.0022041766    13.3018321086
Ni     11.0520298839     2.1300143751    13.3039885141
Ni     12.2803227166     4.2570638453    13.3037851973
Ni     13.5095035778     6.3851434963    13.3028171716
Ni      2.4515655439     0.0019566836    13.3021843001
Ni      3.6800117727     2.1302211185    13.3032692133
Ni      4.9083702286     4.2580098309    13.3042715317
Ni      6.1369681555     6.3861238705    13.3022237689
Ni      4.9085374014     0.0014886963    13.3016977558
Ni      6.1371998156     2.1306841616    13.3043440788
Ni      7.3659869465     4.2582789575    13.3053836567
Ni      8.5942994945     6.3857483698    13.3036451942
Ni      7.3652079819     0.0019670850    13.3013011494
Ni      8.5943296484     2.1301363954    13.3031868400
Ni      9.8233703567     4.2572600327    13.3044681882
Ni     11.0519740534     6.3859365602    13.3024594766
Ni      2.4481580488     1.4220900264    15.3341919088
Ni      3.6759082466     3.5496050154    15.3362430041
Ni      4.9043092902     5.6790697785    15.3346411012
Ni      6.1339197454     7.8081905341    15.3320106782
Ni      4.9055984864     1.4212040051    15.3330566414
Ni      6.1328691862     3.5504442234    15.3343130192
Ni      7.3614810803     5.6799302355    15.3343406920
Ni      8.5911787877     7.8076344477    15.3330842257
Ni      7.3625792192     1.4201830163    15.3331755847
Ni      8.5917125172     3.5484827161    15.3348954331
Ni      9.8206286539     5.6789109615    15.3330451623
Ni     11.0491721910     7.8080525896    15.3328426194
Ni      9.8206242364     1.4210613853    15.3344752723
Ni     11.0495131124     3.5487608829    15.3375552171
Ni     12.2784981783     5.6778940336    15.3337868576
Ni     13.5066095072     7.8067399732    15.3312653958
Ni      1.2142854328     0.7128644186    17.3838628847
Ni      2.4441455878     2.8460703481    17.3884208989
Ni      3.6696342356     4.9733435175    17.3869557282
Ni      4.9015349747     7.1024189886    17.3831846722
Ni      3.6918584982     0.6998248401    17.3621138093
Ni      4.8936365851     2.8368085424    17.3808501108
Ni      6.1180854870     4.9878020620    17.3605851717
Ni      7.3574888598     7.1058796401    17.3826388847
Ni      6.1320922967     0.7067950154    17.3864522220
Ni      7.3664191109     2.8208228179    17.3474019633
Ni      8.5843838541     4.9747834176    17.3511007972
Ni      9.8202079443     7.1085402712    17.3740555533
Ni      8.5920796189     0.7081782914    17.3835480401
Ni      9.8208080363     2.8320439418    17.3796537645
Ni     11.0586989451     4.9776781172    17.3665646542
Ni     12.2787375684     7.1016124747    17.3818534543
O       8.0742927926     3.3148355069    21.2338710226
O       8.5716906928     5.2830719365    19.1723235361
O       9.7356903140     3.8211193868    23.6387233634
C       9.0443167815     4.3563479623    21.3933314922
C       9.5954929389     4.8490496913    20.0419812104
C      10.2102630896     3.9283546942    22.2847965187
H       8.5059554526     5.1692816394    21.8851347007
H      10.1864313015     4.0133985173    19.5874340512
H      10.3177628567     5.6756274864    20.2252869425
H      11.0223610196     4.6742859467    22.2167026541
H      10.6010860938     2.9589741705    21.9273891239
H       8.4435450334     2.6348150758    20.6295546423
H       6.1406164811     3.5426118073    18.3103922483
H      10.4736238173     3.5661638262    24.2023525463
O       2.5178906589     1.4397216402    18.7943210463
H       2.6456071740     1.4503281920    19.7485804862
80
Step 3 | NEB Image 3 | Cartesian Angstrom
Ni      1.2285178151     0.7093111589    11.2497986206
Ni      2.4571207628     2.8374327869    11.2496652206
Ni      3.6857604347     4.9655911545    11.2495755398
Ni      4.9144531612     7.0937467335    11.2495954346
Ni      3.6858163600     0.7092541255    11.2496001437
Ni      4.9144473090     2.8373992773    11.2494072455
Ni      6.1431230602     4.9655955393    11.2493345125
Ni      7.3718359465     7.0937744212    11.2494455209
Ni      6.1431922075     0.7091975440    11.2494632326
Ni      7.3718696223     2.8373599318    11.2492773081
Ni      8.6005699601     4.9655764959    11.2492712522
Ni      9.8292610389     7.0937572629    11.2494606842
Ni      8.6005981402     0.7091855942    11.2494840237
Ni      9.8293023347     2.8373542420    11.2493814805
Ni     11.0579873500     4.9655564974    11.2494416315
Ni     12.2866295342     7.0937122550    11.2496289135
Ni      9.8234158159     0.0020296832    13.3014869907
Ni     11.0522057951     2.1298804097    13.3035738024
Ni     12.2805359641     4.2570088660    13.3033816804
Ni     13.5096891222     6.3851838584    13.3025446080
Ni      2.4514683813     0.0019086589    13.3020198806
Ni      3.6798643343     2.1302054559    13.3029149813
Ni      4.9082456809     4.2580712779    13.3038428705
Ni      6.1368584688     6.3862251970    13.3018002054
Ni      4.9084836327     0.0013452030    13.3013106911
Ni      6.1371648885     2.1306060057    13.3037524498
Ni      7.3659590594     4.2582668756    13.3046839302
Ni      8.5943317779     6.3858646185    13.3029892140
Ni      7.3652386745     0.0017731013    13.3008679504
Ni      8.5944274698     2.1299807971    13.3025767027
Ni      9.8235408128     4.2571862217    13.3037800476
Ni     11.0521717637     6.3860176784    13.3019235626
Ni      2.4475713487     1.4221690506    15.3337619074
Ni      3.6750257782     3.5499786044    15.3349305213
Ni      4.9039616823     5.6793755110    15.3338668390
Ni      6.1335374070     7.8085969398    15.3311055252
Ni      4.9054727027     1.4208055411    15.3308949434
Ni      6.1328161540     3.5506906543    15.3321533048
Ni      7.3609244826     5.6802544429    15.3317021832
Ni      8.5912534974     7.8083870352    15.3313622277
Ni      7.3628467668     1.4196102976    15.3312566820
Ni      8.5922339035     3.5476527223    15.3319847260
Ni      9.8215634456     5.6791780155    15.3300184651
Ni     11.0498085093     7.8086456443    15.3315203451
Ni      9.8211481432     1.4205340673    15.3332364616
Ni     11.0502437679     3.5481977563    15.3361528996
Ni     12.2793778657     5.6779776737    15.3324785995
Ni     13.5070478171     7.8069708919    15.3307808944
Ni      1.2155196877     0.7137390398    17.3853761411
Ni      2.4432848487     2.8437405633    17.3899608266
Ni      3.6682734247     4.9750580758    17.3850946263
Ni      4.9007883178     7.1029345249    17.3823657667
Ni      3.6899885489     0.6997319028    17.3470076569
Ni      4.8853286616     2.8390076678    17.3570964177
Ni      6.1164115154     4.9861607432    17.3591039767
Ni      7.3548372721     7.1110548242    17.3729534753
Ni      6.1331619303     0.7008325467    17.3775200904
Ni      7.3723838129     2.8252328832    17.3372263433
Ni      8.5908404501     4.9652730097    17.3209203361
Ni      9.8238200189     7.1152363203    17.3627601117
Ni      8.5936110614     0.7044032247    17.3782457378
Ni      9.8244937190     2.8313127553    17.3760026305
Ni     11.0665426777     4.9717009235    17.3548774605
Ni     12.2818965186     7.1033920002    17.3789817315
O       8.6218929788     3.1194891313    20.4455589758
O       8.3629096219     5.6406133199    19.0328126857
O       9.2903151956     3.4207076983    23.2521564357
C       8.8162781718     4.3755292083    21.1055595982
C       9.2931873909     5.3900659698    20.0756704765
C       9.8471154768     4.2558159952    22.2200969076
H       7.8595435356     4.7226930961    21.5461242597
H      10.2533769416     5.0181825409    19.6544831422
H       9.4993396768     6.3456687160    20.5900040219
H      10.0957687251     5.2545742820    22.6144404145
H      10.7633731935     3.7982240978    21.8061374060
H       8.4690176978     2.4435913337    21.1291026660
H       6.0956795360     3.5234161238    18.2867398091
H       9.9652948348     3.2849270154    23.9322565878
O       2.4899723394     0.5066845962    18.8777782288
H       2.5255012964     1.2405954755    19.5237366265
80
Step 4 | NEB Image 4 | Cartesian Angstrom
Ni      1.2285516620     0.7093228604    11.2498461299
Ni      2.4571623519     2.8374380103    11.2497222976
Ni      3.6858098791     4.9655868540    11.2496448943
Ni      4.9144947962     7.0937243583    11.2496670377
Ni      3.6858433218     0.7092733989    11.2496707889
Ni      4.9144870279     2.8374097983    11.2494927716
Ni      6.1431644969     4.9655852952    11.2494331647
Ni      7.3718628326     7.0937452871    11.2495217858
Ni      6.1432083584     0.7092219933    11.2495326382
Ni      7.3718926146     2.8373709467    11.2493701086
Ni      8.6005887712     4.9655616048    11.2493600003
Ni      9.8292734190     7.0937316111    11.2495166406
Ni      8.6006025455     0.7092039071    11.2495323865
Ni      9.8293073297     2.8373586668    11.2494412531
Ni     11.0579928431     4.9655444006    11.2494932219
Ni     12.2866337298     7.0936961015    11.2496569377
Ni      9.8234223677     0.0020590928    13.3015297425
Ni     11.0522148967     2.1299013613    13.3036555318
Ni     12.2805366678     4.2569936000    13.3034948757
Ni     13.5096887046     6.3851457995    13.3025992391
Ni      2.4515333908     0.0019708746    13.3021861474
Ni      3.6799414958     2.1302220654    13.3030590731
Ni      4.9084186030     4.2580906118    13.3040398993
Ni      6.1369829072     6.3861407379    13.3020171290
Ni      4.9085030146     0.0014174521    13.3014571036
Ni      6.1372778381     2.1306827773    13.3039714321
Ni      7.3660776772     4.2582396913    13.3050004439
Ni      8.5944137347     6.3857579130    13.3031850196
Ni      7.3652665711     0.0018529197    13.3009660879
Ni      8.5944584541     2.1300448483    13.3027922389
Ni      9.8235790235     4.2571533614    13.3040121502
Ni     11.0522059023     6.3859351662    13.3020645879
Ni      2.4478452158     1.4220874696    15.3344626907
Ni      3.6751301194     3.5502991703    15.3346477265
Ni      4.9047107965     5.6791904409    15.3346396603
Ni      6.1337566726     7.8083196687    15.3312867603
Ni      4.9053367247     1.4207555694    15.3311220854
Ni      6.1340707019     3.5510445029    15.3332518244
Ni      7.3614309768     5.6796055028    15.3326211150
Ni      8.5915930903     7.8081176028    15.3314372152
Ni      7.3632941999     1.4204922101    15.3320400854
Ni      8.5922817396     3.5475278056    15.3333547719
Ni      9.8220397889     5.6786209611    15.3308962419
Ni     11.0500084145     7.8083800951    15.3316568324
Ni      9.8211557687     1.4206993899    15.3334755479
Ni     11.0503229721     3.5483488021    15.3368959451
Ni     12.2792017283     5.6776339551    15.3331646159
Ni     13.5070700107     7.8068531621    15.3308552848
Ni      1.2175877923     0.7142239057    17.3869847546
Ni      2.4432442375     2.8431063464    17.3888716454
Ni      3.6703063793     4.9760601849    17.3855474755
Ni      4.9018944078     7.1018512097    17.3828691326
Ni      3.6791059407     0.7069688042    17.3626720779
Ni      4.8893557048     2.8498942488    17.3414767039
Ni      6.1205584129     4.9778119626    17.3713071857
Ni      7.3563380919     7.1112512007    17.3697682784
Ni      6.1375119057     0.6985158792    17.3694984549
Ni      7.3715079763     2.8345581824    17.3597809051
Ni      8.6028034177     4.9568998350    17.3268793182
Ni      9.8272354833     7.1132850541    17.3613729214
Ni      8.5940477236     0.7055269650    17.3789518577
Ni      9.8257444988     2.8329018302    17.3769356484
Ni     11.0622017342     4.9681195646    17.3694229834
Ni     12.2821573619     7.1020626774    17.3794894035
O       9.1469906987     3.4320097555    20.0604458097
O       7.7794274066     5.7099266562    18.8666293695
O       8.9697625389     3.2861990662    22.8709341300
C       8.4667781838     4.4313171286    20.8416132443
C       8.5025999618     5.7556985714    20.0991644363
C       9.1300797531     4.5509869331    22.2058155385
H       7.4088600591     4.1315513206    20.9809066951
H       9.5644999206     6.0257621929    19.8879354754
H       8.0622681872     6.5429778321    20.7281113194
H       8.6556261652     5.3653300108    22.7893218975
H      10.1998940414     4.7873480984    22.0661480662
H       9.0974265478     2.5913736728    20.5573917796
H       6.1267441013     2.1604034121    18.2927864744
H       9.5206886459     3.2799141664    23.6660493992
O       2.4739943173     0.5213602319    18.9107853311
H       2.5001196344     1.3051950593    19.4986747399
80
Step 5 | NEB Image 5 | Cartesian Angstrom
Ni      1.2286497034     0.7093615225    11.2499999440
Ni      2.4572989609     2.8374461750    11.2499999440
Ni      3.6859482184     4.9655308275    11.2499999440
Ni      4.9145974759     7.0936154800    11.2499999440
Ni      3.6859497034     0.7093615225    11.2499999440
Ni      4.9145989609     2.8374461750    11.2499999440
Ni      6.1432482184     4.9655308275    11.2499999440
Ni      7.3718974759     7.0936154800    11.2499999440
Ni      6.1432497034     0.7093615225    11.2499999440
Ni      7.3718989609     2.8374461750    11.2499999440
Ni      8.6005482184     4.9655308275    11.2499999440
Ni      9.8291974759     7.0936154800    11.2499999440
Ni      8.6005497034     0.7093615225    11.2499999440
Ni      9.8291989609     2.8374461750    11.2499999440
Ni     11.0578482184     4.9655308275    11.2499999440
Ni     12.2864974759     7.0936154800    11.2499999440
Ni      9.8231926870     0.0024995631    13.3023446442
Ni     11.0518089676     2.1302240586    13.3047083557
Ni     12.2800508544     4.2570722939    13.3044621680
Ni     13.5092873083     6.3850384546    13.3032134512
Ni      2.4517696982     0.0021660497    13.3026623307
Ni      3.6803278881     2.1303359107    13.3041135630
Ni      4.9088074938     4.2579363814    13.3054287544
Ni      6.1372745671     6.3857877107    13.3032783798
Ni      4.9086517115     0.0018312594    13.3024060945
Ni      6.1374036838     2.1309748468    13.3056096270
Ni      7.3661495135     4.2582451239    13.3069522585
Ni      8.5943413203     6.3854189562    13.3048451696
Ni      7.3652044956     0.0023769003    13.3020219334
Ni      8.5942385662     2.1304695544    13.3043868044
Ni      9.8231946918     4.2572739512    13.3057506922
Ni     11.0517679695     6.3857120360    13.3033344194
Ni      2.4490339821     1.4222228929    15.3362210124
Ni      3.6772966574     3.5494520554    15.3385526461
Ni      4.9062018672     5.6779299780    15.3378106046
Ni      6.1346571942     7.8070606266    15.3335999053
Ni      4.9058225197     1.4219699914    15.3362206260
Ni      6.1346426084     3.5508505475    15.3401418518
Ni      7.3625330027     5.6784279498    15.3395242568
Ni      8.5915701206     7.8062468470    15.3354851546
Ni      7.3627071376     1.4224398724    15.3370388041
Ni      8.5913286772     3.5492677633    15.3408174188
Ni      9.8201850849     5.6778143804    15.3377746619
Ni     11.0486433115     7.8070023171    15.3347462049
Ni      9.8200953547     1.4222882677    15.3366654644
Ni     11.0486075444     3.5492992589    15.3407265960
Ni     12.2774144623     5.6772885732    15.3359640033
Ni     13.5061541972     7.8063455902    15.3319299253
Ni      1.2187910631     0.7145173608    17.3879334314
Ni      2.4472474227     2.8420654806    17.3934581627
Ni      3.6755426811     4.9714604374    17.3911199588
Ni      4.9045369929     7.0990999797    17.3858410289
Ni      3.6755273590     0.7130852450    17.3897672789
Ni      4.9037000473     2.8423806074    17.3934481142
Ni      6.1319553005     4.9726957480    17.3963328007
Ni      7.3614524743     7.0997441935    17.3897409983
Ni      6.1332850561     0.7119051795    17.3902534707
Ni      7.3623531846     2.8409773484    17.3961534740
Ni      8.5911690953     4.9716069348    17.3936888912
Ni      9.8197669951     7.1000577029    17.3889506467
Ni      8.5911411426     0.7131642395    17.3880087950
Ni      9.8198330590     2.8408219131    17.3957136598
Ni     11.0487030798     4.9704125685    17.3927698418
Ni     12.2763266601     7.0989938309    17.3852102935
O       9.3819344244     4.1358166692    20.0930362367
O       7.4403591999     5.7710500252    18.8010456662
O       8.6054614657     3.3490556865    22.7703843692
C       8.1664603160     4.5686069475    20.7700096311
C       7.7641571257     5.9228005922    20.1887078083
C       8.3912004598     4.6889035721    22.2787219386
H       7.3485584428     3.8274455412    20.5710354409
H       8.5939941550     6.6612606078    20.2727262356
H       6.8675792875     6.3118286823    20.7285291220
H       7.5127131407     5.1500412147    22.7730789076
H       9.2780443246     5.3384479547    22.4478370724
H       9.6348023466     3.2728259917    20.4951539629
H       4.4134518168     1.3599542848    19.7391102444
H       8.7500633813     3.3953291848    23.7317250903
O       3.5190441201     1.0401590876    20.0091886335
H       2.9303167551     1.7729858078    19.7218291788
