80
Step 1 | NEB Image 1 | Cartesian Angstrom
Ni      1.2286497034     0.7093615225    11.2499999440
Ni      2.4572989609     2.8374461750    11.2499999440
Ni      3.6859482184     4.9655308275    11.2499999440
Ni      4.9145974759     7.0936154800    11.2499999440
Ni      3.6859497034     0.7093615225    11.2499999440
Ni      4.9145989609     2.8374461750    11.2499999440
Ni      6.1432482184     4.9655308275    11.2499999440
Ni      7.3718974759     7.0936154800    11.2499999440
Ni      6.1432497034     0.7093615225    11.2499999440
Ni      7.3718989609     2.8374461750    11.2499999440
Ni      8.6005482184     4.9655308275    11.2499999440
Ni      9.8291974759     7.0936154800    11.2499999440
Ni      8.6005497034     0.7093615225    11.2499999440
Ni      9.8291989609     2.8374461750    11.2499999440
Ni     11.0578482184     4.9655308275    11.2499999440
Ni     12.2864974759     7.0936154800    11.2499999440
Ni      9.8231926870     0.0024995631    13.3023446442
Ni     11.0518089676     2.1302240586    13.3047083557
Ni     12.2800508544     4.2570722939    13.3044621680
Ni     13.5092873083     6.3850384546    13.3032134512
Ni      2.4517696982     0.0021660497    13.3026623307
Ni      3.6803278881     2.1303359107    13.3041135630
Ni      4.9088074938     4.2579363814    13.3054287544
Ni      6.1372745671     6.3857877107    13.3032783798
Ni      4.9086517115     0.0018312594    13.3024060945
Ni      6.1374036838     2.1309748468    13.3056096270
Ni      7.3661495135     4.2582451239    13.3069522585
Ni      8.5943413203     6.3854189562    13.3048451696
Ni      7.3652044956     0.0023769003    13.3020219334
Ni      8.5942385662     2.1304695544    13.3043868044
Ni      9.8231946918     4.2572739512    13.3057506922
Ni     11.0517679695     6.3857120360    13.3033344194
Ni      2.4490339821     1.4222228929    15.3362210124
Ni      3.6772966574     3.5494520554    15.3385526461
Ni      4.9062018672     5.6779299780    15.3378106046
Ni      6.1346571942     7.8070606266    15.3335999053
Ni      4.9058225197     1.4219699914    15.3362206260
Ni      6.1346426084     3.5508505475    15.3401418518
Ni      7.3625330027     5.6784279498    15.3395242568
Ni      8.5915701206     7.8062468470    15.3354851546
Ni      7.3627071376     1.4224398724    15.3370388041
Ni      8.5913286772     3.5492677633    15.3408174188
Ni      9.8201850849     5.6778143804    15.3377746619
Ni     11.0486433115     7.8070023171    15.3347462049
Ni      9.8200953547     1.4222882677    15.3366654644
Ni     11.0486075444     3.5492992589    15.3407265960
Ni     12.2774144623     5.6772885732    15.3359640032
Ni     13.5061541972     7.8063455902    15.3319299253
Ni      1.2187910631     0.7145173608    17.3879334314
Ni      2.4472474227     2.8420654806    17.3934581627
Ni      3.6755426811     4.9714604374    17.3911199588
Ni      4.9045369929     7.0990999797    17.3858410289
Ni      3.6755273590     0.7130852450    17.3897672789
Ni      4.9037000473     2.8423806074    17.3934481142
Ni      6.1319553005     4.9726957480    17.3963328007
Ni      7.3614524743     7.0997441935    17.3897409983
Ni      6.1332850561     0.7119051795    17.3902534707
Ni      7.3623531846     2.8409773484    17.3961534740
Ni      8.5911690953     4.9716069348    17.3936888912
Ni      9.8197669951     7.1000577029    17.3889506467
Ni      8.5911411426     0.7131642395    17.3880087950
Ni      9.8198330590     2.8408219131    17.3957136598
Ni     11.0487030798     4.9704125685    17.3927698418
Ni     12.2763266601     7.0989938309    17.3852102935
O       8.1853233808     3.4574048182    21.7117206478
O       8.5869329741     5.0599815235    19.5762271001
O      10.2109211163     3.6451020548    23.8826602062
C       9.3606393600     4.2890487236    21.7367471584
C       9.7574736302     4.6321502783    20.3055951979
C      10.5272793641     3.6720453941    22.4918474794
H       9.0423459569     5.1976070563    22.2680419510
H      10.2036708160     3.7499198429    19.8025973096
H      10.4835571337     5.4542343167    20.2475656164
H      11.4351836342     4.2717022800    22.2942344717
H      10.7115000118     2.6514065461    22.0984614952
H       8.4384371395     2.5707271966    21.3925898339
H       7.8511829079     4.4818016084    19.8831003151
H      11.0040911060     3.3843978098    24.3788521822
O       2.4676593393     1.4045078651    18.8058894197
H       2.5804189712     1.3115658959    19.7657035449
80
Step 2 | NEB Image 2 | Cartesian Angstrom
Ni      1.2285163698     0.7093081057    11.2497938371
Ni      2.4571189317     2.8374301935    11.2496603920
Ni      3.6857570391     4.9655903521    11.2495706575
Ni      4.9144509887     7.0937485908    11.2495935480
Ni      3.6858183173     0.7092518426    11.2496045694
Ni      4.9144467383     2.8373965762    11.2494130785
Ni      6.1431216158     4.9655956647    11.2493413824
Ni      7.3718344076     7.0937743128    11.2494582878
Ni      6.1431920355     0.7091986742    11.2494806164
Ni      7.3718666367     2.8373611932    11.2492964711
Ni      8.6005648600     4.9655789186    11.2492952422
Ni      9.8292533518     7.0937550618    11.2494846857
Ni      8.6005932675     0.7091916154    11.2495088338
Ni      9.8292934580     2.8373601428    11.2494090920
Ni     11.0579750322     4.9655596168    11.2494703879
Ni     12.2866171835     7.0937095306    11.2496515178
Ni      9.8233928470     0.0020554204    13.3015474897
Ni     11.0521695404     2.1299024556    13.3036325803
Ni     12.2804925659     4.2570283072    13.3034419750
Ni     13.5096486528     6.3851828399    13.3025935067
Ni      2.4514773668     0.0018985773    13.3020173189
Ni      3.6798771429     2.1301959546    13.3029344492
Ni      4.9082336537     4.2580581027    13.3038483031
Ni      6.1368584173     6.3862323154    13.3018174295
Ni      4.9084884415     0.0013530059    13.3013606124
Ni      6.1371506000     2.1305963085    13.3038043191
Ni      7.3659476538     4.2582759391    13.3047356263
Ni      8.5943140446     6.3858652753    13.3030739293
Ni      7.3652276399     0.0017907873    13.3009335005
Ni      8.5944030405     2.1299943903    13.3026442612
Ni      9.8235005240     4.2572119885    13.3038657252
Ni     11.0521253537     6.3860174300    13.3020068760
Ni      2.4476734023     1.4221218159    15.3336508641
Ni      3.6751700729     3.5498590803    15.3351128100
Ni      4.9038380372     5.6794137029    15.3337320289
Ni      6.1335816063     7.8085962482    15.3312313933
Ni      4.9054899093     1.4208521920    15.3312801199
Ni      6.1325978476     3.5505438929    15.3321807938
Ni      7.3609915539     5.6803345838    15.3319950995
Ni      8.5911729597     7.8082913404    15.3316851208
Ni      7.3627292390     1.4195220169    15.3314571286
Ni      8.5920902160     3.5478582427    15.3322803260
Ni      9.8212727905     5.6792252195    15.3305172531
Ni     11.0496411003     7.8085645094    15.3317601997
Ni      9.8210229346     1.4205671055    15.3334067111
Ni     11.0500915395     3.5483362210    15.3362526983
Ni     12.2791939488     5.6780276272    15.3326761670
Ni     13.5069447674     7.8069373663    15.3308731665
Ni      1.2144541594     0.7131906580    17.3842648490
Ni      2.4431921317     2.8451475253    17.3887127212
Ni      3.6679907377     4.9746678033    17.3852335184
Ni      4.9006652791     7.1031863294    17.3823164722
Ni      3.6928800921     0.6979879262    17.3489460401
Ni      4.8870864314     2.8374310857    17.3643079356
Ni      6.1151799571     4.9888008661    17.3548690991
Ni      7.3552976248     7.1099396792    17.3756284393
Ni      6.1325987451     0.7023809620    17.3803588374
Ni      7.3706977950     2.8208819147    17.3344951827
Ni      8.5875088797     4.9692609215    17.3265074642
Ni      9.8225253817     7.1138681155    17.3649938957
Ni      8.5931634990     0.7051473395    17.3796314577
Ni      9.8232448382     2.8304115008    17.3752204428
Ni     11.0649497122     4.9749100786    17.3557320351
Ni     12.2810373802     7.1030777984    17.3796063670
O       8.1069080580     3.1295889194    21.1992146703
O       8.1611940154     5.2083983480    19.2446745397
O       9.5479746778     3.5404702424    23.7443761446
C       8.7996365655     4.3477959326    21.5177526628
C       9.2293336637     5.1189034380    20.2007292525
C      10.0178100379     4.0583340617    22.4557013984
H       8.1131248987     5.0149925618    22.0532461982
H      10.0506255057     4.5590590518    19.7128333725
H       9.5541132041     6.1427275287    20.4443245747
H      10.6090028689     4.9604193107    22.6437734054
H      10.6430652881     3.2578427044    22.0148268628
H       8.8198733970     2.4643159748    21.0425747170
H       6.6080214752     3.5664806500    19.5801763559
H      10.3090387710     3.3795932710    24.2744095661
O       2.6954541687     1.2892481926    18.9567348763
H       2.6935989612     1.4963858570    19.8662342092
80
Step 3 | NEB Image 3 | Cartesian Angstrom
Ni      1.2285021344     0.7093095586    11.2497791936
Ni      2.4570993455     2.8374354990    11.2496273459
Ni      3.6857404625     4.9656009420    11.2495253279
Ni      4.9144370594     7.0937616487    11.2495427399
Ni      3.6857944739     0.7092432654    11.2495370155
Ni      4.9144273654     2.8373975361    11.2493148604
Ni      6.1431083451     4.9656042839    11.2492302369
Ni      7.3718301938     7.0937966143    11.2493462487
Ni      6.1431845728     0.7091728368    11.2493582902
Ni      7.3718708748     2.8373457585    11.2491434601
Ni      8.6005820179     4.9655785372    11.2491280685
Ni      9.8292834339     7.0937807572    11.2493437118
Ni      8.6006134558     0.7091506102    11.2493688488
Ni      9.8293323296     2.8373311032    11.2492471611
Ni     11.0580283660     4.9655545433    11.2493136398
Ni     12.2866696185     7.0937304424    11.2495376947
Ni      9.8234872305     0.0019192117    13.3012615616
Ni     11.0523247245     2.1297939538    13.3033130162
Ni     12.2806796906     4.2569658369    13.3031258816
Ni     13.5098161084     6.3852057297    13.3023658744
Ni      2.4514109290     0.0018907920    13.3019356376
Ni      3.6797776386     2.1302040523    13.3027145668
Ni      4.9081893092     4.2581132658    13.3036134151
Ni      6.1368011508     6.3862732419    13.3015651131
Ni      4.9084518744     0.0012641465    13.3010711663
Ni      6.1371572012     2.1305720118    13.3034037802
Ni      7.3659530597     4.2582538773    13.3042787369
Ni      8.5943619204     6.3859250591    13.3025829408
Ni      7.3652629211     0.0016583334    13.3005926336
Ni      8.5944967837     2.1298891637    13.3022070189
Ni      9.8236598867     4.2571286314    13.3033562689
Ni     11.0523095967     6.3860603192    13.3015814750
Ni      2.4471896798     1.4222441781    15.3336174922
Ni      3.6744567660     3.5502630666    15.3341051810
Ni      4.9038700580     5.6795088731    15.3335578303
Ni      6.1333048298     7.8088108485    15.3305380760
Ni      4.9053932563     1.4205613614    15.3294782793
Ni      6.1329503725     3.5509275496    15.3309976827
Ni      7.3605848773     5.6803652937    15.3301028939
Ni      8.5913522286     7.8088518502    15.3302217144
Ni      7.3630743858     1.4193750789    15.3301031323
Ni      8.5926124036     3.5470665440    15.3302418886
Ni      9.8222676011     5.6792826595    15.3280666494
Ni     11.0502654574     7.8090157587    15.3306507462
Ni      9.8215145672     1.4202325824    15.3324612364
Ni     11.0507391251     3.5478019112    15.3353441104
Ni     12.2799733785     5.6779844719    15.3316493475
Ni     13.5073532354     7.8071163158    15.3304592452
Ni      1.2169438824     0.7145956763    17.3869782342
Ni      2.4428960355     2.8415003855    17.3916615130
Ni      3.6677663564     4.9762481359    17.3840139964
Ni      4.9004871270     7.1030216335    17.3819707039
Ni      3.6868795804     0.7009651754    17.3377157766
Ni      4.8797013030     2.8413506093    17.3393105577
Ni      6.1164276799     4.9833648302    17.3614087055
Ni      7.3531142468     7.1145880013    17.3659068946
Ni      6.1341512727     0.6965631130    17.3707306763
Ni      7.3767370492     2.8307198836    17.3339122526
Ni      8.5966933039     4.9573547564    17.3010056198
Ni      9.8266712946     7.1197435712    17.3551868932
Ni      8.5947425123     0.7018817415    17.3744564076
Ni      9.8273405109     2.8315784377    17.3746367964
Ni     11.0718053558     4.9662302743    17.3481617212
Ni     12.2841814441     7.1045505171    17.3770200298
O       8.6447038140     3.1096507230    20.4627577919
O       7.9728351887     5.3709084013    19.0681500948
O       9.2099047141     3.3373683285    23.5223363987
C       8.5630928639     4.3186534420    21.2638646644
C       8.8594180882     5.4738366519    20.2235756204
C       9.6129395805     4.2996584423    22.4656099524
H       7.5772886425     4.5109854736    21.6936083956
H       9.8650565118     5.3219213907    19.8163459088
H       8.7101743630     6.4752830105    20.6368081971
H       9.6687906443     5.2736818599    22.9473700039
H      10.5820059935     3.9365296458    22.1086801128
H       9.1160056206     2.4279407055    20.9858504902
H       5.9790455307     2.9005991054    19.6899913159
H       9.8806473129     3.3473721893    24.1596402453
O       3.0175041363     1.0298014201    19.1790487768
H       2.6872331217     1.6842832520    19.7924566066
80
Step 4 | NEB Image 4 | Cartesian Angstrom
Ni      1.2285632997     0.7093266325    11.2498624870
Ni      2.4571770713     2.8374392711    11.2497445451
Ni      3.6858265605     4.9655840750    11.2496725415
Ni      4.9145085785     7.0937156307    11.2496951560
Ni      3.6858538014     0.7092806656    11.2496994794
Ni      4.9145007684     2.8374132392    11.2495304556
Ni      6.1431778304     4.9655810698    11.2494761701
Ni      7.3718708735     7.0937338663    11.2495571946
Ni      6.1432138441     0.7092325420    11.2495665669
Ni      7.3718986272     2.8373761381    11.2494150032
Ni      8.6005920853     4.9655570764    11.2494047688
Ni      9.8292736545     7.0937211953    11.2495482949
Ni      8.6006016291     0.7092139808    11.2495616672
Ni      9.8293045110     2.8373630680    11.2494764824
Ni     11.0579886909     4.9655411951    11.2495250064
Ni     12.2866294398     7.0936891460    11.2496770314
Ni      9.8234146759     0.0020826111    13.3015719712
Ni     11.0522012670     2.1299189006    13.3037144667
Ni     12.2805175689     4.2569943869    13.3035603712
Ni     13.5096719692     6.3851323993    13.3026376822
Ni      2.4515587548     0.0019915648    13.3022438431
Ni      3.6799747244     2.1302282177    13.3031292879
Ni      4.9084744053     4.2580898624    13.3041313710
Ni      6.1370246490     6.3861093455    13.3021124027
Ni      4.9085129648     0.0014493237    13.3015296615
Ni      6.1373099396     2.1307100714    13.3040823806
Ni      7.3661103236     4.2582337435    13.3051463417
Ni      8.5944316000     6.3857198556    13.3032950712
Ni      7.3652709211     0.0018912416    13.3010305903
Ni      8.5944574856     2.1300756237    13.3029034096
Ni      9.8235733278     4.2571513837    13.3041343449
Ni     11.0521967677     6.3859066585    13.3021491130
Ni      2.4479666832     1.4220617680    15.3346844511
Ni      3.6752373945     3.5503466885    15.3347008414
Ni      4.9049368251     5.6791120927    15.3349150314
Ni      6.1338470177     7.8082103998    15.3314162176
Ni      4.9053149658     1.4207809858    15.3313762504
Ni      6.1343965592     3.5511143993    15.3337387904
Ni      7.3616085716     5.6794087346    15.3330985858
Ni      8.5916734142     7.8079802174    15.3316127317
Ni      7.3633835892     1.4207718743    15.3324163647
Ni      8.5922483132     3.5475701541    15.3339707986
Ni      9.8220778879     5.6784542729    15.3313922540
Ni     11.0500021370     7.8082589874    15.3318114821
Ni      9.8211112372     1.4207915761    15.3336506175
Ni     11.0502766577     3.5484357610    15.3372153543
Ni     12.2790790140     5.6775382195    15.3334555675
Ni     13.5070365709     7.8068025673    15.3309177450
Ni      1.2180275013     0.7142831382    17.3872853254
Ni      2.4433254959     2.8431134595    17.3885108045
Ni      3.6709591239     4.9761545572    17.3858394816
Ni      4.9022486347     7.1015193748    17.3830782086
Ni      3.6764634917     0.7088514950    17.3679593286
Ni      4.8910967472     2.8524383489    17.3396499873
Ni      6.1218120078     4.9757843281    17.3746802981
Ni      7.3569520155     7.1108350561    17.3698223000
Ni      6.1385058842     0.6984662969    17.3682751576
Ni      7.3707765879     2.8366342890    17.3665071142
Ni      8.6052730528     4.9555901328    17.3311050945
Ni      9.8277798934     7.1121987375    17.3620547770
Ni      8.5940238956     0.7061466139    17.3795898397
Ni      9.8257451144     2.8334128475    17.3775726179
Ni     11.0604216550     4.9676758157    17.3741447155
Ni     12.2819471125     7.1015714575    17.3798721708
O       9.2365214578     3.5010584443    20.1956741223
O       7.7442960418     5.5215720134    18.9435697172
O       8.9802906481     3.2323596042    23.1843821644
C       8.4440326458     4.3500884994    21.0272439893
C       8.3913067634     5.6971540244    20.2400149657
C       9.0957933847     4.4958105336    22.4361389484
H       7.4010509534     4.0102333839    21.1569678977
H       9.4169143372     6.0165093358    20.0353692993
H       7.8117940364     6.4600714651    20.7680628437
H       8.5892904830     5.2729716905    23.0149273374
H      10.1710233963     4.6850074932    22.3197611643
H       9.3890763782     2.6423983152    20.7393568204
H       5.3928409002     2.2951402924    19.6696007502
H       9.4533730453     3.3464361856    23.9839659334
O       3.2965349679     1.0022609834    19.4053384418
H       2.7543239240     1.7386163504    19.7472449407
80
Step 5 | NEB Image 5 | Cartesian Angstrom
Ni      1.2286497034     0.7093615225    11.2499999440
Ni      2.4572989609     2.8374461750    11.2499999440
Ni      3.6859482184     4.9655308275    11.2499999440
Ni      4.9145974759     7.0936154800    11.2499999440
Ni      3.6859497034     0.7093615225    11.2499999440
Ni      4.9145989609     2.8374461750    11.2499999440
Ni      6.1432482184     4.9655308275    11.2499999440
Ni      7.3718974759     7.0936154800    11.2499999440
Ni      6.1432497034     0.7093615225    11.2499999440
Ni      7.3718989609     2.8374461750    11.2499999440
Ni      8.6005482184     4.9655308275    11.2499999440
Ni      9.8291974759     7.0936154800    11.2499999440
Ni      8.6005497034     0.7093615225    11.2499999440
Ni      9.8291989609     2.8374461750    11.2499999440
Ni     11.0578482184     4.9655308275    11.2499999440
Ni     12.2864974759     7.0936154800    11.2499999440
Ni      9.8231926870     0.0024995631    13.3023446442
Ni     11.0518089676     2.1302240586    13.3047083557
Ni     12.2800508544     4.2570722939    13.3044621680
Ni     13.5092873083     6.3850384546    13.3032134512
Ni      2.4517696982     0.0021660497    13.3026623307
Ni      3.6803278881     2.1303359107    13.3041135630
Ni      4.9088074938     4.2579363814    13.3054287544
Ni      6.1372745671     6.3857877107    13.3032783798
Ni      4.9086517115     0.0018312594    13.3024060945
Ni      6.1374036838     2.1309748468    13.3056096270
Ni      7.3661495135     4.2582451239    13.3069522585
Ni      8.5943413203     6.3854189562    13.3048451696
Ni      7.3652044956     0.0023769003    13.3020219334
Ni      8.5942385662     2.1304695544    13.3043868044
Ni      9.8231946918     4.2572739512    13.3057506922
Ni     11.0517679695     6.3857120360    13.3033344194
Ni      2.4490339821     1.4222228929    15.3362210124
Ni      3.6772966574     3.5494520554    15.3385526461
Ni      4.9062018672     5.6779299780    15.3378106046
Ni      6.1346571942     7.8070606266    15.3335999053
Ni      4.9058225197     1.4219699914    15.3362206260
Ni      6.1346426084     3.5508505475    15.3401418518
Ni      7.3625330027     5.6784279498    15.3395242568
Ni      8.5915701206     7.8062468470    15.3354851546
Ni      7.3627071376     1.4224398724    15.3370388041
Ni      8.5913286772     3.5492677633    15.3408174188
Ni      9.8201850849     5.6778143804    15.3377746619
Ni     11.0486433115     7.8070023171    15.3347462049
Ni      9.8200953547     1.4222882677    15.3366654644
Ni     11.0486075444     3.5492992589    15.3407265960
Ni     12.2774144623     5.6772885732    15.3359640032
Ni     13.5061541972     7.8063455902    15.3319299253
Ni      1.2187910631     0.7145173608    17.3879334314
Ni      2.4472474227     2.8420654806    17.3934581627
Ni      3.6755426811     4.9714604374    17.3911199588
Ni      4.9045369929     7.0990999797    17.3858410289
Ni      3.6755273590     0.7130852450    17.3897672789
Ni      4.9037000473     2.8423806074    17.3934481142
Ni      6.1319553005     4.9726957480    17.3963328007
Ni      7.3614524743     7.0997441935    17.3897409983
Ni      6.1332850561     0.7119051795    17.3902534707
Ni      7.3623531846     2.8409773484    17.3961534740
Ni      8.5911690953     4.9716069348    17.3936888912
Ni      9.8197669951     7.1000577029    17.3889506467
Ni      8.5911411426     0.7131642395    17.3880087950
Ni      9.8198330590     2.8408219131    17.3957136598
Ni     11.0487030798     4.9704125685    17.3927698418
Ni     12.2763266601     7.0989938309    17.3852102935
O       9.3819344244     4.1358166692    20.0930362367
O       7.4403591999     5.7710500252    18.8010456662
O       8.6054614657     3.3490556865    22.7703843692
C       8.1664603160     4.5686069475    20.7700096311
C       7.7641571257     5.9228005922    20.1887078083
C       8.3912004598     4.6889035721    22.2787219386
H       7.3485584428     3.8274455412    20.5710354409
H       8.5939941550     6.6612606078    20.2727262356
H       6.8675792875     6.3118286823    20.7285291220
H       7.5127131407     5.1500412147    22.7730789076
H       9.2780443246     5.3384479547    22.4478370724
H       9.6348023466     3.2728259917    20.4951539629
H       4.4134518168     1.3599542848    19.7391102444
H       8.7500633813     3.3953291848    23.7317250903
O       3.5190441201     1.0401590876    20.0091886335
H       2.9303167551     1.7729858078    19.7218291788
