80
Step 1 | NEB Image 1 | Cartesian Angstrom
Ni      1.2286497034     0.7093615225    11.2499999440
Ni      2.4572989609     2.8374461750    11.2499999440
Ni      3.6859482184     4.9655308275    11.2499999440
Ni      4.9145974759     7.0936154800    11.2499999440
Ni      3.6859497034     0.7093615225    11.2499999440
Ni      4.9145989609     2.8374461750    11.2499999440
Ni      6.1432482184     4.9655308275    11.2499999440
Ni      7.3718974759     7.0936154800    11.2499999440
Ni      6.1432497034     0.7093615225    11.2499999440
Ni      7.3718989609     2.8374461750    11.2499999440
Ni      8.6005482184     4.9655308275    11.2499999440
Ni      9.8291974759     7.0936154800    11.2499999440
Ni      8.6005497034     0.7093615225    11.2499999440
Ni      9.8291989609     2.8374461750    11.2499999440
Ni     11.0578482184     4.9655308275    11.2499999440
Ni     12.2864974759     7.0936154800    11.2499999440
Ni      9.8231926870     0.0024995631    13.3023446442
Ni     11.0518089676     2.1302240586    13.3047083557
Ni     12.2800508544     4.2570722939    13.3044621680
Ni     13.5092873083     6.3850384546    13.3032134512
Ni      2.4517696982     0.0021660497    13.3026623307
Ni      3.6803278881     2.1303359107    13.3041135630
Ni      4.9088074938     4.2579363814    13.3054287544
Ni      6.1372745671     6.3857877107    13.3032783798
Ni      4.9086517115     0.0018312594    13.3024060945
Ni      6.1374036838     2.1309748468    13.3056096270
Ni      7.3661495135     4.2582451239    13.3069522585
Ni      8.5943413203     6.3854189562    13.3048451696
Ni      7.3652044956     0.0023769003    13.3020219334
Ni      8.5942385662     2.1304695544    13.3043868044
Ni      9.8231946918     4.2572739512    13.3057506922
Ni     11.0517679695     6.3857120360    13.3033344194
Ni      2.4490339821     1.4222228929    15.3362210124
Ni      3.6772966574     3.5494520554    15.3385526461
Ni      4.9062018672     5.6779299780    15.3378106046
Ni      6.1346571942     7.8070606266    15.3335999053
Ni      4.9058225197     1.4219699914    15.3362206260
Ni      6.1346426084     3.5508505475    15.3401418518
Ni      7.3625330027     5.6784279498    15.3395242568
Ni      8.5915701206     7.8062468470    15.3354851546
Ni      7.3627071376     1.4224398724    15.3370388041
Ni      8.5913286772     3.5492677633    15.3408174188
Ni      9.8201850849     5.6778143804    15.3377746619
Ni     11.0486433115     7.8070023171    15.3347462049
Ni      9.8200953547     1.4222882677    15.3366654644
Ni     11.0486075444     3.5492992589    15.3407265960
Ni     12.2774144623     5.6772885732    15.3359640033
Ni     13.5061541972     7.8063455902    15.3319299253
Ni      1.2187910631     0.7145173608    17.3879334314
Ni      2.4472474227     2.8420654806    17.3934581627
Ni      3.6755426811     4.9714604374    17.3911199588
Ni      4.9045369929     7.0990999797    17.3858410289
Ni      3.6755273590     0.7130852450    17.3897672789
Ni      4.9037000473     2.8423806074    17.3934481142
Ni      6.1319553005     4.9726957480    17.3963328007
Ni      7.3614524743     7.0997441935    17.3897409983
Ni      6.1332850561     0.7119051795    17.3902534707
Ni      7.3623531846     2.8409773484    17.3961534740
Ni      8.5911690953     4.9716069348    17.3936888912
Ni      9.8197669951     7.1000577029    17.3889506467
Ni      8.5911411426     0.7131642395    17.3880087950
Ni      9.8198330590     2.8408219131    17.3957136598
Ni     11.0487030798     4.9704125685    17.3927698418
Ni     12.2763266601     7.0989938309    17.3852102935
O       8.1853233808     3.4574048182    21.7117206478
O       8.5869329741     5.0599815235    19.5762271001
O      10.2109211163     3.6451020548    23.8826602062
C       9.3606393600     4.2890487236    21.7367471584
C       9.7574736302     4.6321502783    20.3055951979
C      10.5272793641     3.6720453941    22.4918474794
H       9.0423459569     5.1976070563    22.2680419510
H      10.2036708160     3.7499198429    19.8025973096
H      10.4835571337     5.4542343167    20.2475656164
H      11.4351836342     4.2717022800    22.2942344717
H      10.7115000118     2.6514065461    22.0984614952
H       8.4384371395     2.5707271966    21.3925898339
H       7.8511829079     4.4818016084    19.8831003151
H      11.0040911060     3.3843978098    24.3788521822
O       2.4676593393     1.4045078651    18.8058894197
H       2.5804189712     1.3115658959    19.7657035449
80
Step 2 | NEB Image 2 | Cartesian Angstrom
Ni      1.2285764576     0.7093284681    11.2498828965
Ni      2.4572002419     2.8374337679    11.2498116783
Ni      3.6858412123     4.9655613620    11.2497637559
Ni      4.9145161301     7.0936892302    11.2497804537
Ni      3.6858825937     0.7092996264    11.2497957935
Ni      4.9145169574     2.8374156839    11.2496958040
Ni      6.1431785669     4.9655655827    11.2496591356
Ni      7.3718615533     7.0936999954    11.2497303012
Ni      6.1432187040     0.7092763954    11.2497491254
Ni      7.3718772605     2.8374027577    11.2496536148
Ni      8.6005494554     4.9655600951    11.2496601941
Ni      9.8292157518     7.0936865947    11.2497612096
Ni      8.6005656297     0.7092799609    11.2497752943
Ni      9.8292360431     2.8374091497    11.2497263157
Ni     11.0578973740     4.9655508489    11.2497607122
Ni     12.2865427923     7.0936615371    11.2498480590
Ni      9.8232649845     0.0023013376    13.3020103075
Ni     11.0519468836     2.1300856354    13.3042228926
Ni     12.2802213214     4.2570779779    13.3040086322
Ni     13.5094193125     6.3851138975    13.3029562213
Ni      2.4516273254     0.0020083456    13.3023146418
Ni      3.6801067838     2.1302470476    13.3035140960
Ni      4.9084835678     4.2579815432    13.3045942718
Ni      6.1370526540     6.3860354115    13.3025253052
Ni      4.9085718720     0.0015879801    13.3019235393
Ni      6.1372473706     2.1307585038    13.3047248752
Ni      7.3660248390     4.2582751294    13.3058479703
Ni      8.5943002323     6.3856578726    13.3040278140
Ni      7.3652003076     0.0020909288    13.3015398821
Ni      8.5942896586     2.1302365989    13.3035590394
Ni      9.8232973859     4.2572795245    13.3048741566
Ni     11.0518889733     6.3858744637    13.3027515223
Ni      2.4484616318     1.4220981412    15.3346844394
Ni      3.6763791004     3.5494900616    15.3369916022
Ni      4.9047564390     5.6787782921    15.3354341145
Ni      6.1341500444     7.8078782721    15.3325257619
Ni      4.9056708925     1.4214438727    15.3341638229
Ni      6.1332256545     3.5504671887    15.3359386305
Ni      7.3618118822     5.6795644216    15.3359491696
Ni      8.5912377771     7.8071934086    15.3339430212
Ni      7.3625429520     1.4207521126    15.3343634529
Ni      8.5915193529     3.5488242316    15.3367091331
Ni      9.8203295631     5.6786371528    15.3346530974
Ni     11.0489244743     7.8077135364    15.3335136675
Ni      9.8204022499     1.4214201253    15.3351831927
Ni     11.0491706592     3.5489934107    15.3384910218
Ni     12.2780875020     5.6777573669    15.3345074056
Ni     13.5064212641     7.8066108155    15.3315048127
Ni      1.2148821557     0.7129880516    17.3843120439
Ni      2.4449460418     2.8458178759    17.3890560954
Ni      3.6710930669     4.9725860801    17.3881896512
Ni      4.9022886221     7.1016558552    17.3838880204
Ni      3.6891096427     0.7024241703    17.3709145640
Ni      4.8974786291     2.8373833412    17.3887135659
Ni      6.1211661195     4.9852371356    17.3678808322
Ni      7.3588615094     7.1035089022    17.3862245891
Ni      6.1320769824     0.7091468859    17.3892292315
Ni      7.3642745771     2.8237438505    17.3591929746
Ni      8.5842287870     4.9763304100    17.3662456773
Ni      9.8192986373     7.1053694854    17.3795246207
Ni      8.5915487398     0.7100056171    17.3856196603
Ni      9.8197806030     2.8339205293    17.3836141019
Ni     11.0549757300     4.9776200632    17.3743091174
Ni     12.2775506227     7.1006997573    17.3831588800
O       8.0937428386     3.3902488786    21.2925509174
O       8.7156174798     5.3090307518    19.1859681832
O       9.8912911241     3.8793488328    23.6393177747
C       9.1720185244     4.3348031075    21.3930666347
C       9.7090581367     4.7379780338    20.0133684325
C      10.3148222289     3.8204271169    22.2688740768
H       8.7386170362     5.2220749564    21.8859607463
H      10.1395262093     3.8068403071    19.5404882916
H      10.5586494813     5.4388034913    20.1368333943
H      11.2152778030     4.4407835906    22.1120319193
H      10.5515830198     2.7805424449    21.9715784453
H       8.3154885331     2.7546710172    20.5983667928
H       6.1864972230     3.5710178932    18.3418329604
H      10.6334808147     3.5974384068    24.2059330894
O       2.5158707412     1.4591172944    18.8034521400
H       2.6424074535     1.4896746069    19.7533664387
80
Step 3 | NEB Image 3 | Cartesian Angstrom
Ni      1.2285311660     0.7093146972    11.2498173454
Ni      2.4571388084     2.8374326653    11.2496979155
Ni      3.6857786410     4.9655843307    11.2496177083
Ni      4.9144674819     7.0937338909    11.2496374202
Ni      3.6858318433     0.7092641800    11.2496455110
Ni      4.9144633455     2.8374026533    11.2494737376
Ni      6.1431358384     4.9655887339    11.2494094052
Ni      7.3718418254     7.0937573845    11.2495121582
Ni      6.1431983328     0.7092156553    11.2495307616
Ni      7.3718712066     2.8373698375    11.2493656075
Ni      8.6005648742     4.9655730041    11.2493630848
Ni      9.8292499155     7.0937407754    11.2495323303
Ni      8.6005901876     0.7092078553    11.2495536211
Ni      9.8292862270     2.8373674857    11.2494636294
Ni     11.0579654221     4.9655555554    11.2495181097
Ni     12.2866082986     7.0937002713    11.2496817856
Ni      9.8233786335     0.0020947626    13.3016139221
Ni     11.0521424540     2.1299299807    13.3037290447
Ni     12.2804589276     4.2570271640    13.3035327649
Ni     13.5096225124     6.3851675191    13.3026450042
Ni      2.4515062451     0.0019301812    13.3020876954
Ni      3.6799215841     2.1302134149    13.3030536928
Ni      4.9082994119     4.2580494894    13.3040139961
Ni      6.1369036562     6.3861827992    13.3019677425
Ni      4.9085043506     0.0014016250    13.3014574838
Ni      6.1371827266     2.1306395673    13.3039806715
Ni      7.3659737501     4.2582697512    13.3049563082
Ni      8.5943231998     6.3858170283    13.3032371484
Ni      7.3652287943     0.0018479482    13.3010296477
Ni      8.5943933414     2.1300409291    13.3028096422
Ni      9.8234807282     4.2572106457    13.3040410710
Ni     11.0521018600     6.3859844565    13.3021235525
Ni      2.4477904339     1.4221442152    15.3339602169
Ni      3.6753519348     3.5498556681    15.3354138902
Ni      4.9041303159     5.6792460003    15.3342057388
Ni      6.1336844060     7.8084325552    15.3314447922
Ni      4.9055173516     1.4209542519    15.3316883556
Ni      6.1328919054     3.5506227173    15.3330171340
Ni      7.3611409967     5.6801035969    15.3327091887
Ni      8.5912423558     7.8081016401    15.3319900043
Ni      7.3627672911     1.4198640384    15.3319928816
Ni      8.5920523142     3.5479447533    15.3331056621
Ni      9.8212493435     5.6790564274    15.3311446985
Ni     11.0495878469     7.8084208268    15.3320049409
Ni      9.8209619584     1.4207391289    15.3337009718
Ni     11.0499815947     3.5483997677    15.3367010971
Ni     12.2790580360     5.6779312737    15.3329731351
Ni     13.5068920277     7.8068834388    15.3309581379
Ni      1.2152371703     0.7134901741    17.3849837999
Ni      2.4436382251     2.8444224951    17.3895373875
Ni      3.6688870536     4.9744610464    17.3858127241
Ni      4.9011197087     7.1026738713    17.3827042691
Ni      3.6900891680     0.7001628099    17.3528951842
Ni      4.8883831359     2.8385662139    17.3650504839
Ni      6.1173342843     4.9862516428    17.3605602826
Ni      7.3558317182     7.1091980461    17.3762895630
Ni      6.1328995898     0.7028964667    17.3804567794
Ni      7.3702907450     2.8243413133    17.3420299883
Ni      8.5890204444     4.9682474145    17.3320078631
Ni      9.8226587132     7.1127870933    17.3668297697
Ni      8.5930864589     0.7057887877    17.3801233799
Ni      9.8232619101     2.8317706655    17.3775815050
Ni     11.0636396687     4.9734839494    17.3595743658
Ni     12.2807940211     7.1027203721    17.3800208536
O       8.6050726960     3.2164370694    20.3658577931
O       8.7234363868     5.8615743257    18.9765767941
O       9.3104304603     3.4229847806    23.1990906302
C       8.9354261020     4.4418012562    21.0355573776
C       9.5635556650     5.4061590145    20.0330869802
C       9.9431178684     4.2010932620    22.1561789036
H       8.0190473417     4.8903048351    21.4739890367
H      10.4536199667     4.8901071338    19.6035009529
H       9.9114319050     6.2975972837    20.5779593277
H      10.2932558403     5.1666791283    22.5574508652
H      10.8058806507     3.6517526143    21.7448216159
H       8.3746437304     2.5584129961    21.0283466940
H       6.1106380116     3.5402252149    18.2924615614
H       9.9522992443     3.2359437719    23.8661920301
O       2.4871370978     0.4569779094    18.8711688249
H       2.5263900499     1.1658855437    19.5551640115
80
Step 4 | NEB Image 4 | Cartesian Angstrom
Ni      1.2285459632     0.7093207248    11.2498377278
Ni      2.4571550203     2.8374372085    11.2497103427
Ni      3.6858016188     4.9655884362    11.2496300353
Ni      4.9144881394     7.0937290446    11.2496524652
Ni      3.6858382916     0.7092694588    11.2496565661
Ni      4.9144804340     2.8374078465    11.2494733588
Ni      6.1431582662     4.9655875150    11.2494111465
Ni      7.3718591731     7.0937510782    11.2495041526
Ni      6.1432057634     0.7092165401    11.2495160931
Ni      7.3718899130     2.8373682590    11.2493477750
Ni      8.6005874183     4.9655639091    11.2493380306
Ni      9.8292734122     7.0937366908    11.2495014065
Ni      8.6006030099     0.7091988835    11.2495183171
Ni      9.8293087500     2.8373565689    11.2494241717
Ni     11.0579948530     4.9655460714    11.2494781135
Ni     12.2866357094     7.0936994164    11.2496475429
Ni      9.8234257035     0.0020476530    13.3015101883
Ni     11.0522211775     2.1298931305    13.3036268749
Ni     12.2805452889     4.2569941799    13.3034645852
Ni     13.5096958120     6.3851520775    13.3025821602
Ni      2.4515217869     0.0019598959    13.3021583854
Ni      3.6799256298     2.1302176977    13.3030225648
Ni      4.9083916375     4.2580912933    13.3039904856
Ni      6.1369634939     6.3861572534    13.3019684668
Ni      4.9084980235     0.0014014274    13.3014233049
Ni      6.1372626543     2.1306682636    13.3039158245
Ni      7.3660630530     4.2582427716    13.3049278907
Ni      8.5944058437     6.3857763806    13.3031323619
Ni      7.3652645107     0.0018341031    13.3009357730
Ni      8.5944589031     2.1300296466    13.3027383126
Ni      9.8235816017     4.2571551680    13.3039539919
Ni     11.0522098457     6.3859486350    13.3020257564
Ni      2.4477941336     1.4220922935    15.3343480332
Ni      3.6750786969     3.5502784058    15.3346039954
Ni      4.9045959873     5.6792371242    15.3344878710
Ni      6.1337158065     7.8083752727    15.3312235297
Ni      4.9053420640     1.4207375822    15.3310042939
Ni      6.1339172192     3.5510061355    15.3329935760
Ni      7.3613554971     5.6797019166    15.3323892063
Ni      8.5915545773     7.8081822231    15.3313555756
Ni      7.3632544556     1.4203546848    15.3318590515
Ni      8.5922920420     3.5475115440    15.3330626715
Ni      9.8220179945     5.6786989957    15.3306748327
Ni     11.0500099604     7.8084346761    15.3315857567
Ni      9.8211731068     1.4206500943    15.3333894365
Ni     11.0503451242     3.5483168524    15.3367402973
Ni     12.2792521673     5.6776795723    15.3330387193
Ni     13.5070834293     7.8068753293    15.3308278812
Ni      1.2173105131     0.7141506384    17.3867612255
Ni      2.4431648618     2.8432340686    17.3888630259
Ni      3.6699720713     4.9760344541    17.3853889698
Ni      4.9017175354     7.1020312819    17.3827528950
Ni      3.6804360930     0.7060131938    17.3604759288
Ni      4.8886751584     2.8488242548    17.3423086080
Ni      6.1198443351     4.9788918953    17.3693622666
Ni      7.3560839269     7.1114335751    17.3697799567
Ni      6.1371110271     0.6985367866    17.3700229483
Ni      7.3717434709     2.8332999267    17.3565238815
Ni      8.6016532145     4.9576161427    17.3250270070
Ni      9.8269820626     7.1137283708    17.3610234026
Ni      8.5940473699     0.7052700807    17.3787286729
Ni      9.8256953558     2.8325445127    17.3764321821
Ni     11.0629035692     4.9685475413    17.3673950940
Ni     12.2822243744     7.1022606467    17.3793350035
O       9.1115898792     3.4286661643    20.0154461136
O       7.8108696230     5.7507995691    18.8602476746
O       8.9804896665     3.2783175394    22.8063340592
C       8.4867460655     4.4596428160    20.8173039377
C       8.5604432460     5.7879366982    20.0798743613
C       9.1759221909     4.5357044507    22.1681763387
H       7.4246964507     4.2013234424    20.9699600609
H       9.6229278547     6.0193168674    19.8482014277
H       8.1585396691     6.5856925607    20.7114999376
H       8.7516301295     5.3640041656    22.7651729282
H      10.2608013640     4.7405353532    22.0047088084
H       9.0074352743     2.5999779460    20.4710847892
H       6.1281345706     2.1610535474    18.2937164179
H       9.5768154981     3.2299376227    23.6046791387
O       2.4710564225     0.4952844010    18.9027820897
H       2.4871698137     1.2712968988    19.5173735549
80
Step 5 | NEB Image 5 | Cartesian Angstrom
Ni      1.2286497034     0.7093615225    11.2499999440
Ni      2.4572989609     2.8374461750    11.2499999440
Ni      3.6859482184     4.9655308275    11.2499999440
Ni      4.9145974759     7.0936154800    11.2499999440
Ni      3.6859497034     0.7093615225    11.2499999440
Ni      4.9145989609     2.8374461750    11.2499999440
Ni      6.1432482184     4.9655308275    11.2499999440
Ni      7.3718974759     7.0936154800    11.2499999440
Ni      6.1432497034     0.7093615225    11.2499999440
Ni      7.3718989609     2.8374461750    11.2499999440
Ni      8.6005482184     4.9655308275    11.2499999440
Ni      9.8291974759     7.0936154800    11.2499999440
Ni      8.6005497034     0.7093615225    11.2499999440
Ni      9.8291989609     2.8374461750    11.2499999440
Ni     11.0578482184     4.9655308275    11.2499999440
Ni     12.2864974759     7.0936154800    11.2499999440
Ni      9.8231926870     0.0024995631    13.3023446442
Ni     11.0518089676     2.1302240586    13.3047083557
Ni     12.2800508544     4.2570722939    13.3044621680
Ni     13.5092873083     6.3850384546    13.3032134512
Ni      2.4517696982     0.0021660497    13.3026623307
Ni      3.6803278881     2.1303359107    13.3041135630
Ni      4.9088074938     4.2579363814    13.3054287544
Ni      6.1372745671     6.3857877107    13.3032783798
Ni      4.9086517115     0.0018312594    13.3024060945
Ni      6.1374036838     2.1309748468    13.3056096270
Ni      7.3661495135     4.2582451239    13.3069522585
Ni      8.5943413203     6.3854189562    13.3048451696
Ni      7.3652044956     0.0023769003    13.3020219334
Ni      8.5942385662     2.1304695544    13.3043868044
Ni      9.8231946918     4.2572739512    13.3057506922
Ni     11.0517679695     6.3857120360    13.3033344194
Ni      2.4490339821     1.4222228929    15.3362210124
Ni      3.6772966574     3.5494520554    15.3385526461
Ni      4.9062018672     5.6779299780    15.3378106046
Ni      6.1346571942     7.8070606266    15.3335999053
Ni      4.9058225197     1.4219699914    15.3362206260
Ni      6.1346426084     3.5508505475    15.3401418518
Ni      7.3625330027     5.6784279498    15.3395242568
Ni      8.5915701206     7.8062468470    15.3354851546
Ni      7.3627071376     1.4224398724    15.3370388041
Ni      8.5913286772     3.5492677633    15.3408174188
Ni      9.8201850849     5.6778143804    15.3377746619
Ni     11.0486433115     7.8070023171    15.3347462049
Ni      9.8200953547     1.4222882677    15.3366654644
Ni     11.0486075444     3.5492992589    15.3407265960
Ni     12.2774144623     5.6772885732    15.3359640033
Ni     13.5061541972     7.8063455902    15.3319299253
Ni      1.2187910631     0.7145173608    17.3879334314
Ni      2.4472474227     2.8420654806    17.3934581627
Ni      3.6755426811     4.9714604374    17.3911199588
Ni      4.9045369929     7.0990999797    17.3858410289
Ni      3.6755273590     0.7130852450    17.3897672789
Ni      4.9037000473     2.8423806074    17.3934481142
Ni      6.1319553005     4.9726957480    17.3963328007
Ni      7.3614524743     7.0997441935    17.3897409983
Ni      6.1332850561     0.7119051795    17.3902534707
Ni      7.3623531846     2.8409773484    17.3961534740
Ni      8.5911690953     4.9716069348    17.3936888912
Ni      9.8197669951     7.1000577029    17.3889506467
Ni      8.5911411426     0.7131642395    17.3880087950
Ni      9.8198330590     2.8408219131    17.3957136598
Ni     11.0487030798     4.9704125685    17.3927698418
Ni     12.2763266601     7.0989938309    17.3852102935
O       9.3819344244     4.1358166692    20.0930362367
O       7.4403591999     5.7710500252    18.8010456662
O       8.6054614657     3.3490556865    22.7703843692
C       8.1664603160     4.5686069475    20.7700096311
C       7.7641571257     5.9228005922    20.1887078083
C       8.3912004598     4.6889035721    22.2787219386
H       7.3485584428     3.8274455412    20.5710354409
H       8.5939941550     6.6612606078    20.2727262356
H       6.8675792875     6.3118286823    20.7285291220
H       7.5127131407     5.1500412147    22.7730789076
H       9.2780443246     5.3384479547    22.4478370724
H       9.6348023466     3.2728259917    20.4951539629
H       4.4134518168     1.3599542848    19.7391102444
H       8.7500633813     3.3953291848    23.7317250903
O       3.5190441201     1.0401590876    20.0091886335
H       2.9303167551     1.7729858078    19.7218291788
