80
Step 1 | NEB Image 1 | Cartesian Angstrom
Ni      1.2286497034     0.7093615225    11.2499999440
Ni      2.4572989609     2.8374461750    11.2499999440
Ni      3.6859482184     4.9655308275    11.2499999440
Ni      4.9145974759     7.0936154800    11.2499999440
Ni      3.6859497034     0.7093615225    11.2499999440
Ni      4.9145989609     2.8374461750    11.2499999440
Ni      6.1432482184     4.9655308275    11.2499999440
Ni      7.3718974759     7.0936154800    11.2499999440
Ni      6.1432497034     0.7093615225    11.2499999440
Ni      7.3718989609     2.8374461750    11.2499999440
Ni      8.6005482184     4.9655308275    11.2499999440
Ni      9.8291974759     7.0936154800    11.2499999440
Ni      8.6005497034     0.7093615225    11.2499999440
Ni      9.8291989609     2.8374461750    11.2499999440
Ni     11.0578482184     4.9655308275    11.2499999440
Ni     12.2864974759     7.0936154800    11.2499999440
Ni      9.8231926870     0.0024995631    13.3023446442
Ni     11.0518089676     2.1302240586    13.3047083557
Ni     12.2800508544     4.2570722939    13.3044621680
Ni     13.5092873083     6.3850384546    13.3032134512
Ni      2.4517696982     0.0021660497    13.3026623307
Ni      3.6803278881     2.1303359107    13.3041135630
Ni      4.9088074938     4.2579363814    13.3054287544
Ni      6.1372745671     6.3857877107    13.3032783798
Ni      4.9086517115     0.0018312594    13.3024060945
Ni      6.1374036838     2.1309748468    13.3056096270
Ni      7.3661495135     4.2582451239    13.3069522585
Ni      8.5943413203     6.3854189562    13.3048451696
Ni      7.3652044956     0.0023769003    13.3020219334
Ni      8.5942385662     2.1304695544    13.3043868044
Ni      9.8231946918     4.2572739512    13.3057506922
Ni     11.0517679695     6.3857120360    13.3033344194
Ni      2.4490339821     1.4222228929    15.3362210124
Ni      3.6772966574     3.5494520554    15.3385526461
Ni      4.9062018672     5.6779299780    15.3378106046
Ni      6.1346571942     7.8070606266    15.3335999053
Ni      4.9058225197     1.4219699914    15.3362206260
Ni      6.1346426084     3.5508505475    15.3401418518
Ni      7.3625330027     5.6784279498    15.3395242568
Ni      8.5915701206     7.8062468470    15.3354851546
Ni      7.3627071376     1.4224398724    15.3370388041
Ni      8.5913286772     3.5492677633    15.3408174188
Ni      9.8201850849     5.6778143804    15.3377746619
Ni     11.0486433115     7.8070023171    15.3347462049
Ni      9.8200953547     1.4222882677    15.3366654644
Ni     11.0486075444     3.5492992589    15.3407265960
Ni     12.2774144623     5.6772885732    15.3359640033
Ni     13.5061541972     7.8063455902    15.3319299253
Ni      1.2187910631     0.7145173608    17.3879334314
Ni      2.4472474227     2.8420654806    17.3934581627
Ni      3.6755426811     4.9714604374    17.3911199588
Ni      4.9045369929     7.0990999797    17.3858410289
Ni      3.6755273590     0.7130852450    17.3897672789
Ni      4.9037000473     2.8423806074    17.3934481142
Ni      6.1319553005     4.9726957480    17.3963328007
Ni      7.3614524743     7.0997441935    17.3897409983
Ni      6.1332850561     0.7119051795    17.3902534707
Ni      7.3623531846     2.8409773484    17.3961534740
Ni      8.5911690953     4.9716069348    17.3936888912
Ni      9.8197669951     7.1000577029    17.3889506467
Ni      8.5911411426     0.7131642395    17.3880087950
Ni      9.8198330590     2.8408219131    17.3957136598
Ni     11.0487030798     4.9704125685    17.3927698418
Ni     12.2763266601     7.0989938309    17.3852102935
O       8.1853233808     3.4574048182    21.7117206478
O       8.5869329741     5.0599815235    19.5762271001
O      10.2109211163     3.6451020548    23.8826602062
C       9.3606393600     4.2890487236    21.7367471584
C       9.7574736302     4.6321502783    20.3055951979
C      10.5272793641     3.6720453941    22.4918474794
H       9.0423459569     5.1976070563    22.2680419510
H      10.2036708160     3.7499198429    19.8025973096
H      10.4835571337     5.4542343167    20.2475656164
H      11.4351836342     4.2717022800    22.2942344717
H      10.7115000118     2.6514065461    22.0984614952
H       8.4384371395     2.5707271966    21.3925898339
H       7.8511829079     4.4818016084    19.8831003151
H      11.0040911060     3.3843978098    24.3788521822
O       2.4676593393     1.4045078651    18.8058894197
H       2.5804189712     1.3115658959    19.7657035449
80
Step 2 | NEB Image 2 | Cartesian Angstrom
Ni      1.2285405503     0.7093150958    11.2498284314
Ni      2.4571517050     2.8374304584    11.2497206723
Ni      3.6857902710     4.9655779989    11.2496481945
Ni      4.9144769256     7.0937249210    11.2496699390
Ni      3.6858458159     0.7092705280    11.2496857080
Ni      4.9144755216     2.8374032120    11.2495326805
Ni      6.1431445128     4.9655832879    11.2494759536
Ni      7.3718449324     7.0937435339    11.2495767113
Ni      6.1432029897     0.7092313317    11.2495997521
Ni      7.3718696542     2.8373789638    11.2494530740
Ni      8.6005561308     4.9655722629    11.2494573311
Ni      9.8292342333     7.0937257202    11.2496102204
Ni      8.6005795730     0.7092309488    11.2496305822
Ni      9.8292655882     2.8373831565    11.2495531333
Ni     11.0579371880     4.9655574445    11.2496038485
Ni     12.2865806708     7.0936884105    11.2497433307
Ni      9.8233292707     0.0021690942    13.3017670735
Ni     11.0520605854     2.1299884788    13.3039040544
Ni     12.2803601805     4.2570579283    13.3037044410
Ni     13.5095349439     6.3851538395    13.3027663255
Ni      2.4515436014     0.0019392545    13.3021391225
Ni      3.6799780920     2.1302126107    13.3031831407
Ni      4.9083314449     4.2580203297    13.3041591511
Ni      6.1369387753     6.3861542355    13.3021181188
Ni      4.9085251774     0.0014537978    13.3016167129
Ni      6.1371840084     2.1306588344    13.3042091043
Ni      7.3659743385     4.2582798234    13.3052196616
Ni      8.5943001299     6.3857797917    13.3035078749
Ni      7.3652112108     0.0019231412    13.3012148156
Ni      8.5943447930     2.1301008778    13.3030540276
Ni      9.8233977754     4.2572519323    13.3043226984
Ni     11.0520059975     6.3859581620    13.3023536893
Ni      2.4480472117     1.4220897265    15.3340264759
Ni      3.6757372251     3.5496510264    15.3359737855
Ni      4.9041602447     5.6791690190    15.3343726027
Ni      6.1338374011     7.8082990677    15.3318252374
Ni      4.9055725206     1.4211183390    15.3326520976
Ni      6.1327563362     3.5504437845    15.3337469116
Ni      7.3613625221     5.6800532895    15.3337666925
Ni      8.5911623801     7.8077926514    15.3327692199
Ni      7.3625977584     1.4199897327    15.3327524665
Ni      8.5917870667     3.5483534765    15.3342498597
Ni      9.8207474699     5.6790037705    15.3324605716
Ni     11.0492668445     7.8081746349    15.3325970954
Ni      9.8207078379     1.4209350784    15.3342205548
Ni     11.0496399036     3.5486728527    15.3372248725
Ni     12.2786504284     5.6779390042    15.3335261134
Ni     13.5066802293     7.8067866098    15.3311774341
Ni      1.2141332617     0.7128500493    17.3837645415
Ni      2.4438726841     2.8460844632    17.3882664477
Ni      3.6691418346     4.9736263728    17.3865200125
Ni      4.9012793623     7.1026711278    17.3829429325
Ni      3.6926659258     0.6990108334    17.3589505380
Ni      4.8922091477     2.8366866127    17.3777503232
Ni      6.1170790349     4.9885576484    17.3582696784
Ni      7.3569876428     7.1067607733    17.3812557091
Ni      6.1321250939     0.7058987064    17.3853433908
Ni      7.3672521958     2.8200329298    17.3434426441
Ni      8.5846067623     4.9740413336    17.3455490857
Ni      9.8205897998     7.1097133407    17.3720410738
Ni      8.5922871233     0.7075045792    17.3827560913
Ni      9.8212295105     2.8314392214    17.3783199727
Ni     11.0600766484     4.9775316234    17.3638253348
Ni     12.2791944238     7.1019463311    17.3813674191
O       8.0535434600     3.2990780379    21.2762455679
O       8.5122268672     5.2113727267    19.1802950825
O       9.7158097615     3.7744616033    23.6806345965
C       9.0054462529     4.3487772604    21.4232039804
C       9.5422945196     4.8861001462    20.0895684759
C      10.1760583337     3.9650112098    22.3240083998
H       8.4264570614     5.1599025968    21.9364624574
H      10.2213383313     4.0962720169    19.6586691166
H      10.1821009364     5.7668630239    20.2845169932
H      10.9498414000     4.7446971385    22.2867564890
H      10.6197876300     3.0232703121    21.9340568351
H       8.4843044175     2.5808366691    20.7330919356
H       6.1048916010     3.5241358925    18.2967409814
H      10.4401175603     3.5312942678    24.2170566843
O       2.5195906275     1.4347468997    18.7915236154
H       2.6530242184     1.4409099243    19.7486965577
80
Step 3 | NEB Image 3 | Cartesian Angstrom
Ni      1.2285124929     0.7093101179    11.2497915220
Ni      2.4571135295     2.8374332121    11.2496522132
Ni      3.6857533844     4.9655941521    11.2495585611
Ni      4.9144475649     7.0937518484    11.2495781494
Ni      3.6858096369     0.7092502409    11.2495805712
Ni      4.9144407564     2.8373982522    11.2493785449
Ni      6.1431180252     4.9655983726    11.2493021591
Ni      7.3718337898     7.0937815506    11.2494157867
Ni      6.1431897042     0.7091897938    11.2494324666
Ni      7.3718694705     2.8373555944    11.2492375638
Ni      8.6005729150     4.9655775827    11.2492293355
Ni      9.8292668801     7.0937644548    11.2494272061
Ni      8.6006022088     0.7091753879    11.2494512709
Ni      9.8293104217     2.8373478262    11.2493430580
Ni     11.0579983826     4.9655564182    11.2494054338
Ni     12.2866402681     7.0937176453    11.2496034846
Ni      9.8234347842     0.0019986314    13.3014249787
Ni     11.0522377154     2.1298564255    13.3035001424
Ni     12.2805746356     4.2569983845    13.3033097722
Ni     13.5097229444     6.3851907604    13.3024955377
Ni      2.4514513781     0.0019011503    13.3019921813
Ni      3.6798386101     2.1302034089    13.3028539472
Ni      4.9082252914     4.2580824423    13.3037701468
Ni      6.1368398688     6.3862418922    13.3017275627
Ni      4.9084742525     0.0013204688    13.3012421786
Ni      6.1371597966     2.1305933843    13.3036492979
Ni      7.3659549616     4.2582642925    13.3045624840
Ni      8.5943382545     6.3858842642    13.3028731541
Ni      7.3652445156     0.0017392273    13.3007907266
Ni      8.5944454641     2.1299536640    13.3024694350
Ni      9.8235720402     4.2571721854    13.3036584718
Ni     11.0522079749     6.3860314415    13.3018278640
Ni      2.4474657523     1.4221854677    15.3336958451
Ni      3.6748678848     3.5500487767    15.3346982516
Ni      4.9039102407     5.6794247370    15.3337442697
Ni      6.1334699741     7.8086657044    15.3309449061
Ni      4.9054505825     1.4207355409    15.3305061693
Ni      6.1328197850     3.5507411288    15.3317867760
Ni      7.3608259298     5.6803046172    15.3312382756
Ni      8.5912708445     7.8085201422    15.3310516236
Ni      7.3628988190     1.4195185513    15.3309199724
Ni      8.5923308079     3.5475000013    15.3314743202
Ni      9.8217388592     5.6792205740    15.3294760854
Ni     11.0499261062     7.8087509620    15.3312822693
Ni      9.8212443345     1.4204430063    15.3330167742
Ni     11.0503764085     3.5480939358    15.3359096309
Ni     12.2795379083     5.6779889428    15.3322449695
Ni     13.5071281657     7.8070120396    15.3306933516
Ni      1.2157933094     0.7139208123    17.3857001731
Ni      2.4431459470     2.8432590660    17.3903011499
Ni      3.6680601689     4.9753705249    17.3847719589
Ni      4.9006692655     7.1030064066    17.3822305133
Ni      3.6895009935     0.6998197204    17.3443231938
Ni      4.8838131911     2.8394664584    17.3526541596
Ni      6.1162038971     4.9857249049    17.3591119515
Ni      7.3543597890     7.1119970830    17.3711555744
Ni      6.1333731131     0.6997324301    17.3758439584
Ni      7.3734967163     2.8262431710    17.3356629143
Ni      8.5921269892     4.9634263814    17.3154759258
Ni      9.8245070264     7.1164531973    17.3607174153
Ni      8.5938969931     0.7037188968    17.3772637445
Ni      9.8251926307     2.8312455741    17.3754370743
Ni     11.0679698197     4.9704934547    17.3528391220
Ni     12.2824829398     7.1037131468    17.3784578000
O       8.6171896762     3.0459034904    20.5030516722
O       8.2302340824     5.5323559649    19.0454172972
O       9.2294369627     3.4374489207    23.2412935455
C       8.7361841336     4.3406061339    21.1439034631
C       9.1602472606     5.3747571460    20.1054128485
C       9.7919248819     4.2637371656    22.2608910298
H       7.7830894469     4.6285727003    21.5920534210
H      10.1627752785     5.0716678773    19.6990989403
H       9.2874223166     6.3503703844    20.6089884021
H      10.0154535202     5.2882793633    22.6310875769
H      10.7284685983     3.8359183852    21.8261616526
H       8.5803492543     2.3880849991    21.2167036907
H       6.1014776565     3.4278389814    18.2971817638
H       9.9934623920     3.3276431959    24.0260402310
O       2.5135508064     0.5910648074    18.8920871146
H       2.5901532220     1.4146855876    19.4687294470
80
Step 4 | NEB Image 4 | Cartesian Angstrom
Ni      1.2285549322     0.7093240197    11.2498508876
Ni      2.4571665688     2.8374384010    11.2497291706
Ni      3.6858145809     4.9655858889    11.2496534756
Ni      4.9144985930     7.0937216631    11.2496755190
Ni      3.6858463127     0.7092756425    11.2496792396
Ni      4.9144908403     2.8374108611    11.2495043496
Ni      6.1431680561     4.9655839957    11.2494462963
Ni      7.3718648919     7.0937418955    11.2495325193
Ni      6.1432098579     0.7092252294    11.2495428713
Ni      7.3718940686     2.8373725662    11.2493838047
Ni      8.6005893647     4.9655603396    11.2493736296
Ni      9.8292731504     7.0937285774    11.2495263240
Ni      8.6006021060     0.7092070477    11.2495414191
Ni      9.8293061936     2.8373600882    11.2494521440
Ni     11.0579912493     4.9655435275    11.2495029826
Ni     12.2866321594     7.0936940828    11.2496631587
Ni      9.8234196632     0.0020666389    13.3015431401
Ni     11.0522100161     2.1299068909    13.3036742380
Ni     12.2805302013     4.2569938643    13.3035144748
Ni     13.5096832460     6.3851421269    13.3026107512
Ni      2.4515404034     0.0019769828    13.3022021985
Ni      3.6799511520     2.1302243778    13.3030811625
Ni      4.9084338731     4.2580897388    13.3040691991
Ni      6.1369941432     6.3861312811    13.3020462137
Ni      4.9085060963     0.0014270862    13.3014783927
Ni      6.1372861541     2.1306909794    13.3040057054
Ni      7.3660857083     4.2582381972    13.3050445717
Ni      8.5944176607     6.3857471885    13.3032185296
Ni      7.3652673864     0.0018644949    13.3009859182
Ni      8.5944573525     2.1300541821    13.3028259474
Ni      9.8235761481     4.2571531379    13.3040488667
Ni     11.0522020430     6.3859273455    13.3020899014
Ni      2.4478779017     1.4220835774    15.3345260889
Ni      3.6751649714     3.5503069730    15.3346807305
Ni      4.9047737126     5.6791639750    15.3347246369
Ni      6.1337817664     7.8082871033    15.3313279232
Ni      4.9053345806     1.4207680455    15.3312035122
Ni      6.1341521692     3.5510620895    15.3334046149
Ni      7.3614764539     5.6795520904    15.3327661812
Ni      8.5916126948     7.8080768452    15.3314956002
Ni      7.3633130216     1.4205693294    15.3321522335
Ni      8.5922712132     3.5475440462    15.3335344593
Ni      9.8220426917     5.6785773779    15.3310409084
Ni     11.0500018531     7.8083458334    15.3317061776
Ni      9.8211416676     1.4207295393    15.3335316083
Ni     11.0503048585     3.5483714391    15.3369900087
Ni     12.2791666847     5.6776091890    15.3332436037
Ni     13.5070588504     7.8068392759    15.3308742054
Ni      1.2177169735     0.7142508068    17.3870820560
Ni      2.4432900688     2.8430711919    17.3888466898
Ni      3.6704924340     4.9760602881    17.3856456953
Ni      4.9019934520     7.1017537423    17.3829361267
Ni      3.6784280981     0.7074678083    17.3639906931
Ni      4.8898006562     2.8504509317    17.3412449292
Ni      6.1209390358     4.9772676574    17.3723149625
Ni      7.3564987609     7.1111080329    17.3698509630
Ni      6.1377200117     0.6985572882    17.3692959435
Ni      7.3713213090     2.8351582946    17.3615817215
Ni      8.6033545613     4.9566146609    17.3281357083
Ni      9.8273375891     7.1129858714    17.3616546126
Ni      8.5940333536     0.7056989896    17.3791233565
Ni      9.8257335309     2.8330864728    17.3772154763
Ni     11.0617499063     4.9679659952    17.3706138678
Ni     12.2820912454     7.1019395096    17.3795985551
O       9.1594543859     3.4685465079    20.0860477610
O       7.7788808808     5.6727354553    18.8876493579
O       8.9789914055     3.2957155695    22.9581148606
C       8.4579145042     4.3906484375    20.8670264779
C       8.4911358425     5.7153056628    20.1224554933
C       9.1175913455     4.5312828228    22.2591749253
H       7.4193106540     4.0815993317    21.0298579038
H       9.5369295644     6.0084377662    19.9365409949
H       8.0188913329     6.5007997309    20.7561785381
H       8.6464605126     5.3709688129    22.8217357516
H      10.1990025257     4.7815989248    22.1108413497
H       9.1770431950     2.5218068921    20.6920396768
H       6.1135759022     2.1444236554    18.3035450907
H       9.4811239886     3.3044600233    23.7289108974
O       2.5391726701     0.6065287544    18.9314292760
H       2.6809417993     1.4105202115    19.4809264953
80
Step 5 | NEB Image 5 | Cartesian Angstrom
Ni      1.2286497034     0.7093615225    11.2499999440
Ni      2.4572989609     2.8374461750    11.2499999440
Ni      3.6859482184     4.9655308275    11.2499999440
Ni      4.9145974759     7.0936154800    11.2499999440
Ni      3.6859497034     0.7093615225    11.2499999440
Ni      4.9145989609     2.8374461750    11.2499999440
Ni      6.1432482184     4.9655308275    11.2499999440
Ni      7.3718974759     7.0936154800    11.2499999440
Ni      6.1432497034     0.7093615225    11.2499999440
Ni      7.3718989609     2.8374461750    11.2499999440
Ni      8.6005482184     4.9655308275    11.2499999440
Ni      9.8291974759     7.0936154800    11.2499999440
Ni      8.6005497034     0.7093615225    11.2499999440
Ni      9.8291989609     2.8374461750    11.2499999440
Ni     11.0578482184     4.9655308275    11.2499999440
Ni     12.2864974759     7.0936154800    11.2499999440
Ni      9.8231926870     0.0024995631    13.3023446442
Ni     11.0518089676     2.1302240586    13.3047083557
Ni     12.2800508544     4.2570722939    13.3044621680
Ni     13.5092873083     6.3850384546    13.3032134512
Ni      2.4517696982     0.0021660497    13.3026623307
Ni      3.6803278881     2.1303359107    13.3041135630
Ni      4.9088074938     4.2579363814    13.3054287544
Ni      6.1372745671     6.3857877107    13.3032783798
Ni      4.9086517115     0.0018312594    13.3024060945
Ni      6.1374036838     2.1309748468    13.3056096270
Ni      7.3661495135     4.2582451239    13.3069522585
Ni      8.5943413203     6.3854189562    13.3048451696
Ni      7.3652044956     0.0023769003    13.3020219334
Ni      8.5942385662     2.1304695544    13.3043868044
Ni      9.8231946918     4.2572739512    13.3057506922
Ni     11.0517679695     6.3857120360    13.3033344194
Ni      2.4490339821     1.4222228929    15.3362210124
Ni      3.6772966574     3.5494520554    15.3385526461
Ni      4.9062018672     5.6779299780    15.3378106046
Ni      6.1346571942     7.8070606266    15.3335999053
Ni      4.9058225197     1.4219699914    15.3362206260
Ni      6.1346426084     3.5508505475    15.3401418518
Ni      7.3625330027     5.6784279498    15.3395242568
Ni      8.5915701206     7.8062468470    15.3354851546
Ni      7.3627071376     1.4224398724    15.3370388041
Ni      8.5913286772     3.5492677633    15.3408174188
Ni      9.8201850849     5.6778143804    15.3377746619
Ni     11.0486433115     7.8070023171    15.3347462049
Ni      9.8200953547     1.4222882677    15.3366654644
Ni     11.0486075444     3.5492992589    15.3407265960
Ni     12.2774144623     5.6772885732    15.3359640033
Ni     13.5061541972     7.8063455902    15.3319299253
Ni      1.2187910631     0.7145173608    17.3879334314
Ni      2.4472474227     2.8420654806    17.3934581627
Ni      3.6755426811     4.9714604374    17.3911199588
Ni      4.9045369929     7.0990999797    17.3858410289
Ni      3.6755273590     0.7130852450    17.3897672789
Ni      4.9037000473     2.8423806074    17.3934481142
Ni      6.1319553005     4.9726957480    17.3963328007
Ni      7.3614524743     7.0997441935    17.3897409983
Ni      6.1332850561     0.7119051795    17.3902534707
Ni      7.3623531846     2.8409773484    17.3961534740
Ni      8.5911690953     4.9716069348    17.3936888912
Ni      9.8197669951     7.1000577029    17.3889506467
Ni      8.5911411426     0.7131642395    17.3880087950
Ni      9.8198330590     2.8408219131    17.3957136598
Ni     11.0487030798     4.9704125685    17.3927698418
Ni     12.2763266601     7.0989938309    17.3852102935
O       9.3819344244     4.1358166692    20.0930362367
O       7.4403591999     5.7710500252    18.8010456662
O       8.6054614657     3.3490556865    22.7703843692
C       8.1664603160     4.5686069475    20.7700096311
C       7.7641571257     5.9228005922    20.1887078083
C       8.3912004598     4.6889035721    22.2787219386
H       7.3485584428     3.8274455412    20.5710354409
H       8.5939941550     6.6612606078    20.2727262356
H       6.8675792875     6.3118286823    20.7285291220
H       7.5127131407     5.1500412147    22.7730789076
H       9.2780443246     5.3384479547    22.4478370724
H       9.6348023466     3.2728259917    20.4951539629
H       4.4134518168     1.3599542848    19.7391102444
H       8.7500633813     3.3953291848    23.7317250903
O       3.5190441201     1.0401590876    20.0091886335
H       2.9303167551     1.7729858078    19.7218291788
