80
Step 1 | NEB Image 1 | Cartesian Angstrom
Ni      1.2286497034     0.7093615225    11.2499999440
Ni      2.4572989609     2.8374461750    11.2499999440
Ni      3.6859482184     4.9655308275    11.2499999440
Ni      4.9145974759     7.0936154800    11.2499999440
Ni      3.6859497034     0.7093615225    11.2499999440
Ni      4.9145989609     2.8374461750    11.2499999440
Ni      6.1432482184     4.9655308275    11.2499999440
Ni      7.3718974759     7.0936154800    11.2499999440
Ni      6.1432497034     0.7093615225    11.2499999440
Ni      7.3718989609     2.8374461750    11.2499999440
Ni      8.6005482184     4.9655308275    11.2499999440
Ni      9.8291974759     7.0936154800    11.2499999440
Ni      8.6005497034     0.7093615225    11.2499999440
Ni      9.8291989609     2.8374461750    11.2499999440
Ni     11.0578482184     4.9655308275    11.2499999440
Ni     12.2864974759     7.0936154800    11.2499999440
Ni      9.8231926870     0.0024995631    13.3023446442
Ni     11.0518089676     2.1302240586    13.3047083557
Ni     12.2800508544     4.2570722939    13.3044621680
Ni     13.5092873083     6.3850384546    13.3032134512
Ni      2.4517696982     0.0021660497    13.3026623307
Ni      3.6803278881     2.1303359107    13.3041135630
Ni      4.9088074938     4.2579363814    13.3054287544
Ni      6.1372745671     6.3857877107    13.3032783798
Ni      4.9086517115     0.0018312594    13.3024060945
Ni      6.1374036838     2.1309748468    13.3056096270
Ni      7.3661495135     4.2582451239    13.3069522585
Ni      8.5943413203     6.3854189562    13.3048451696
Ni      7.3652044956     0.0023769003    13.3020219334
Ni      8.5942385662     2.1304695544    13.3043868044
Ni      9.8231946918     4.2572739512    13.3057506922
Ni     11.0517679695     6.3857120360    13.3033344194
Ni      2.4490339821     1.4222228929    15.3362210124
Ni      3.6772966574     3.5494520554    15.3385526461
Ni      4.9062018672     5.6779299780    15.3378106046
Ni      6.1346571942     7.8070606266    15.3335999053
Ni      4.9058225197     1.4219699914    15.3362206260
Ni      6.1346426084     3.5508505475    15.3401418518
Ni      7.3625330027     5.6784279498    15.3395242568
Ni      8.5915701206     7.8062468470    15.3354851546
Ni      7.3627071376     1.4224398724    15.3370388041
Ni      8.5913286772     3.5492677633    15.3408174188
Ni      9.8201850849     5.6778143804    15.3377746619
Ni     11.0486433115     7.8070023171    15.3347462049
Ni      9.8200953547     1.4222882677    15.3366654644
Ni     11.0486075444     3.5492992589    15.3407265960
Ni     12.2774144623     5.6772885732    15.3359640033
Ni     13.5061541972     7.8063455902    15.3319299253
Ni      1.2187910631     0.7145173608    17.3879334314
Ni      2.4472474227     2.8420654806    17.3934581627
Ni      3.6755426811     4.9714604374    17.3911199588
Ni      4.9045369929     7.0990999797    17.3858410289
Ni      3.6755273590     0.7130852450    17.3897672789
Ni      4.9037000473     2.8423806074    17.3934481142
Ni      6.1319553005     4.9726957480    17.3963328007
Ni      7.3614524743     7.0997441935    17.3897409983
Ni      6.1332850561     0.7119051795    17.3902534707
Ni      7.3623531846     2.8409773484    17.3961534740
Ni      8.5911690953     4.9716069348    17.3936888912
Ni      9.8197669951     7.1000577029    17.3889506467
Ni      8.5911411426     0.7131642395    17.3880087950
Ni      9.8198330590     2.8408219131    17.3957136598
Ni     11.0487030798     4.9704125685    17.3927698418
Ni     12.2763266601     7.0989938309    17.3852102935
O       8.1853233808     3.4574048182    21.7117206478
O       8.5869329741     5.0599815235    19.5762271001
O      10.2109211163     3.6451020548    23.8826602062
C       9.3606393600     4.2890487236    21.7367471584
C       9.7574736302     4.6321502783    20.3055951979
C      10.5272793641     3.6720453941    22.4918474794
H       9.0423459569     5.1976070563    22.2680419510
H      10.2036708160     3.7499198429    19.8025973096
H      10.4835571337     5.4542343167    20.2475656164
H      11.4351836342     4.2717022800    22.2942344717
H      10.7115000118     2.6514065461    22.0984614952
H       8.4384371395     2.5707271966    21.3925898339
H       7.8511829079     4.4818016084    19.8831003151
H      11.0040911060     3.3843978098    24.3788521822
O       2.4676593393     1.4045078651    18.8058894197
H       2.5804189712     1.3115658959    19.7657035449
80
Step 2 | NEB Image 2 | Cartesian Angstrom
Ni      1.2286454144     0.7093564848    11.2499899213
Ni      2.4572933711     2.8374423859    11.2499877479
Ni      3.6859402755     4.9655306880    11.2499861998
Ni      4.9145919335     7.0936202130    11.2499905656
Ni      3.6859500977     0.7093565998    11.2499992549
Ni      4.9145955099     2.8374416813    11.2499981103
Ni      6.1432439611     4.9655320757    11.2499982985
Ni      7.3718941914     7.0936180155    11.2500082344
Ni      6.1432484452     0.7093603482    11.2500148640
Ni      7.3718942277     2.8374464844    11.2500142522
Ni      8.6005414150     4.9655349640    11.2500207818
Ni      9.8291878388     7.0936148685    11.2500239774
Ni      8.6005437505     0.7093668953    11.2500255056
Ni      9.8291883743     2.8374527876    11.2500276645
Ni     11.0578334761     4.9655355848    11.2500302147
Ni     12.2864825937     7.0936133833    11.2500248848
Ni      9.8231646815     0.0025272653    13.3024137524
Ni     11.0517654514     2.1302487194    13.3047705528
Ni     12.2799990128     4.2570979907    13.3045269566
Ni     13.5092382093     6.3850396279    13.3032694885
Ni      2.4517767736     0.0021478131    13.3026475337
Ni      3.6803376042     2.1303208190    13.3041205904
Ni      4.9087809470     4.2579202752    13.3054102715
Ni      6.1372670183     6.3858048451    13.3032774234
Ni      4.9086555399     0.0018338537    13.3024561968
Ni      6.1373795136     2.1309553082    13.3056501567
Ni      7.3661299545     4.2582580706    13.3069854017
Ni      8.5943162187     6.3854276116    13.3049307322
Ni      7.3651897015     0.0023911176    13.3020929175
Ni      8.5942078204     2.1304800819    13.3044494773
Ni      9.8231446310     4.2573080725    13.3058354871
Ni     11.0517104730     6.3857171068    13.3034253323
Ni      2.4491484171     1.4221584255    15.3360256972
Ni      3.6774580485     3.5492940071    15.3387490206
Ni      4.9059922282     5.6780057172    15.3375596950
Ni      6.1346984369     7.8070855799    15.3337320541
Ni      4.9058419652     1.4220164366    15.3366630804
Ni      6.1343053783     3.5506446348    15.3400479172
Ni      7.3625953259     5.6785710430    15.3397965324
Ni      8.5914522840     7.8061513118    15.3358623281
Ni      7.3625447524     1.4222682803    15.3372171624
Ni      8.5911459824     3.5495247548    15.3410737881
Ni      9.8198050874     5.6779046731    15.3383290960
Ni     11.0484307728     7.8069190717    15.3350231458
Ni      9.8199404772     1.4223051813    15.3368434310
Ni     11.0484239852     3.5494699826    15.3407863839
Ni     12.2771950495     5.6773703827    15.3361741623
Ni     13.5060269908     7.8063104535    15.3320376521
Ni      1.2172688105     0.7137531022    17.3863639160
Ni      2.4470612973     2.8440156882    17.3917132209
Ni      3.6750278222     4.9709732638    17.3912137950
Ni      4.9043019552     7.0995117180    17.3857163862
Ni      3.6797925921     0.7104362183    17.3916152628
Ni      4.9057809572     2.8400767680    17.4028795004
Ni      6.1300010265     4.9765791237    17.3898779841
Ni      7.3619659144     7.0983929133    17.3931647353
Ni      6.1324741334     0.7138709413    17.3940075791
Ni      7.3602140342     2.8347169374    17.3913230919
Ni      8.5865077665     4.9770286034    17.4001497005
Ni      9.8180305997     7.0984401476    17.3916132413
Ni      8.5905640694     0.7140357094    17.3897440463
Ni      9.8181886658     2.8394336701    17.3943393582
Ni     11.0468418302     4.9748425444    17.3932240125
Ni     12.2752369106     7.0986444970    17.3859630007
O       8.1600816957     3.4873310857    21.7882206009
O       8.6646624889     4.8995016233    19.3069546695
O      10.4166582752     3.9530235020    23.7432061992
C       9.3830079832     4.2177623094    21.5798383759
C       9.7207660535     4.3351472506    20.0574764274
C      10.5598368820     3.5818498094    22.3551173438
H       9.2223473249     5.2236643620    22.0227466063
H       9.9452285867     3.2880733326    19.6900881489
H      10.6689275191     4.9192661352    19.9443796041
H      11.5396214161     3.9400021749    21.9499557889
H      10.4996761604     2.4757998551    22.2198873992
H       8.0968445913     2.8303257898    21.0572732254
H       6.4899523775     3.7496005697    18.4923850419
H      11.1732651271     3.6066974513    24.2495085159
O       2.5140470017     1.5200541669    18.8090765807
H       2.6412852457     1.5725158915    19.7780298186
80
Step 3 | NEB Image 3 | Cartesian Angstrom
Ni      1.2285671148     0.7093270166    11.2498707869
Ni      2.4571874741     2.8374349189    11.2497886701
Ni      3.6858290605     4.9655669909    11.2497334984
Ni      4.9145064553     7.0936982832    11.2497493148
Ni      3.6858701677     0.7092928778    11.2497596637
Ni      4.9145052940     2.8374142077    11.2496426723
Ni      6.1431698547     4.9655707262    11.2495992365
Ni      7.3718580396     7.0937129437    11.2496743436
Ni      6.1432142551     0.7092621150    11.2496906365
Ni      7.3718776014     2.8373946614    11.2495784681
Ni      8.6005557781     4.9655616634    11.2495803997
Ni      9.8292276706     7.0936999391    11.2496967468
Ni      8.6005738244     0.7092604704    11.2497119986
Ni      9.8292521933     2.8373965704    11.2496522694
Ni     11.0579194138     4.9655501983    11.2496905851
Ni     12.2865642624     7.0936716984    11.2497984209
Ni      9.8233030432     0.0022408735    13.3018883320
Ni     11.0520106352     2.1300386671    13.3040798681
Ni     12.2802983685     4.2570560409    13.3038690982
Ni     13.5094869686     6.3851264127    13.3028598462
Ni      2.4515954043     0.0019962524    13.3022653344
Ni      3.6800583138     2.1302445078    13.3033998383
Ni      4.9084490478     4.2580040987    13.3044604507
Ni      6.1370195161     6.3860646993    13.3023905542
Ni      4.9085540726     0.0015418599    13.3017919254
Ni      6.1372408947     2.1307370109    13.3045293261
Ni      7.3660199634     4.2582689485    13.3056195309
Ni      8.5943153393     6.3856931150    13.3038041907
Ni      7.3652127977     0.0020267378    13.3013896506
Ni      8.5943263705     2.1301852480    13.3033540000
Ni      9.8233606638     4.2572500223    13.3046405883
Ni     11.0519621883     6.3858991361    13.3025653581
Ni      2.4482565505     1.4221330742    15.3345824779
Ni      3.6760695714     3.5496384596    15.3365341921
Ni      4.9046837791     5.6788635073    15.3352303144
Ni      6.1340220009     7.8080031693    15.3322141871
Ni      4.9056259847     1.4213073959    15.3333979415
Ni      6.1332727313     3.5505823258    15.3352654757
Ni      7.3616267947     5.6796408750    15.3350621733
Ni      8.5912834672     7.8074491520    15.3333280926
Ni      7.3626589067     1.4206019339    15.3337224870
Ni      8.5917169358     3.5485145823    15.3357407292
Ni      9.8206955413     5.6787042611    15.3335959779
Ni     11.0491652372     7.8079158432    15.3330441788
Ni      9.8205959161     1.4212485851    15.3347571402
Ni     11.0494362664     3.5487860014    15.3380352218
Ni     12.2784046097     5.6777684597    15.3340578511
Ni     13.5065830580     7.8066898880    15.3313320203
Ni      1.2155386221     0.7133950576    17.3850619686
Ni      2.4446968536     2.8447530345    17.3898180999
Ni      3.6707525147     4.9732255176    17.3875776886
Ni      4.9020942240     7.1017480189    17.3836475455
Ni      3.6877379501     0.7028751361    17.3658837991
Ni      4.8945035555     2.8385531611    17.3794176978
Ni      6.1209695047     4.9840219610    17.3685257960
Ni      7.3579375857     7.1053949596    17.3825290073
Ni      6.1325888623     0.7068909633    17.3856818705
Ni      7.3665299434     2.8262358202    17.3568662516
Ni      8.5871541812     4.9723310102    17.3555332101
Ni      9.8207689949     7.1077695422    17.3754445782
Ni      8.5921380945     0.7086590959    17.3836402544
Ni      9.8212409386     2.8339166837    17.3826588624
Ni     11.0577635116     4.9749608045    17.3705919620
Ni     12.2787447740     7.1013176874    17.3821173597
O       8.4950244482     3.3380384058    20.4637406975
O       9.0105153675     5.8408029407    18.9903095200
O       9.4577454962     3.5478141289    23.2656684201
C       9.1489695835     4.4683636198    21.0640185697
C       9.8714517205     5.2293455158    19.9521085030
C      10.1772059799     4.0443253321    22.1163414199
H       8.4060161156     5.1417866578    21.5509878335
H      10.5559721999     4.4813780731    19.4539531032
H      10.4974323493     6.0206759438    20.4034486940
H      10.8127973436     4.9147502884    22.3930634463
H      10.8259493979     3.2461429619    21.6915741015
H       8.1899672534     2.7347684448    21.1650136642
H       6.1334337776     3.5598601511    18.3125890429
H      10.1208437958     3.2744910808    23.9243219744
O       2.4884043379     0.5188602747    18.8787132938
H       2.5447861561     1.2276298069    19.5550137812
80
Step 4 | NEB Image 4 | Cartesian Angstrom
Ni      1.2285410896     0.7093186183    11.2498303699
Ni      2.4571489326     2.8374361291    11.2497011230
Ni      3.6857943281     4.9655891479    11.2496188854
Ni      4.9144821841     7.0937326536    11.2496416305
Ni      3.6858347309     0.7092662764    11.2496468445
Ni      4.9144749063     2.8374059503    11.2494610519
Ni      6.1431525540     4.9655890812    11.2493970752
Ni      7.3718554844     7.0937553194    11.2494942024
Ni      6.1432035485     0.7092129696    11.2495077484
Ni      7.3718866312     2.8373666972    11.2493359586
Ni      8.6005845796     4.9655662601    11.2493273944
Ni      9.8292711514     7.0937401099    11.2494956239
Ni      8.6006020201     0.7091967106    11.2495136676
Ni      9.8293073818     2.8373564535    11.2494180613
Ni     11.0579930963     4.9655480950    11.2494734631
Ni     12.2866340578     7.0937014046    11.2496457156
Ni      9.8234226500     0.0020455944    13.3015097835
Ni     11.0522167519     2.1298921876    13.3036201462
Ni     12.2805412250     4.2569985921    13.3034547612
Ni     13.5096918621     6.3851571326    13.3025796515
Ni      2.4515139747     0.0019497054    13.3021351767
Ni      3.6799160934     2.1302135772    13.3030021966
Ni      4.9083666501     4.2580877819    13.3039596569
Ni      6.1369467762     6.3861705669    13.3019377691
Ni      4.9084955838     0.0013915578    13.3014079571
Ni      6.1372460589     2.1306558250    13.3038881149
Ni      7.3660465206     4.2582474345    13.3048865797
Ni      8.5943935837     6.3857913102    13.3031124141
Ni      7.3652597752     0.0018242255    13.3009280872
Ni      8.5944526099     2.1300216038    13.3027136914
Ni      9.8235729057     4.2571624534    13.3039293564
Ni     11.0522009978     6.3859598435    13.3020144202
Ni      2.4477700627     1.4220941091    15.3342361120
Ni      3.6750761907     3.5502258662    15.3346444750
Ni      4.9044777670     5.6792725278    15.3343556098
Ni      6.1336910236     7.8084158224    15.3312080382
Ni      4.9053584610     1.4207440197    15.3310076761
Ni      6.1337283199     3.5509416823    15.3328260571
Ni      7.3612983330     5.6797995168    15.3322844003
Ni      8.5915011281     7.8082105739    15.3313736609
Ni      7.3631853985     1.4202232828    15.3317670678
Ni      8.5922693910     3.5475486662    15.3329005030
Ni      9.8219257952     5.6787782902    15.3306069797
Ni     11.0499675418     7.8084620364    15.3315889441
Ni      9.8211587860     1.4206262489    15.3333688719
Ni     11.0503216395     3.5483146250    15.3366442064
Ni     12.2792551103     5.6777308632    15.3329704483
Ni     13.5070699574     7.8068872570    15.3308270971
Ni      1.2168885497     0.7140054837    17.3863892644
Ni      2.4431329408     2.8435342573    17.3887761777
Ni      3.6696527279     4.9758786117    17.3853242754
Ni      4.9015497039     7.1022168745    17.3826676067
Ni      3.6822212092     0.7048327491    17.3587262665
Ni      4.8883785948     2.8473043199    17.3450230431
Ni      6.1190876454     4.9803399245    17.3670889593
Ni      7.3559445945     7.1113020679    17.3704669976
Ni      6.1365209114     0.6989814779    17.3713166302
Ni      7.3716403280     2.8314617975    17.3531656769
Ni      8.5997547496     4.9591640693    17.3247935955
Ni      9.8264102539     7.1138274991    17.3613817329
Ni      8.5939416299     0.7052061043    17.3788064902
Ni      9.8253840223     2.8321682014    17.3760926925
Ni     11.0632588739     4.9694645390    17.3656344396
Ni     12.2820927314     7.1023903072    17.3793379364
O       9.0562385206     3.3899952979    20.0063667825
O       7.9308687167     5.7883621578    18.8851632558
O       9.0398533438     3.2659572187    22.8257437018
C       8.5718590340     4.4629147535    20.8269018193
C       8.7372723165     5.7707411605    20.0631666817
C       9.3342230651     4.4949025927    22.1418898232
H       7.4989441738     4.3124669079    21.0302289710
H       9.7995476704     5.9022393767    19.7906988508
H       8.4376240759     6.6139095007    20.7046831217
H       9.0187623798     5.3640906548    22.7412197105
H      10.4106733774     4.5788028071    21.9285164529
H       8.8915691487     2.5517613043    20.4786948146
H       6.1383147166     2.1680890305    18.2894683726
H       9.6479719472     3.1725197235    23.5768412621
O       2.4672406405     0.5032931157    18.8981313080
H       2.4810556927     1.2655038287    19.5136732508
80
Step 5 | NEB Image 5 | Cartesian Angstrom
Ni      1.2286497034     0.7093615225    11.2499999440
Ni      2.4572989609     2.8374461750    11.2499999440
Ni      3.6859482184     4.9655308275    11.2499999440
Ni      4.9145974759     7.0936154800    11.2499999440
Ni      3.6859497034     0.7093615225    11.2499999440
Ni      4.9145989609     2.8374461750    11.2499999440
Ni      6.1432482184     4.9655308275    11.2499999440
Ni      7.3718974759     7.0936154800    11.2499999440
Ni      6.1432497034     0.7093615225    11.2499999440
Ni      7.3718989609     2.8374461750    11.2499999440
Ni      8.6005482184     4.9655308275    11.2499999440
Ni      9.8291974759     7.0936154800    11.2499999440
Ni      8.6005497034     0.7093615225    11.2499999440
Ni      9.8291989609     2.8374461750    11.2499999440
Ni     11.0578482184     4.9655308275    11.2499999440
Ni     12.2864974759     7.0936154800    11.2499999440
Ni      9.8231926870     0.0024995631    13.3023446442
Ni     11.0518089676     2.1302240586    13.3047083557
Ni     12.2800508544     4.2570722939    13.3044621680
Ni     13.5092873083     6.3850384546    13.3032134512
Ni      2.4517696982     0.0021660497    13.3026623307
Ni      3.6803278881     2.1303359107    13.3041135630
Ni      4.9088074938     4.2579363814    13.3054287544
Ni      6.1372745671     6.3857877107    13.3032783798
Ni      4.9086517115     0.0018312594    13.3024060945
Ni      6.1374036838     2.1309748468    13.3056096270
Ni      7.3661495135     4.2582451239    13.3069522585
Ni      8.5943413203     6.3854189562    13.3048451696
Ni      7.3652044956     0.0023769003    13.3020219334
Ni      8.5942385662     2.1304695544    13.3043868044
Ni      9.8231946918     4.2572739512    13.3057506922
Ni     11.0517679695     6.3857120360    13.3033344194
Ni      2.4490339821     1.4222228929    15.3362210124
Ni      3.6772966574     3.5494520554    15.3385526461
Ni      4.9062018672     5.6779299780    15.3378106046
Ni      6.1346571942     7.8070606266    15.3335999053
Ni      4.9058225197     1.4219699914    15.3362206260
Ni      6.1346426084     3.5508505475    15.3401418518
Ni      7.3625330027     5.6784279498    15.3395242568
Ni      8.5915701206     7.8062468470    15.3354851546
Ni      7.3627071376     1.4224398724    15.3370388041
Ni      8.5913286772     3.5492677633    15.3408174188
Ni      9.8201850849     5.6778143804    15.3377746619
Ni     11.0486433115     7.8070023171    15.3347462049
Ni      9.8200953547     1.4222882677    15.3366654644
Ni     11.0486075444     3.5492992589    15.3407265960
Ni     12.2774144623     5.6772885732    15.3359640033
Ni     13.5061541972     7.8063455902    15.3319299253
Ni      1.2187910631     0.7145173608    17.3879334314
Ni      2.4472474227     2.8420654806    17.3934581627
Ni      3.6755426811     4.9714604374    17.3911199588
Ni      4.9045369929     7.0990999797    17.3858410289
Ni      3.6755273590     0.7130852450    17.3897672789
Ni      4.9037000473     2.8423806074    17.3934481142
Ni      6.1319553005     4.9726957480    17.3963328007
Ni      7.3614524743     7.0997441935    17.3897409983
Ni      6.1332850561     0.7119051795    17.3902534707
Ni      7.3623531846     2.8409773484    17.3961534740
Ni      8.5911690953     4.9716069348    17.3936888912
Ni      9.8197669951     7.1000577029    17.3889506467
Ni      8.5911411426     0.7131642395    17.3880087950
Ni      9.8198330590     2.8408219131    17.3957136598
Ni     11.0487030798     4.9704125685    17.3927698418
Ni     12.2763266601     7.0989938309    17.3852102935
O       9.3819344244     4.1358166692    20.0930362367
O       7.4403591999     5.7710500252    18.8010456662
O       8.6054614657     3.3490556865    22.7703843692
C       8.1664603160     4.5686069475    20.7700096311
C       7.7641571257     5.9228005922    20.1887078083
C       8.3912004598     4.6889035721    22.2787219386
H       7.3485584428     3.8274455412    20.5710354409
H       8.5939941550     6.6612606078    20.2727262356
H       6.8675792875     6.3118286823    20.7285291220
H       7.5127131407     5.1500412147    22.7730789076
H       9.2780443246     5.3384479547    22.4478370724
H       9.6348023466     3.2728259917    20.4951539629
H       4.4134518168     1.3599542848    19.7391102444
H       8.7500633813     3.3953291848    23.7317250903
O       3.5190441201     1.0401590876    20.0091886335
H       2.9303167551     1.7729858078    19.7218291788
