80
Step 1 | NEB Image 1 | Cartesian Angstrom
Ni      1.2286497034     0.7093615225    11.2499999440
Ni      2.4572989609     2.8374461750    11.2499999440
Ni      3.6859482184     4.9655308275    11.2499999440
Ni      4.9145974759     7.0936154800    11.2499999440
Ni      3.6859497034     0.7093615225    11.2499999440
Ni      4.9145989609     2.8374461750    11.2499999440
Ni      6.1432482184     4.9655308275    11.2499999440
Ni      7.3718974759     7.0936154800    11.2499999440
Ni      6.1432497034     0.7093615225    11.2499999440
Ni      7.3718989609     2.8374461750    11.2499999440
Ni      8.6005482184     4.9655308275    11.2499999440
Ni      9.8291974759     7.0936154800    11.2499999440
Ni      8.6005497034     0.7093615225    11.2499999440
Ni      9.8291989609     2.8374461750    11.2499999440
Ni     11.0578482184     4.9655308275    11.2499999440
Ni     12.2864974759     7.0936154800    11.2499999440
Ni      9.8231926870     0.0024995631    13.3023446442
Ni     11.0518089676     2.1302240586    13.3047083557
Ni     12.2800508544     4.2570722939    13.3044621680
Ni     13.5092873083     6.3850384546    13.3032134512
Ni      2.4517696982     0.0021660497    13.3026623307
Ni      3.6803278881     2.1303359107    13.3041135630
Ni      4.9088074938     4.2579363814    13.3054287544
Ni      6.1372745671     6.3857877107    13.3032783798
Ni      4.9086517115     0.0018312594    13.3024060945
Ni      6.1374036838     2.1309748468    13.3056096270
Ni      7.3661495135     4.2582451239    13.3069522585
Ni      8.5943413203     6.3854189562    13.3048451696
Ni      7.3652044956     0.0023769003    13.3020219334
Ni      8.5942385662     2.1304695544    13.3043868044
Ni      9.8231946918     4.2572739512    13.3057506922
Ni     11.0517679695     6.3857120360    13.3033344194
Ni      2.4490339821     1.4222228929    15.3362210124
Ni      3.6772966574     3.5494520554    15.3385526461
Ni      4.9062018672     5.6779299780    15.3378106046
Ni      6.1346571942     7.8070606266    15.3335999053
Ni      4.9058225197     1.4219699914    15.3362206260
Ni      6.1346426084     3.5508505475    15.3401418518
Ni      7.3625330027     5.6784279498    15.3395242568
Ni      8.5915701206     7.8062468470    15.3354851546
Ni      7.3627071376     1.4224398724    15.3370388041
Ni      8.5913286772     3.5492677633    15.3408174188
Ni      9.8201850849     5.6778143804    15.3377746619
Ni     11.0486433115     7.8070023171    15.3347462049
Ni      9.8200953547     1.4222882677    15.3366654644
Ni     11.0486075444     3.5492992589    15.3407265960
Ni     12.2774144623     5.6772885732    15.3359640032
Ni     13.5061541972     7.8063455902    15.3319299253
Ni      1.2187910631     0.7145173608    17.3879334314
Ni      2.4472474227     2.8420654806    17.3934581627
Ni      3.6755426811     4.9714604374    17.3911199588
Ni      4.9045369929     7.0990999797    17.3858410289
Ni      3.6755273590     0.7130852450    17.3897672789
Ni      4.9037000473     2.8423806074    17.3934481142
Ni      6.1319553005     4.9726957480    17.3963328007
Ni      7.3614524743     7.0997441935    17.3897409983
Ni      6.1332850561     0.7119051795    17.3902534707
Ni      7.3623531846     2.8409773484    17.3961534740
Ni      8.5911690953     4.9716069348    17.3936888912
Ni      9.8197669951     7.1000577029    17.3889506467
Ni      8.5911411426     0.7131642395    17.3880087950
Ni      9.8198330590     2.8408219131    17.3957136598
Ni     11.0487030798     4.9704125685    17.3927698418
Ni     12.2763266601     7.0989938309    17.3852102935
O       8.1853233808     3.4574048182    21.7117206478
O       8.5869329741     5.0599815235    19.5762271001
O      10.2109211163     3.6451020548    23.8826602062
C       9.3606393600     4.2890487236    21.7367471584
C       9.7574736302     4.6321502783    20.3055951979
C      10.5272793641     3.6720453941    22.4918474794
H       9.0423459569     5.1976070563    22.2680419510
H      10.2036708160     3.7499198429    19.8025973096
H      10.4835571337     5.4542343167    20.2475656164
H      11.4351836342     4.2717022800    22.2942344717
H      10.7115000118     2.6514065461    22.0984614952
H       8.4384371395     2.5707271966    21.3925898339
H       7.8511829079     4.4818016084    19.8831003151
H      11.0040911060     3.3843978098    24.3788521822
O       2.4676593393     1.4045078651    18.8058894197
H       2.5804189712     1.3115658959    19.7657035449
80
Step 2 | NEB Image 2 | Cartesian Angstrom
Ni      1.2285223540     0.7093095719    11.2498021264
Ni      2.4571270547     2.8374300015    11.2496751840
Ni      3.6857651225     4.9655871422    11.2495898166
Ni      4.9144573459     7.0937427786    11.2496127172
Ni      3.6858254819     0.7092563492    11.2496255733
Ni      4.9144539767     2.8373979878    11.2494439676
Ni      6.1431272759     4.9655925410    11.2493761686
Ni      7.3718369227     7.0937665023    11.2494895718
Ni      6.1431947949     0.7092070623    11.2495125423
Ni      7.3718671048     2.8373658221    11.2493380683
Ni      8.6005621405     4.9655774735    11.2493387119
Ni      9.8292477409     7.0937474061    11.2495188936
Ni      8.6005893113     0.7092021836    11.2495421627
Ni      9.8292855103     2.8373665636    11.2494483495
Ni     11.0579642136     4.9655593775    11.2495070791
Ni     12.2866066986     7.0937039062    11.2496770408
Ni      9.8233744439     0.0020867945    13.3016091734
Ni     11.0521383128     2.1299264553    13.3037072399
Ni     12.2804546870     4.2570377553    13.3035145088
Ni     13.5096157978     6.3851753876    13.3026421849
Ni      2.4514950516     0.0019078785    13.3020479349
Ni      3.6799040051     2.1301992239    13.3029994086
Ni      4.9082572404     4.2580472179    13.3039276071
Ni      6.1368787818     6.3862132408    13.3018953439
Ni      4.9084982305     0.0013793262    13.3014304990
Ni      6.1371576450     2.1306111841    13.3039120704
Ni      7.3659532853     4.2582778274    13.3048634459
Ni      8.5943087542     6.3858436754    13.3031923537
Ni      7.3652223768     0.0018260929    13.3010113331
Ni      8.5943858440     2.1300227322    13.3027548452
Ni      9.8234704680     4.2572246827    13.3039900833
Ni     11.0520904776     6.3860023827    13.3021030833
Ni      2.4477783411     1.4221089466    15.3337349689
Ni      3.6753281935     3.5497944505    15.3353491106
Ni      4.9039073589     5.6793555287    15.3338808748
Ni      6.1336508514     7.8085208709    15.3313944388
Ni      4.9055125404     1.4209242711    15.3316662384
Ni      6.1326162826     3.5505038808    15.3325803690
Ni      7.3610922984     5.6802712801    15.3324732828
Ni      8.5911622557     7.8081554081    15.3319920646
Ni      7.3626842203     1.4196317534    15.3318054017
Ni      8.5919990449     3.5480042507    15.3328089713
Ni      9.8211106786     5.6791737867    15.3310595483
Ni     11.0495295616     7.8084575977    15.3319962195
Ni      9.8209305832     1.4206636397    15.3336299331
Ni     11.0499619065     3.5484353746    15.3365090307
Ni     12.2790378363     5.6780101401    15.3329113257
Ni     13.5068674434     7.8068958083    15.3309594863
Ni      1.2142664130     0.7130495188    17.3840270184
Ni      2.4433552180     2.8455256874    17.3884745356
Ni      3.6682542410     4.9743650532    17.3855733447
Ni      4.9008086359     7.1030809187    17.3824702749
Ni      3.6931141037     0.6980732470    17.3516762064
Ni      4.8885605364     2.8370859677    17.3684331368
Ni      6.1155381420     4.9890026539    17.3553077939
Ni      7.3557719894     7.1090228197    17.3773213078
Ni      6.1324229087     0.7034267778    17.3819047103
Ni      7.3696560707     2.8202322430    17.3364907658
Ni      8.5864416016     4.9708701451    17.3318909045
Ni      9.8219058705     7.1126784610    17.3670024507
Ni      8.5928967467     0.7058190804    17.3805617847
Ni      9.8226094399     2.8305817418    17.3759272991
Ni     11.0635553097     4.9758950783    17.3578694154
Ni     12.2804845554     7.1027595701    17.3801150543
O       8.0676054638     3.1633153664    21.2575811681
O       8.3660108755     5.1899557861    19.1892125224
O       9.5187287076     3.6690837746    23.6283357102
C       8.8385366214     4.3551653740    21.4908351977
C       9.3631067159     5.0187364793    20.1761107711
C      10.0550300495     4.0449616937    22.3950625828
H       8.1834182093     5.0390750173    22.0193665035
H      10.2003211057     4.4049598636    19.7833869611
H       9.7821098368     6.0076259692    20.4529083739
H      10.7042899209     4.9420962851    22.4634456036
H      10.6466949480     3.2383377948    21.9175006172
H       8.6292216483     2.4837335716    20.9287743799
H       6.6149832265     3.5891417973    18.4125532372
H      10.3871226526     3.4152635850    24.2760062777
O       2.5282657376     1.4458571700    18.7985679807
H       2.7116582163     1.4350831954    19.7300984803
80
Step 3 | NEB Image 3 | Cartesian Angstrom
Ni      1.2285036463     0.7093092997    11.2497806704
Ni      2.4571014733     2.8374348030    11.2496310925
Ni      3.6857421479     4.9655996359    11.2495305309
Ni      4.9144384648     7.0937601672    11.2495485805
Ni      3.6857972395     0.7092442083    11.2495449250
Ni      4.9144294659     2.8373973471    11.2493265409
Ni      6.1431096571     4.9656032769    11.2492434321
Ni      7.3718304889     7.0937940415    11.2493596961
Ni      6.1431853728     0.7091758959    11.2493730604
Ni      7.3718701440     2.8373476133    11.2491619134
Ni      8.6005796996     4.9655786996    11.2491483115
Ni      9.8292795571     7.0937777441    11.2493609158
Ni      8.6006108889     0.7091556081    11.2493859898
Ni      9.8293274147     2.8373347041    11.2492669670
Ni     11.0580216381     4.9655552705    11.2493328448
Ni     12.2866630196     7.0937279567    11.2495517096
Ni      9.8234753732     0.0019360435    13.3012969896
Ni     11.0523052234     2.1298073638    13.3033524020
Ni     12.2806562738     4.2569737321    13.3031644843
Ni     13.5097951875     6.3852031839    13.3023938624
Ni      2.4514186844     0.0018913180    13.3019445085
Ni      3.6797894657     2.1302029850    13.3027410960
Ni      4.9081934544     4.2581061770    13.3036415490
Ni      6.1368072658     6.3862687230    13.3015951145
Ni      4.9084563091     0.0012747282    13.3011061646
Ni      6.1371554327     2.1305745084    13.3034523001
Ni      7.3659513458     4.2582568513    13.3043335251
Ni      8.5943552084     6.3859184344    13.3026428339
Ni      7.3652582702     0.0016742966    13.3006344934
Ni      8.5944847857     2.1299018457    13.3022600596
Ni      9.8236396166     4.2571392939    13.3034181580
Ni     11.0522862599     6.3860556368    13.3016335082
Ni      2.4472476036     1.4222299633    15.3336164001
Ni      3.6745452690     3.5502096990    15.3342348217
Ni      4.9038602640     5.6794979338    15.3335744637
Ni      6.1333375552     7.8087860548    15.3306235114
Ni      4.9054067847     1.4205985503    15.3297019019
Ni      6.1328957245     3.5508768614    15.3311383276
Ni      7.3606310864     5.6803666629    15.3303325626
Ni      8.5913269762     7.8087839209    15.3304042823
Ni      7.3630272811     1.4193864346    15.3302663506
Ni      8.5925469296     3.5471665155    15.3304857967
Ni      9.8221392623     5.6792801580    15.3283654657
Ni     11.0501856807     7.8089616176    15.3307884323
Ni      9.8214531507     1.4202734321    15.3325778455
Ni     11.0506573481     3.5478670300    15.3354519718
Ni     12.2798776783     5.6779927230    15.3317715377
Ni     13.5073020351     7.8070949895    15.3305103382
Ni      1.2166188877     0.7144183211    17.3866297660
Ni      2.4429358535     2.8419547592    17.3913117915
Ni      3.6677790028     4.9760407557    17.3841641444
Ni      4.9005007615     7.1030499392    17.3820108255
Ni      3.6877171129     0.7005357798    17.3389737786
Ni      4.8805842526     2.8407611545    17.3425732974
Ni      6.1162439319     4.9841081652    17.3605084051
Ni      7.3533730538     7.1140050645    17.3671487793
Ni      6.1339165110     0.6973111939    17.3720065414
Ni      7.3759944752     2.8294262152    17.3338016161
Ni      8.5954422670     4.9589100078    17.3041411542
Ni      9.8261233514     7.1190281396    17.3564282490
Ni      8.5945417997     0.7022792282    17.3750940316
Ni      9.8268200084     2.8314258114    17.3747139483
Ni     11.0709911697     4.9673344086    17.3489764979
Ni     12.2837874122     7.1043791737    17.3773381439
O       8.6396534046     3.0421795387    20.5154479092
O       8.0877671869     5.4187078605    19.0489849914
O       9.1903667651     3.3867486071    23.3673148580
C       8.6250883532     4.3206704790    21.1924324600
C       8.9585941414     5.4147848371    20.1786958315
C       9.6518056391     4.3251091709    22.3211723157
H       7.6362686178     4.5030452348    21.6396921904
H      10.0038600418     5.2804945163    19.8543636217
H       8.8651309940     6.3949379362    20.6814644782
H       9.7553395322     5.3351365194    22.7555338754
H      10.6294888715     3.9880491575    21.9482641283
H       8.9514681630     2.3819367626    21.1194505002
H       6.0415599212     2.9306264891    18.3734993439
H       9.8228303067     3.3479872356    24.0388747683
O       2.5995037582     0.8621277062    18.9252016674
H       2.8480246853     1.6076541360    19.4944386505
80
Step 4 | NEB Image 4 | Cartesian Angstrom
Ni      1.2285647832     0.7093270505    11.2498645268
Ni      2.4571789787     2.8374393505    11.2497475413
Ni      3.6858286405     4.9655836043    11.2496763243
Ni      4.9145102877     7.0937144542    11.2496990283
Ni      3.6858552828     0.7092816161    11.2497036005
Ni      4.9145025455     2.8374136259    11.2495360551
Ni      6.1431794655     4.9655804719    11.2494825371
Ni      7.3718717996     7.0937322799    11.2495626850
Ni      6.1432145470     0.7092340878    11.2495720096
Ni      7.3718992144     2.8373769369    11.2494221150
Ni      8.6005921928     4.9655565749    11.2494120408
Ni      9.8292732544     7.0937196891    11.2495537307
Ni      8.6006012462     0.7092156702    11.2495668269
Ni      9.8293036565     2.8373639534    11.2494826115
Ni     11.0579874929     4.9655409039    11.2495306616
Ni     12.2866282463     7.0936880938    11.2496807995
Ni      9.8234125470     0.0020870960    13.3015805251
Ni     11.0521976345     2.1299223190    13.3037254024
Ni     12.2805129136     4.2569952697    13.3035718655
Ni     13.5096678750     6.3851306221    13.3026449615
Ni      2.4515624189     0.0019940220    13.3022513152
Ni      3.6799797475     2.1302288862    13.3031402587
Ni      4.9084811592     4.2580889897    13.3041450852
Ni      6.1370299793     6.3861052234    13.3021265838
Ni      4.9085145810     0.0014541105    13.3015415695
Ni      6.1373133542     2.1307135101    13.3041002982
Ni      7.3661137532     4.2582333805    13.3051688907
Ni      8.5944328444     6.3857148332    13.3033139589
Ni      7.3652709063     0.0018973194    13.3010423573
Ni      8.5944560780     2.1300804954    13.3029217279
Ni      9.8235705001     4.2571522608    13.3041547974
Ni     11.0521932382     6.3859029499    13.3021641702
Ni      2.4479861956     1.4220578085    15.3347098665
Ni      3.6752590737     3.5503461377    15.3347220339
Ni      4.9049616587     5.6791014934    15.3349491392
Ni      6.1338605919     7.8081951901    15.3314401402
Ni      4.9053143021     1.4207882487    15.3314288661
Ni      6.1344272049     3.5511170996    15.3338105046
Ni      7.3616329833     5.6793865659    15.3331774827
Ni      8.5916797357     7.8079574505    15.3316521329
Ni      7.3633883677     1.4208048545    15.3324765056
Ni      8.5922378182     3.5475854982    15.3340664618
Ni      9.8220685089     5.6784353285    15.3314794947
Ni     11.0499928826     7.8082396913    15.3318436342
Ni      9.8210998206     1.4208067186    15.3336831235
Ni     11.0502625827     3.5484519970    15.3372632079
Ni     12.2790553488     5.6775283373    15.3335007381
Ni     13.5070274222     7.8067946865    15.3309301586
Ni      1.2180461142     0.7142734674    17.3872865344
Ni      2.4433415449     2.8431551157    17.3884438177
Ni      3.6710354485     4.9761414944    17.3858898444
Ni      4.9022904976     7.1014836907    17.3831071456
Ni      3.6762522417     0.7090206319    17.3686701034
Ni      4.8913788438     2.8526518060    17.3398001879
Ni      6.1219406486     4.9756293560    17.3749839794
Ni      7.3570467024     7.1107260969    17.3699604940
Ni      6.1385877047     0.6985419073    17.3682793641
Ni      7.3706210426     2.8367450055    17.3672555373
Ni      8.6054138494     4.9556052735    17.3319100491
Ni      9.8277814469     7.1120037159    17.3622675344
Ni      8.5940002221     0.7062569638    17.3797255565
Ni      9.8256919250     2.8334610891    17.3776654097
Ni     11.0601424404     4.9677316509    17.3747502830
Ni     12.2818828865     7.1014999096    17.3799479234
O       9.2523740064     3.4721358282    20.1762532594
O       7.7585699358     5.6127940038    18.9071204818
O       8.9366639260     3.2733167818    23.0079261047
C       8.4455558608     4.3609293448    20.9501385790
C       8.4068077323     5.6960462790    20.1840265395
C       9.0603930267     4.5511041614    22.3398594555
H       7.4371568020     3.9721456521    21.0701286095
H       9.4113753792     6.0808857105    20.0636250728
H       7.8147325511     6.4165744299    20.7989096801
H       8.5250914495     5.3325412582    22.8944749118
H      10.1199791216     4.8288511566    22.2422591868
H       9.3263057164     2.6073444114    20.7501667789
H       5.5312649819     2.3564754067    18.5542805238
H       9.4046936909     3.3181752304    23.8526274464
O       3.0099689510     0.7050489086    19.1244386608
H       2.9927519772     1.6448874675    19.4635229598
80
Step 5 | NEB Image 5 | Cartesian Angstrom
Ni      1.2286497034     0.7093615225    11.2499999440
Ni      2.4572989609     2.8374461750    11.2499999440
Ni      3.6859482184     4.9655308275    11.2499999440
Ni      4.9145974759     7.0936154800    11.2499999440
Ni      3.6859497034     0.7093615225    11.2499999440
Ni      4.9145989609     2.8374461750    11.2499999440
Ni      6.1432482184     4.9655308275    11.2499999440
Ni      7.3718974759     7.0936154800    11.2499999440
Ni      6.1432497034     0.7093615225    11.2499999440
Ni      7.3718989609     2.8374461750    11.2499999440
Ni      8.6005482184     4.9655308275    11.2499999440
Ni      9.8291974759     7.0936154800    11.2499999440
Ni      8.6005497034     0.7093615225    11.2499999440
Ni      9.8291989609     2.8374461750    11.2499999440
Ni     11.0578482184     4.9655308275    11.2499999440
Ni     12.2864974759     7.0936154800    11.2499999440
Ni      9.8231926870     0.0024995631    13.3023446442
Ni     11.0518089676     2.1302240586    13.3047083557
Ni     12.2800508544     4.2570722939    13.3044621680
Ni     13.5092873083     6.3850384546    13.3032134512
Ni      2.4517696982     0.0021660497    13.3026623307
Ni      3.6803278881     2.1303359107    13.3041135630
Ni      4.9088074938     4.2579363814    13.3054287544
Ni      6.1372745671     6.3857877107    13.3032783798
Ni      4.9086517115     0.0018312594    13.3024060945
Ni      6.1374036838     2.1309748468    13.3056096270
Ni      7.3661495135     4.2582451239    13.3069522585
Ni      8.5943413203     6.3854189562    13.3048451696
Ni      7.3652044956     0.0023769003    13.3020219334
Ni      8.5942385662     2.1304695544    13.3043868044
Ni      9.8231946918     4.2572739512    13.3057506922
Ni     11.0517679695     6.3857120360    13.3033344194
Ni      2.4490339821     1.4222228929    15.3362210124
Ni      3.6772966574     3.5494520554    15.3385526461
Ni      4.9062018672     5.6779299780    15.3378106046
Ni      6.1346571942     7.8070606266    15.3335999053
Ni      4.9058225197     1.4219699914    15.3362206260
Ni      6.1346426084     3.5508505475    15.3401418518
Ni      7.3625330027     5.6784279498    15.3395242568
Ni      8.5915701206     7.8062468470    15.3354851546
Ni      7.3627071376     1.4224398724    15.3370388041
Ni      8.5913286772     3.5492677633    15.3408174188
Ni      9.8201850849     5.6778143804    15.3377746619
Ni     11.0486433115     7.8070023171    15.3347462049
Ni      9.8200953547     1.4222882677    15.3366654644
Ni     11.0486075444     3.5492992589    15.3407265960
Ni     12.2774144623     5.6772885732    15.3359640032
Ni     13.5061541972     7.8063455902    15.3319299253
Ni      1.2187910631     0.7145173608    17.3879334314
Ni      2.4472474227     2.8420654806    17.3934581627
Ni      3.6755426811     4.9714604374    17.3911199588
Ni      4.9045369929     7.0990999797    17.3858410289
Ni      3.6755273590     0.7130852450    17.3897672789
Ni      4.9037000473     2.8423806074    17.3934481142
Ni      6.1319553005     4.9726957480    17.3963328007
Ni      7.3614524743     7.0997441935    17.3897409983
Ni      6.1332850561     0.7119051795    17.3902534707
Ni      7.3623531846     2.8409773484    17.3961534740
Ni      8.5911690953     4.9716069348    17.3936888912
Ni      9.8197669951     7.1000577029    17.3889506467
Ni      8.5911411426     0.7131642395    17.3880087950
Ni      9.8198330590     2.8408219131    17.3957136598
Ni     11.0487030798     4.9704125685    17.3927698418
Ni     12.2763266601     7.0989938309    17.3852102935
O       9.3819344244     4.1358166692    20.0930362367
O       7.4403591999     5.7710500252    18.8010456662
O       8.6054614657     3.3490556865    22.7703843692
C       8.1664603160     4.5686069475    20.7700096311
C       7.7641571257     5.9228005922    20.1887078083
C       8.3912004598     4.6889035721    22.2787219386
H       7.3485584428     3.8274455412    20.5710354409
H       8.5939941550     6.6612606078    20.2727262356
H       6.8675792875     6.3118286823    20.7285291220
H       7.5127131407     5.1500412147    22.7730789076
H       9.2780443246     5.3384479547    22.4478370724
H       9.6348023466     3.2728259917    20.4951539629
H       4.4134518168     1.3599542848    19.7391102444
H       8.7500633813     3.3953291848    23.7317250903
O       3.5190441201     1.0401590876    20.0091886335
H       2.9303167551     1.7729858078    19.7218291788
