80
Step 1 | NEB Image 1 | Cartesian Angstrom
Ni      1.2286497034     0.7093615225    11.2499999440
Ni      2.4572989609     2.8374461750    11.2499999440
Ni      3.6859482184     4.9655308275    11.2499999440
Ni      4.9145974759     7.0936154800    11.2499999440
Ni      3.6859497034     0.7093615225    11.2499999440
Ni      4.9145989609     2.8374461750    11.2499999440
Ni      6.1432482184     4.9655308275    11.2499999440
Ni      7.3718974759     7.0936154800    11.2499999440
Ni      6.1432497034     0.7093615225    11.2499999440
Ni      7.3718989609     2.8374461750    11.2499999440
Ni      8.6005482184     4.9655308275    11.2499999440
Ni      9.8291974759     7.0936154800    11.2499999440
Ni      8.6005497034     0.7093615225    11.2499999440
Ni      9.8291989609     2.8374461750    11.2499999440
Ni     11.0578482184     4.9655308275    11.2499999440
Ni     12.2864974759     7.0936154800    11.2499999440
Ni      9.8231926870     0.0024995631    13.3023446442
Ni     11.0518089676     2.1302240586    13.3047083557
Ni     12.2800508544     4.2570722939    13.3044621680
Ni     13.5092873083     6.3850384546    13.3032134512
Ni      2.4517696982     0.0021660497    13.3026623307
Ni      3.6803278881     2.1303359107    13.3041135630
Ni      4.9088074938     4.2579363814    13.3054287544
Ni      6.1372745671     6.3857877107    13.3032783798
Ni      4.9086517115     0.0018312594    13.3024060945
Ni      6.1374036838     2.1309748468    13.3056096270
Ni      7.3661495135     4.2582451239    13.3069522585
Ni      8.5943413203     6.3854189562    13.3048451696
Ni      7.3652044956     0.0023769003    13.3020219334
Ni      8.5942385662     2.1304695544    13.3043868044
Ni      9.8231946918     4.2572739512    13.3057506922
Ni     11.0517679695     6.3857120360    13.3033344194
Ni      2.4490339821     1.4222228929    15.3362210124
Ni      3.6772966574     3.5494520554    15.3385526461
Ni      4.9062018672     5.6779299780    15.3378106046
Ni      6.1346571942     7.8070606266    15.3335999053
Ni      4.9058225197     1.4219699914    15.3362206260
Ni      6.1346426084     3.5508505475    15.3401418518
Ni      7.3625330027     5.6784279498    15.3395242568
Ni      8.5915701206     7.8062468470    15.3354851546
Ni      7.3627071376     1.4224398724    15.3370388041
Ni      8.5913286772     3.5492677633    15.3408174188
Ni      9.8201850849     5.6778143804    15.3377746619
Ni     11.0486433115     7.8070023171    15.3347462049
Ni      9.8200953547     1.4222882677    15.3366654644
Ni     11.0486075444     3.5492992589    15.3407265960
Ni     12.2774144623     5.6772885732    15.3359640033
Ni     13.5061541972     7.8063455902    15.3319299253
Ni      1.2187910631     0.7145173608    17.3879334314
Ni      2.4472474227     2.8420654806    17.3934581627
Ni      3.6755426811     4.9714604374    17.3911199588
Ni      4.9045369929     7.0990999797    17.3858410289
Ni      3.6755273590     0.7130852450    17.3897672789
Ni      4.9037000473     2.8423806074    17.3934481142
Ni      6.1319553005     4.9726957480    17.3963328007
Ni      7.3614524743     7.0997441935    17.3897409983
Ni      6.1332850561     0.7119051795    17.3902534707
Ni      7.3623531846     2.8409773484    17.3961534740
Ni      8.5911690953     4.9716069348    17.3936888912
Ni      9.8197669951     7.1000577029    17.3889506467
Ni      8.5911411426     0.7131642395    17.3880087950
Ni      9.8198330590     2.8408219131    17.3957136598
Ni     11.0487030798     4.9704125685    17.3927698418
Ni     12.2763266601     7.0989938309    17.3852102935
O       8.1853233808     3.4574048182    21.7117206478
O       8.5869329741     5.0599815235    19.5762271001
O      10.2109211163     3.6451020548    23.8826602062
C       9.3606393600     4.2890487236    21.7367471584
C       9.7574736302     4.6321502783    20.3055951979
C      10.5272793641     3.6720453941    22.4918474794
H       9.0423459569     5.1976070563    22.2680419510
H      10.2036708160     3.7499198429    19.8025973096
H      10.4835571337     5.4542343167    20.2475656164
H      11.4351836342     4.2717022800    22.2942344717
H      10.7115000118     2.6514065461    22.0984614952
H       8.4384371395     2.5707271966    21.3925898339
H       7.8511829079     4.4818016084    19.8831003151
H      11.0040911060     3.3843978098    24.3788521822
O       2.4676593393     1.4045078651    18.8058894197
H       2.5804189712     1.3115658959    19.7657035449
80
Step 2 | NEB Image 2 | Cartesian Angstrom
Ni      1.2285423528     0.7093157724    11.2498311708
Ni      2.4571541409     2.8374306300    11.2497252414
Ni      3.6857928310     4.9655771677    11.2496539935
Ni      4.9144788951     7.0937231291    11.2496754791
Ni      3.6858476542     0.7092719905    11.2496912130
Ni      4.9144775992     2.8374038427    11.2495408382
Ni      6.1431462229     4.9655824008    11.2494851139
Ni      7.3718457693     7.0937413531    11.2495843764
Ni      6.1432037776     0.7092335864    11.2496071959
Ni      7.3718700427     2.8373801528    11.2494630764
Ni      8.6005558087     4.9655716478    11.2494674392
Ni      9.8292333255     7.0937237649    11.2496177300
Ni      8.6005788858     0.7092333902    11.2496377754
Ni      9.8292641287     2.8373844452    11.2495617462
Ni     11.0579352219     4.9655571069    11.2496116417
Ni     12.2865788016     7.0936870703    11.2497485260
Ni      9.8233261025     0.0021756602    13.3017791213
Ni     11.0520549723     2.1299932959    13.3039198926
Ni     12.2803533230     4.2570588892    13.3037195447
Ni     13.5095292428     6.3851518401    13.3027757291
Ni      2.4515477768     0.0019427381    13.3021479235
Ni      3.6799845108     2.1302143558    13.3031996735
Ni      4.9083390955     4.2580184176    13.3041809311
Ni      6.1369444830     6.3861482675    13.3021384764
Ni      4.9085275056     0.0014605018    13.3016319727
Ni      6.1371872174     2.1306638487    13.3042348230
Ni      7.3659768979     4.2582795674    13.3052510195
Ni      8.5943001780     6.3857736813    13.3035337304
Ni      7.3652106904     0.0019315066    13.3012309521
Ni      8.5943420875     2.1301076460    13.3030791739
Ni      9.8233928391     4.2572532562    13.3043501317
Ni     11.0520002414     6.3859539681    13.3023734325
Ni      2.4480677529     1.4220902441    15.3340596901
Ni      3.6757690508     3.5496432448    15.3360243243
Ni      4.9041903969     5.6791493683    15.3344260716
Ni      6.1338529687     7.8082779898    15.3318600429
Ni      4.9055773996     1.4211345305    15.3327269542
Ni      6.1327803709     3.5504452918    15.3338566242
Ni      7.3613849012     5.6800286087    15.3338753626
Ni      8.5911663471     7.8077628455    15.3328272863
Ni      7.3625952938     1.4200281354    15.3328327210
Ni      8.5917739773     3.5483765919    15.3343724060
Ni      9.8207272034     5.6789852851    15.3325693008
Ni     11.0492500781     7.8081517129    15.3326424680
Ni      9.8206928107     1.4209592963    15.3342683886
Ni     11.0496167469     3.5486886102    15.3372880797
Ni     12.2786226351     5.6779297847    15.3335748491
Ni     13.5066674892     7.8067778753    15.3311936275
Ni      1.2141731557     0.7128581617    17.3837944256
Ni      2.4439266071     2.8460680645    17.3883085843
Ni      3.6692402306     4.9735751980    17.3866033151
Ni      4.9013302105     7.1026197039    17.3829903744
Ni      3.6924810664     0.6991858591    17.3595461742
Ni      4.8924693818     2.8367255187    17.3782826882
Ni      6.1172865013     4.9883852810    17.3587605719
Ni      7.3570805413     7.1066004047    17.3814984988
Ni      6.1321241534     0.7060578344    17.3855313289
Ni      7.3671067148     2.8202285657    17.3442382270
Ni      8.5845957017     4.9741468612    17.3465734239
Ni      9.8205281512     7.1094987273    17.3724107879
Ni      8.5922511495     0.7076282396    17.3828964974
Ni      9.8211597385     2.8315654500    17.3785867017
Ni     11.0598244795     4.9775289551    17.3643491348
Ni     12.2791140016     7.1018845284    17.3814557812
O       8.0604597936     3.2909295865    21.2447581293
O       8.5210786831     5.2388622747    19.1723924273
O       9.7232992477     3.7810795553    23.6753861987
C       9.0252663521     4.3382789955    21.3983179271
C       9.5483796832     4.8884721528    20.0753472159
C      10.1737988441     3.9728802795    22.3017813673
H       8.4318995914     5.1662563551    21.9158085609
H      10.2106768047     4.0782883984    19.6277479056
H      10.2141423043     5.7486061528    20.2633936467
H      10.9576272347     4.7355960182    22.2646760945
H      10.6172854183     3.0106711685    21.9217813319
H       8.4774131814     2.6012753473    20.6983433649
H       6.1315701623     3.5388024515    18.3105635015
H      10.4187700315     3.5485312818    24.1966994610
O       2.5228311723     1.4423987890    18.8227927791
H       2.6453775330     1.4378193753    19.7231801058
80
Step 3 | NEB Image 3 | Cartesian Angstrom
Ni      1.2285144923     0.7093104746    11.2497941529
Ni      2.4571162479     2.8374330191    11.2496570798
Ni      3.6857560149     4.9655930075    11.2495649308
Ni      4.9144496598     7.0937499342    11.2495846733
Ni      3.6858122084     0.7092516839    11.2495880402
Ni      4.9144432331     2.8373986071    11.2493894865
Ni      6.1431199171     4.9655973011    11.2493144973
Ni      7.3718345898     7.0937788485    11.2494272059
Ni      6.1431906511     0.7091927430    11.2494443337
Ni      7.3718694932     2.8373572525    11.2492528527
Ni      8.6005717352     4.9655772003    11.2492455067
Ni      9.8292645749     7.0937617031    11.2494401811
Ni      8.6006006087     0.7091793273    11.2494639808
Ni      9.8293072509     2.8373503284    11.2493579495
Ni     11.0579940541     4.9655564860    11.2494194972
Ni     12.2866360520     7.0937155697    11.2496133935
Ni      9.8234273192     0.0020107070    13.3014492075
Ni     11.0522251832     2.1298657798    13.3035287605
Ni     12.2805594581     4.2570025935    13.3033377513
Ni     13.5097096380     6.3851881316    13.3025147259
Ni      2.4514579323     0.0019038711    13.3020026488
Ni      3.6798485132     2.1302040649    13.3028772997
Ni      4.9082328749     4.2580780550    13.3037977502
Ni      6.1368469207     6.3862356560    13.3017552877
Ni      4.9084778642     0.0013299333    13.3012687463
Ni      6.1371615570     2.1305980459    13.3036890025
Ni      7.3659563833     4.2582653808    13.3046091196
Ni      8.5943355912     6.3858768270    13.3029181544
Ni      7.3652421702     0.0017522752    13.3008207808
Ni      8.5944383523     2.1299641082    13.3025108948
Ni      9.8235597230     4.2571778167    13.3037055756
Ni     11.0521936944     6.3860262211    13.3018651374
Ni      2.4475070255     1.4221786478    15.3337195211
Ni      3.6749294513     3.5500207629    15.3347883789
Ni      4.9039282334     5.6794065764    15.3337890276
Ni      6.1334960710     7.8086396477    15.3310072805
Ni      4.9054591488     1.4207626028    15.3306581369
Ni      6.1328158160     3.5507202247    15.3319259132
Ni      7.3608641272     5.6802865660    15.3314175873
Ni      8.5912633085     7.8084685445    15.3311732130
Ni      7.3628777018     1.4195522558    15.3310499808
Ni      8.5922923387     3.5475603563    15.3316713157
Ni      9.8216688897     5.6792049983    15.3296876839
Ni     11.0498795304     7.8087100607    15.3313753807
Ni      9.8212063639     1.4204778914    15.3331020617
Ni     11.0503243184     3.5481349821    15.3360030139
Ni     12.2794750164     5.6779852664    15.3323359388
Ni     13.5070964705     7.8069960343    15.3307276446
Ni      1.2156765855     0.7138451701    17.3855637381
Ni      2.4431973041     2.8434589455    17.3901564454
Ni      3.6681375267     4.9752475317    17.3848958297
Ni      4.9007128884     7.1029822619    17.3822811162
Ni      3.6897205788     0.6997653844    17.3453653189
Ni      4.8844092563     2.8392744309    17.3544237193
Ni      6.1162673801     4.9859220894    17.3590569096
Ni      7.3545464393     7.1116265641    17.3718691043
Ni      6.1332866922     0.7001678600    17.3765128399
Ni      7.3730542642     2.8258071416    17.3362227446
Ni      8.5915997621     4.9641742778    17.3176069187
Ni      9.8242312224     7.1159753002    17.3615181902
Ni      8.5937832254     0.7039873315    17.3776528488
Ni      9.8249126056     2.8312597740    17.3756412007
Ni     11.0674092109     4.9709903779    17.3536229550
Ni     12.2822502698     7.1035875070    17.3786639656
O       8.6164534484     3.0813717570    20.4847943817
O       8.2722293880     5.5604813320    19.0488850627
O       9.2972929607     3.4313823369    23.2877222548
C       8.7639622932     4.3552813995    21.1285384833
C       9.2045570638     5.3764872248    20.0924478085
C       9.8012151149     4.2607408117    22.2500150255
H       7.8208946840     4.6668690648    21.5759991160
H      10.1923097465     5.0422292841    19.6773476603
H       9.3686017309     6.3419888892    20.5981670048
H      10.0513505144     5.2772319487    22.6238736527
H      10.7511572241     3.8177402560    21.8180968617
H       8.5272046004     2.4007152972    21.1780732646
H       6.0982877262     3.5300061272    18.2759686176
H       9.9534706337     3.3186727116    23.9533634690
O       2.4966975834     0.5620509117    18.8884795591
H       2.5556470204     1.3432581244    19.4984501467
80
Step 4 | NEB Image 4 | Cartesian Angstrom
Ni      1.2285537218     0.7093236016    11.2498491444
Ni      2.4571650168     2.8374382606    11.2497266941
Ni      3.6858128424     4.9655862264    11.2496503874
Ni      4.9144971796     7.0937226344    11.2496724424
Ni      3.6858452104     0.7092748340    11.2496761530
Ni      4.9144894238     2.8374104783    11.2495001701
Ni      6.1431667186     4.9655844646    11.2494415478
Ni      7.3718641082     7.0937431313    11.2495286295
Ni      6.1432092983     0.7092240608    11.2495391571
Ni      7.3718935053     2.8373719839    11.2493788497
Ni      8.6005891091     4.9655608085    11.2493686954
Ni      9.8292732145     7.0937296891    11.2495228222
Ni      8.6006022496     0.7092059181    11.2495381599
Ni      9.8293065779     2.8373595814    11.2494482168
Ni     11.0579917944     4.9655438534    11.2494994561
Ni     12.2866327025     7.0936948234    11.2496609156
Ni      9.8234206080     0.0020639442    13.3015383399
Ni     11.0522117130     2.1299049067    13.3036675393
Ni     12.2805324807     4.2569937691    13.3035073428
Ni     13.5096851891     6.3851434965    13.3026065615
Ni      2.4515377943     0.0019747546    13.3021962398
Ni      3.6799476108     2.1302235858    13.3030732386
Ni      4.9084281776     4.2580899918    13.3040587413
Ni      6.1369899308     6.3861347123    13.3020356957
Ni      4.9085049859     0.0014235924    13.3014706044
Ni      6.1372830012     2.1306880018    13.3039933478
Ni      7.3660826132     4.2582387684    13.3050285701
Ni      8.5944160911     6.3857511549    13.3032063959
Ni      7.3652670418     0.0018602955    13.3009787551
Ni      8.5944576732     2.1300507998    13.3028137295
Ni      9.8235770789     4.2571532539    13.3040355238
Ni     11.0522033368     6.3859302609    13.3020806914
Ni      2.4478656359     1.4220853827    15.3345027498
Ni      3.6751525640     3.5503034977    15.3346704473
Ni      4.9047503717     5.6791732871    15.3346940163
Ni      6.1337724414     7.8082989569    15.3313131901
Ni      4.9053358013     1.4207639985    15.3311744120
Ni      6.1341209451     3.5510553729    15.3333497778
Ni      7.3614591350     5.6795720563    15.3327136299
Ni      8.5916051259     7.8080917096    15.3314749340
Ni      7.3633053866     1.4205406336    15.3321113925
Ni      8.5922750021     3.5475384821    15.3334686264
Ni      9.8220408046     5.6785938575    15.3309878778
Ni     11.0500037810     7.8083584993    15.3316885231
Ni      9.8211467288     1.4207188342    15.3335115808
Ni     11.0503110285     3.5483628512    15.3369556451
Ni     12.2791796150     5.6776185820    15.3332140459
Ni     13.5070628017     7.8068444553    15.3308673401
Ni      1.2176698730     0.7142420134    17.3870475404
Ni      2.4432755971     2.8430800468    17.3888643119
Ni      3.6704238773     4.9760574374    17.3856110697
Ni      4.9019567491     7.1017893390    17.3829122235
Ni      3.6786856965     0.7072800330    17.3634843453
Ni      4.8896309882     2.8502279457    17.3413603830
Ni      6.1208013343     4.9774716150    17.3719488326
Ni      7.3564379608     7.1111583105    17.3698273702
Ni      6.1376353474     0.6985477769    17.3693858652
Ni      7.3713926164     2.8349384123    17.3609057721
Ni      8.6031354688     4.9567287571    17.3276775096
Ni      9.8272944330     7.1130974146    17.3615598400
Ni      8.5940378903     0.7056350094    17.3790588914
Ni      9.8257365167     2.8330226514    17.3771228661
Ni     11.0619225446     4.9680193904    17.3701582804
Ni     12.2821150481     7.1019867395    17.3795582590
O       9.1635295306     3.3598229783    20.1270840575
O       7.7827188266     5.6797631010    18.8815198173
O       8.9739700860     3.2899425601    22.9239568215
C       8.4546421503     4.4208559332    20.8607132060
C       8.4917991738     5.7321851970    20.1140038860
C       9.1278029470     4.5382719756    22.2354336714
H       7.4146338708     4.1042125655    21.0127453622
H       9.5537304704     6.0091786079    19.9158704216
H       8.0353319118     6.5109941324    20.7442053817
H       8.6454930678     5.3691222160    22.8085702531
H      10.1982923898     4.7808550631    22.0946530073
H       9.1432151365     2.6377353972    20.5872691724
H       6.1294202638     2.1751921116    18.2854792393
H       9.4972445638     3.3015361353    23.7031686294
O       2.4969295327     0.5666014336    18.9158686210
H       2.5856492983     1.3629269313    19.4798590495
80
Step 5 | NEB Image 5 | Cartesian Angstrom
Ni      1.2286497034     0.7093615225    11.2499999440
Ni      2.4572989609     2.8374461750    11.2499999440
Ni      3.6859482184     4.9655308275    11.2499999440
Ni      4.9145974759     7.0936154800    11.2499999440
Ni      3.6859497034     0.7093615225    11.2499999440
Ni      4.9145989609     2.8374461750    11.2499999440
Ni      6.1432482184     4.9655308275    11.2499999440
Ni      7.3718974759     7.0936154800    11.2499999440
Ni      6.1432497034     0.7093615225    11.2499999440
Ni      7.3718989609     2.8374461750    11.2499999440
Ni      8.6005482184     4.9655308275    11.2499999440
Ni      9.8291974759     7.0936154800    11.2499999440
Ni      8.6005497034     0.7093615225    11.2499999440
Ni      9.8291989609     2.8374461750    11.2499999440
Ni     11.0578482184     4.9655308275    11.2499999440
Ni     12.2864974759     7.0936154800    11.2499999440
Ni      9.8231926870     0.0024995631    13.3023446442
Ni     11.0518089676     2.1302240586    13.3047083557
Ni     12.2800508544     4.2570722939    13.3044621680
Ni     13.5092873083     6.3850384546    13.3032134512
Ni      2.4517696982     0.0021660497    13.3026623307
Ni      3.6803278881     2.1303359107    13.3041135630
Ni      4.9088074938     4.2579363814    13.3054287544
Ni      6.1372745671     6.3857877107    13.3032783798
Ni      4.9086517115     0.0018312594    13.3024060945
Ni      6.1374036838     2.1309748468    13.3056096270
Ni      7.3661495135     4.2582451239    13.3069522585
Ni      8.5943413203     6.3854189562    13.3048451696
Ni      7.3652044956     0.0023769003    13.3020219334
Ni      8.5942385662     2.1304695544    13.3043868044
Ni      9.8231946918     4.2572739512    13.3057506922
Ni     11.0517679695     6.3857120360    13.3033344194
Ni      2.4490339821     1.4222228929    15.3362210124
Ni      3.6772966574     3.5494520554    15.3385526461
Ni      4.9062018672     5.6779299780    15.3378106046
Ni      6.1346571942     7.8070606266    15.3335999053
Ni      4.9058225197     1.4219699914    15.3362206260
Ni      6.1346426084     3.5508505475    15.3401418518
Ni      7.3625330027     5.6784279498    15.3395242568
Ni      8.5915701206     7.8062468470    15.3354851546
Ni      7.3627071376     1.4224398724    15.3370388041
Ni      8.5913286772     3.5492677633    15.3408174188
Ni      9.8201850849     5.6778143804    15.3377746619
Ni     11.0486433115     7.8070023171    15.3347462049
Ni      9.8200953547     1.4222882677    15.3366654644
Ni     11.0486075444     3.5492992589    15.3407265960
Ni     12.2774144623     5.6772885732    15.3359640033
Ni     13.5061541972     7.8063455902    15.3319299253
Ni      1.2187910631     0.7145173608    17.3879334314
Ni      2.4472474227     2.8420654806    17.3934581627
Ni      3.6755426811     4.9714604374    17.3911199588
Ni      4.9045369929     7.0990999797    17.3858410289
Ni      3.6755273590     0.7130852450    17.3897672789
Ni      4.9037000473     2.8423806074    17.3934481142
Ni      6.1319553005     4.9726957480    17.3963328007
Ni      7.3614524743     7.0997441935    17.3897409983
Ni      6.1332850561     0.7119051795    17.3902534707
Ni      7.3623531846     2.8409773484    17.3961534740
Ni      8.5911690953     4.9716069348    17.3936888912
Ni      9.8197669951     7.1000577029    17.3889506467
Ni      8.5911411426     0.7131642395    17.3880087950
Ni      9.8198330590     2.8408219131    17.3957136598
Ni     11.0487030798     4.9704125685    17.3927698418
Ni     12.2763266601     7.0989938309    17.3852102935
O       9.3819344244     4.1358166692    20.0930362367
O       7.4403591999     5.7710500252    18.8010456662
O       8.6054614657     3.3490556865    22.7703843692
C       8.1664603160     4.5686069475    20.7700096311
C       7.7641571257     5.9228005922    20.1887078083
C       8.3912004598     4.6889035721    22.2787219386
H       7.3485584428     3.8274455412    20.5710354409
H       8.5939941550     6.6612606078    20.2727262356
H       6.8675792875     6.3118286823    20.7285291220
H       7.5127131407     5.1500412147    22.7730789076
H       9.2780443246     5.3384479547    22.4478370724
H       9.6348023466     3.2728259917    20.4951539629
H       4.4134518168     1.3599542848    19.7391102444
H       8.7500633813     3.3953291848    23.7317250903
O       3.5190441201     1.0401590876    20.0091886335
H       2.9303167551     1.7729858078    19.7218291788
