80
Step 1 | NEB Image 1 | Cartesian Angstrom
Ni      1.2286497034     0.7093615225    11.2499999440
Ni      2.4572989609     2.8374461750    11.2499999440
Ni      3.6859482184     4.9655308275    11.2499999440
Ni      4.9145974759     7.0936154800    11.2499999440
Ni      3.6859497034     0.7093615225    11.2499999440
Ni      4.9145989609     2.8374461750    11.2499999440
Ni      6.1432482184     4.9655308275    11.2499999440
Ni      7.3718974759     7.0936154800    11.2499999440
Ni      6.1432497034     0.7093615225    11.2499999440
Ni      7.3718989609     2.8374461750    11.2499999440
Ni      8.6005482184     4.9655308275    11.2499999440
Ni      9.8291974759     7.0936154800    11.2499999440
Ni      8.6005497034     0.7093615225    11.2499999440
Ni      9.8291989609     2.8374461750    11.2499999440
Ni     11.0578482184     4.9655308275    11.2499999440
Ni     12.2864974759     7.0936154800    11.2499999440
Ni      9.8231926870     0.0024995631    13.3023446442
Ni     11.0518089676     2.1302240586    13.3047083557
Ni     12.2800508544     4.2570722939    13.3044621680
Ni     13.5092873083     6.3850384546    13.3032134512
Ni      2.4517696982     0.0021660497    13.3026623307
Ni      3.6803278881     2.1303359107    13.3041135630
Ni      4.9088074938     4.2579363814    13.3054287544
Ni      6.1372745671     6.3857877107    13.3032783798
Ni      4.9086517115     0.0018312594    13.3024060945
Ni      6.1374036838     2.1309748468    13.3056096270
Ni      7.3661495135     4.2582451239    13.3069522585
Ni      8.5943413203     6.3854189562    13.3048451696
Ni      7.3652044956     0.0023769003    13.3020219334
Ni      8.5942385662     2.1304695544    13.3043868044
Ni      9.8231946918     4.2572739512    13.3057506922
Ni     11.0517679695     6.3857120360    13.3033344194
Ni      2.4490339821     1.4222228929    15.3362210124
Ni      3.6772966574     3.5494520554    15.3385526461
Ni      4.9062018672     5.6779299780    15.3378106046
Ni      6.1346571942     7.8070606266    15.3335999053
Ni      4.9058225197     1.4219699914    15.3362206260
Ni      6.1346426084     3.5508505475    15.3401418518
Ni      7.3625330027     5.6784279498    15.3395242568
Ni      8.5915701206     7.8062468470    15.3354851546
Ni      7.3627071376     1.4224398724    15.3370388041
Ni      8.5913286772     3.5492677633    15.3408174188
Ni      9.8201850849     5.6778143804    15.3377746619
Ni     11.0486433115     7.8070023171    15.3347462049
Ni      9.8200953547     1.4222882677    15.3366654644
Ni     11.0486075444     3.5492992589    15.3407265960
Ni     12.2774144623     5.6772885732    15.3359640033
Ni     13.5061541972     7.8063455902    15.3319299253
Ni      1.2187910631     0.7145173608    17.3879334314
Ni      2.4472474227     2.8420654806    17.3934581627
Ni      3.6755426811     4.9714604374    17.3911199588
Ni      4.9045369929     7.0990999797    17.3858410289
Ni      3.6755273590     0.7130852450    17.3897672789
Ni      4.9037000473     2.8423806074    17.3934481142
Ni      6.1319553005     4.9726957480    17.3963328007
Ni      7.3614524743     7.0997441935    17.3897409983
Ni      6.1332850561     0.7119051795    17.3902534707
Ni      7.3623531846     2.8409773484    17.3961534740
Ni      8.5911690953     4.9716069348    17.3936888912
Ni      9.8197669951     7.1000577029    17.3889506467
Ni      8.5911411426     0.7131642395    17.3880087950
Ni      9.8198330590     2.8408219131    17.3957136598
Ni     11.0487030798     4.9704125685    17.3927698418
Ni     12.2763266601     7.0989938309    17.3852102935
O       8.1853233808     3.4574048182    21.7117206478
O       8.5869329741     5.0599815235    19.5762271001
O      10.2109211163     3.6451020548    23.8826602062
C       9.3606393600     4.2890487236    21.7367471584
C       9.7574736302     4.6321502783    20.3055951979
C      10.5272793641     3.6720453941    22.4918474794
H       9.0423459569     5.1976070563    22.2680419510
H      10.2036708160     3.7499198429    19.8025973096
H      10.4835571337     5.4542343167    20.2475656164
H      11.4351836342     4.2717022800    22.2942344717
H      10.7115000118     2.6514065461    22.0984614952
H       8.4384371395     2.5707271966    21.3925898339
H       7.8511829079     4.4818016084    19.8831003151
H      11.0040911060     3.3843978098    24.3788521822
O       2.4676593393     1.4045078651    18.8058894197
H       2.5804189712     1.3115658959    19.7657035449
80
Step 2 | NEB Image 2 | Cartesian Angstrom
Ni      1.2285415923     0.7093155159    11.2498300449
Ni      2.4571531119     2.8374305859    11.2497233277
Ni      3.6857917663     4.9655775351    11.2496515505
Ni      4.9144780709     7.0937238800    11.2496731129
Ni      3.6858468392     0.7092713865    11.2496887892
Ni      4.9144767100     2.8374036020    11.2495372552
Ni      6.1431455020     4.9655827816    11.2494810869
Ni      7.3718454259     7.0937422943    11.2495809259
Ni      6.1432034398     0.7092326017    11.2496037876
Ni      7.3718699092     2.8373796258    11.2494585450
Ni      8.6005560058     4.9655718852    11.2494628067
Ni      9.8292338048     7.0937246331    11.2496142174
Ni      8.6005792379     0.7092322688    11.2496343899
Ni      9.8292648596     2.8373838220    11.2495577167
Ni     11.0579362107     4.9655572167    11.2496079522
Ni     12.2865797490     7.0936876794    11.2497460269
Ni      9.8233277318     0.0021725346    13.3017732334
Ni     11.0520578078     2.1299909664    13.3039123911
Ni     12.2803567771     4.2570582515    13.3037123412
Ni     13.5095321651     6.3851527140    13.3027711136
Ni      2.4515458732     0.0019413524    13.3021441583
Ni      3.6799815966     2.1302137133    13.3031923247
Ni      4.9083359347     4.2580193926    13.3041714828
Ni      6.1369420222     6.3861507580    13.3021295043
Ni      4.9085264469     0.0014575226    13.3016248209
Ni      6.1371859973     2.1306617990    13.3042231422
Ni      7.3659759242     4.2582795738    13.3052369095
Ni      8.5943003598     6.3857763081    13.3035216124
Ni      7.3652110411     0.0019276976    13.3012232436
Ni      8.5943435338     2.1301045725    13.3030675587
Ni      9.8233954289     4.2572523897    13.3043373221
Ni     11.0520032550     6.3859557794    13.3023639646
Ni      2.4480577218     1.4220905681    15.3340466480
Ni      3.6757536765     3.5496479669    15.3360004618
Ni      4.9041788177     5.6791573960    15.3344045782
Ni      6.1338457484     7.8082870830    15.3318435958
Ni      4.9055751032     1.4211270200    15.3326902650
Ni      6.1327725057     3.5504463266    15.3338090265
Ni      7.3613744762     5.6800383307    15.3338251567
Ni      8.5911655590     7.8077767935    15.3327985509
Ni      7.3625976997     1.4200125915    15.3327958237
Ni      8.5917812710     3.5483642687    15.3343161813
Ni      9.8207392728     5.6789927163    15.3325166959
Ni     11.0492592253     7.8081625279    15.3326201560
Ni      9.8207007269     1.4209484804    15.3342458169
Ni     11.0496284744     3.5486802225    15.3372596866
Ni     12.2786367315     5.6779331880    15.3335515626
Ni     13.5066741644     7.8067820269    15.3311855869
Ni      1.2141682119     0.7128609809    17.3837943325
Ni      2.4439044530     2.8460589144    17.3883048601
Ni      3.6692010611     4.9736017154    17.3865658233
Ni      4.9013097016     7.1026389749    17.3829704971
Ni      3.6925276060     0.6991304099    17.3592668815
Ni      4.8923369227     2.8367266732    17.3779706102
Ni      6.1172112472     4.9884292765    17.3585976858
Ni      7.3570351823     7.1066823331    17.3813631550
Ni      6.1321309451     0.7059714961    17.3854178422
Ni      7.3671888430     2.8201942581    17.3439265061
Ni      8.5846385929     4.9740556221    17.3460676473
Ni      9.8205695504     7.1096069919    17.3722258216
Ni      8.5922717948     0.7075663679    17.3828200231
Ni      9.8212041631     2.8315214393    17.3784808209
Ni     11.0599515719     4.9774931778    17.3641133115
Ni     12.2791585427     7.1019148044    17.3814105060
O       8.0637128989     3.2928942108    21.2527083168
O       8.5170137213     5.2317525132    19.1762583674
O       9.6980382984     3.7853676503    23.6533060350
C       9.0006122236     4.3533762651    21.4168663715
C       9.5494712830     4.8847121606    20.0759392113
C      10.1744498446     3.9601336664    22.3180244018
H       8.4327654235     5.1541376364    21.9185660179
H      10.2120505847     4.0928940570    19.6422461629
H      10.1983423715     5.7597961590    20.2748726465
H      10.9537072554     4.7444746483    22.2751891247
H      10.6172509722     3.0216768026    21.9269652613
H       8.4801507548     2.5907067255    20.7130610201
H       6.1268157679     3.5371961511    18.3035176239
H      10.4482906593     3.5333963238    24.2181125069
O       2.5191972636     1.4336995651    18.7900090864
H       2.6511617469     1.4399139007    19.7505160804
80
Step 3 | NEB Image 3 | Cartesian Angstrom
Ni      1.2285137724     0.7093103551    11.2497932127
Ni      2.4571152656     2.8374330995    11.2496553112
Ni      3.6857550738     4.9655934334    11.2495626095
Ni      4.9144489111     7.0937506300    11.2495822909
Ni      3.6858112638     0.7092511627    11.2495852931
Ni      4.9144423375     2.8373984868    11.2493854502
Ni      6.1431192428     4.9655976938    11.2493099469
Ni      7.3718343131     7.0937798372    11.2494229724
Ni      6.1431903093     0.7091916568    11.2494399199
Ni      7.3718695067     2.8373566387    11.2492471742
Ni      8.6005721986     4.9655773282    11.2492394873
Ni      9.8292654586     7.0937627164    11.2494353321
Ni      8.6006012182     0.7091778582    11.2494592239
Ni      9.8293084547     2.8373493864    11.2493523809
Ni     11.0579956968     4.9655564465    11.2494142301
Ni     12.2866376519     7.0937163382    11.2496096722
Ni      9.8234301531     0.0020061717    13.3014400806
Ni     11.0522299353     2.1298622616    13.3035180248
Ni     12.2805652049     4.2570009761    13.3033272748
Ni     13.5097146798     6.3851890879    13.3025075113
Ni      2.4514555151     0.0019029171    13.3019988630
Ni      3.6798448468     2.1302038483    13.3028686448
Ni      4.9082301879     4.2580797313    13.3037875696
Ni      6.1368443764     6.3862379125    13.3017450559
Ni      4.9084765204     0.0013264358    13.3012588393
Ni      6.1371610062     2.1305963766    13.3036742360
Ni      7.3659559582     4.2582649387    13.3045918345
Ni      8.5943366768     6.3858795272    13.3029013355
Ni      7.3652430860     0.0017474272    13.3008095088
Ni      8.5944410745     2.1299602287    13.3024954429
Ni      9.8235644230     4.2571756441    13.3036879955
Ni     11.0521991356     6.3860281121    13.3018511684
Ni      2.4474916266     1.4221812180    15.3337113763
Ni      3.6749062726     3.5500316710    15.3347541792
Ni      4.9039222693     5.6794131621    15.3337730981
Ni      6.1334864029     7.8086491836    15.3309838877
Ni      4.9054558188     1.4207523733    15.3306008516
Ni      6.1328185906     3.5507285471    15.3318746738
Ni      7.3608501077     5.6802926999    15.3313507475
Ni      8.5912665111     7.8084877939    15.3311272757
Ni      7.3628861219     1.4195404565    15.3310016253
Ni      8.5923069963     3.5475373576    15.3315981925
Ni      9.8216958842     5.6792103309    15.3296083949
Ni     11.0498973691     7.8087252907    15.3313402731
Ni      9.8212207740     1.4204649190    15.3330700724
Ni     11.0503441035     3.5481195157    15.3359684885
Ni     12.2794987061     5.6779863034    15.3323021056
Ni     13.5071085081     7.8070019870    15.3307147253
Ni      1.2157235463     0.7138747338    17.3856178079
Ni      2.4431782422     2.8433813703    17.3902118706
Ni      3.6681105894     4.9752948959    17.3848496322
Ni      4.9006976062     7.1029900605    17.3822626587
Ni      3.6896256035     0.6997939723    17.3449839923
Ni      4.8841864308     2.8393568502    17.3537386461
Ni      6.1162488027     4.9858377677    17.3590936704
Ni      7.3544769942     7.1117670843    17.3715955396
Ni      6.1333231317     0.7000007899    17.3762521466
Ni      7.3732218637     2.8259843720    17.3360347068
Ni      8.5918112458     4.9638818249    17.3168053315
Ni      9.8243390078     7.1161548135    17.3612140944
Ni      8.5938268277     0.7038865612    17.3775055773
Ni      9.8250203090     2.8312571775    17.3755669466
Ni     11.0676182742     4.9707965496    17.3533391961
Ni     12.2823388841     7.1036340269    17.3785862202
O       8.6134843928     3.0739200693    20.4912765985
O       8.2557687897     5.5507179573    19.0447193285
O       9.2788133098     3.4287120778    23.2876371476
C       8.7628458982     4.3439522027    21.1380385770
C       9.1936389960     5.3743569669    20.0974131238
C       9.8079015727     4.2663289948    22.2453955290
H       7.7996313304     4.6553770663    21.5853184185
H      10.1766970894     5.0550486629    19.6904237191
H       9.3366720025     6.3452214809    20.6024364789
H      10.0351655488     5.2766677446    22.6271057103
H      10.7316869005     3.8280139882    21.8269452500
H       8.5534752859     2.3969366724    21.1882880987
H       6.0998560226     3.4731335633    18.2894695957
H       9.9587866731     3.3226910442    23.9724880029
O       2.5057666596     0.5870282558    18.8947584660
H       2.5722104144     1.3640192250    19.4861542956
80
Step 4 | NEB Image 4 | Cartesian Angstrom
Ni      1.2285546674     0.7093239204    11.2498504892
Ni      2.4571662166     2.8374383718    11.2497285380
Ni      3.6858142022     4.9655859949    11.2496526776
Ni      4.9144982969     7.0937219112    11.2496747507
Ni      3.6858460547     0.7092754383    11.2496784799
Ni      4.9144905346     2.8374107692    11.2495032498
Ni      6.1431677921     4.9655841169    11.2494450579
Ni      7.3718647532     7.0937421988    11.2495314951
Ni      6.1432097405     0.7092249241    11.2495418856
Ni      7.3718939887     2.8373724081    11.2493824787
Ni      8.6005893754     4.9655604356    11.2493722988
Ni      9.8292732393     7.0937288477    11.2495253520
Ni      8.6006021806     0.7092067307    11.2495404962
Ni      9.8293063587     2.8373599294    11.2494510353
Ni     11.0579914732     4.9655435864    11.2495019847
Ni     12.2866323733     7.0936942655    11.2496625039
Ni      9.8234200256     0.0020658181    13.3015416561
Ni     11.0522106637     2.1299062912    13.3036722418
Ni     12.2805310072     4.2569937788    13.3035125251
Ni     13.5096839152     6.3851424200    13.3026095647
Ni      2.4515398144     0.0019764717    13.3022009062
Ni      3.6799502772     2.1302241395    13.3030789774
Ni      4.9084327060     4.2580899367    13.3040663005
Ni      6.1369932832     6.3861321214    13.3020434657
Ni      4.9085057909     0.0014261811    13.3014763735
Ni      6.1372856046     2.1306902636    13.3040023241
Ni      7.3660852310     4.2582382699    13.3050403755
Ni      8.5944175338     6.3857480731    13.3032151799
Ni      7.3652674056     0.0018633838    13.3009838669
Ni      8.5944576248     2.1300532835    13.3028226478
Ni      9.8235766721     4.2571530358    13.3040452771
Ni     11.0522026686     6.3859279650    13.3020873645
Ni      2.4478750959     1.4220836029    15.3345210612
Ni      3.6751610553     3.5503074148    15.3346751020
Ni      4.9047689824     5.6791666217    15.3347170514
Ni      6.1337796074     7.8082900292    15.3313235326
Ni      4.9053341858     1.4207661808    15.3311943490
Ni      6.1341474392     3.5510613498    15.3333898689
Ni      7.3614730902     5.6795560007    15.3327519396
Ni      8.5916117105     7.8080807675    15.3314886429
Ni      7.3633126484     1.4205634383    15.3321415646
Ni      8.5922726574     3.5475415268    15.3335179251
Ni      9.8220443434     5.6785803974    15.3310268188
Ni     11.0500035217     7.8083489259    15.3317006284
Ni      9.8211434103     1.4207264033    15.3335255865
Ni     11.0503074720     3.5483693977    15.3369814045
Ni     12.2791701921     5.6776107983    15.3332368750
Ni     13.5070603079     7.8068404756    15.3308721931
Ni      1.2177087905     0.7142488889    17.3870756883
Ni      2.4432835626     2.8430747445    17.3888424651
Ni      3.6704776215     4.9760649051    17.3856350797
Ni      4.9019857329     7.1017615642    17.3829296809
Ni      3.6784667723     0.7074358849    17.3638982557
Ni      4.8897645801     2.8504305448    17.3412055838
Ni      6.1209076774     4.9773012290    17.3722368319
Ni      7.3564857124     7.1111265839    17.3698273228
Ni      6.1377138911     0.6985420051    17.3692856314
Ni      7.3713392431     2.8351197199    17.3614533617
Ni      8.6033378616     4.9566153618    17.3280065766
Ni      9.8273397170     7.1130137892    17.3616129553
Ni      8.5940368790     0.7056828820    17.3791061178
Ni      9.8257396255     2.8330685957    17.3771815799
Ni     11.0617855198     4.9679728226    17.3705310997
Ni     12.2821001763     7.1019486393    17.3795874959
O       9.1650905192     3.4126949032    20.1044952756
O       7.7750429746     5.6809020478    18.8787826746
O       8.9604727831     3.2894039343    22.9165952922
C       8.4623492523     4.4039380070    20.8721360389
C       8.4851850805     5.7318310569    20.1205302643
C       9.1170250607     4.5495394688    22.2423860098
H       7.4118920995     4.0885062184    21.0112706180
H       9.5361493078     6.0196291906    19.9276959287
H       8.0166675439     6.5067988024    20.7476361697
H       8.6355228456     5.3638894461    22.8121108067
H      10.1857415766     4.7893438243    22.1052647140
H       9.1625895590     2.5895564561    20.6257551517
H       6.1228609947     2.1522624458    18.2939205047
H       9.4970328744     3.3016002865    23.7282359964
O       2.5195206921     0.5860125802    18.9253138005
H       2.6323386011     1.3824174580    19.4818357553
80
Step 5 | NEB Image 5 | Cartesian Angstrom
Ni      1.2286497034     0.7093615225    11.2499999440
Ni      2.4572989609     2.8374461750    11.2499999440
Ni      3.6859482184     4.9655308275    11.2499999440
Ni      4.9145974759     7.0936154800    11.2499999440
Ni      3.6859497034     0.7093615225    11.2499999440
Ni      4.9145989609     2.8374461750    11.2499999440
Ni      6.1432482184     4.9655308275    11.2499999440
Ni      7.3718974759     7.0936154800    11.2499999440
Ni      6.1432497034     0.7093615225    11.2499999440
Ni      7.3718989609     2.8374461750    11.2499999440
Ni      8.6005482184     4.9655308275    11.2499999440
Ni      9.8291974759     7.0936154800    11.2499999440
Ni      8.6005497034     0.7093615225    11.2499999440
Ni      9.8291989609     2.8374461750    11.2499999440
Ni     11.0578482184     4.9655308275    11.2499999440
Ni     12.2864974759     7.0936154800    11.2499999440
Ni      9.8231926870     0.0024995631    13.3023446442
Ni     11.0518089676     2.1302240586    13.3047083557
Ni     12.2800508544     4.2570722939    13.3044621680
Ni     13.5092873083     6.3850384546    13.3032134512
Ni      2.4517696982     0.0021660497    13.3026623307
Ni      3.6803278881     2.1303359107    13.3041135630
Ni      4.9088074938     4.2579363814    13.3054287544
Ni      6.1372745671     6.3857877107    13.3032783798
Ni      4.9086517115     0.0018312594    13.3024060945
Ni      6.1374036838     2.1309748468    13.3056096270
Ni      7.3661495135     4.2582451239    13.3069522585
Ni      8.5943413203     6.3854189562    13.3048451696
Ni      7.3652044956     0.0023769003    13.3020219334
Ni      8.5942385662     2.1304695544    13.3043868044
Ni      9.8231946918     4.2572739512    13.3057506922
Ni     11.0517679695     6.3857120360    13.3033344194
Ni      2.4490339821     1.4222228929    15.3362210124
Ni      3.6772966574     3.5494520554    15.3385526461
Ni      4.9062018672     5.6779299780    15.3378106046
Ni      6.1346571942     7.8070606266    15.3335999053
Ni      4.9058225197     1.4219699914    15.3362206260
Ni      6.1346426084     3.5508505475    15.3401418518
Ni      7.3625330027     5.6784279498    15.3395242568
Ni      8.5915701206     7.8062468470    15.3354851546
Ni      7.3627071376     1.4224398724    15.3370388041
Ni      8.5913286772     3.5492677633    15.3408174188
Ni      9.8201850849     5.6778143804    15.3377746619
Ni     11.0486433115     7.8070023171    15.3347462049
Ni      9.8200953547     1.4222882677    15.3366654644
Ni     11.0486075444     3.5492992589    15.3407265960
Ni     12.2774144623     5.6772885732    15.3359640033
Ni     13.5061541972     7.8063455902    15.3319299253
Ni      1.2187910631     0.7145173608    17.3879334314
Ni      2.4472474227     2.8420654806    17.3934581627
Ni      3.6755426811     4.9714604374    17.3911199588
Ni      4.9045369929     7.0990999797    17.3858410289
Ni      3.6755273590     0.7130852450    17.3897672789
Ni      4.9037000473     2.8423806074    17.3934481142
Ni      6.1319553005     4.9726957480    17.3963328007
Ni      7.3614524743     7.0997441935    17.3897409983
Ni      6.1332850561     0.7119051795    17.3902534707
Ni      7.3623531846     2.8409773484    17.3961534740
Ni      8.5911690953     4.9716069348    17.3936888912
Ni      9.8197669951     7.1000577029    17.3889506467
Ni      8.5911411426     0.7131642395    17.3880087950
Ni      9.8198330590     2.8408219131    17.3957136598
Ni     11.0487030798     4.9704125685    17.3927698418
Ni     12.2763266601     7.0989938309    17.3852102935
O       9.3819344244     4.1358166692    20.0930362367
O       7.4403591999     5.7710500252    18.8010456662
O       8.6054614657     3.3490556865    22.7703843692
C       8.1664603160     4.5686069475    20.7700096311
C       7.7641571257     5.9228005922    20.1887078083
C       8.3912004598     4.6889035721    22.2787219386
H       7.3485584428     3.8274455412    20.5710354409
H       8.5939941550     6.6612606078    20.2727262356
H       6.8675792875     6.3118286823    20.7285291220
H       7.5127131407     5.1500412147    22.7730789076
H       9.2780443246     5.3384479547    22.4478370724
H       9.6348023466     3.2728259917    20.4951539629
H       4.4134518168     1.3599542848    19.7391102444
H       8.7500633813     3.3953291848    23.7317250903
O       3.5190441201     1.0401590876    20.0091886335
H       2.9303167551     1.7729858078    19.7218291788
