80
Step 1 | NEB Image 1 | Cartesian Angstrom
Ni      1.2286497034     0.7093615225    11.2499999440
Ni      2.4572989609     2.8374461750    11.2499999440
Ni      3.6859482184     4.9655308275    11.2499999440
Ni      4.9145974759     7.0936154800    11.2499999440
Ni      3.6859497034     0.7093615225    11.2499999440
Ni      4.9145989609     2.8374461750    11.2499999440
Ni      6.1432482184     4.9655308275    11.2499999440
Ni      7.3718974759     7.0936154800    11.2499999440
Ni      6.1432497034     0.7093615225    11.2499999440
Ni      7.3718989609     2.8374461750    11.2499999440
Ni      8.6005482184     4.9655308275    11.2499999440
Ni      9.8291974759     7.0936154800    11.2499999440
Ni      8.6005497034     0.7093615225    11.2499999440
Ni      9.8291989609     2.8374461750    11.2499999440
Ni     11.0578482184     4.9655308275    11.2499999440
Ni     12.2864974759     7.0936154800    11.2499999440
Ni      9.8231926870     0.0024995631    13.3023446442
Ni     11.0518089676     2.1302240586    13.3047083557
Ni     12.2800508544     4.2570722939    13.3044621680
Ni     13.5092873083     6.3850384546    13.3032134512
Ni      2.4517696982     0.0021660497    13.3026623307
Ni      3.6803278881     2.1303359107    13.3041135630
Ni      4.9088074938     4.2579363814    13.3054287544
Ni      6.1372745671     6.3857877107    13.3032783798
Ni      4.9086517115     0.0018312594    13.3024060945
Ni      6.1374036838     2.1309748468    13.3056096270
Ni      7.3661495135     4.2582451239    13.3069522585
Ni      8.5943413203     6.3854189562    13.3048451696
Ni      7.3652044956     0.0023769003    13.3020219334
Ni      8.5942385662     2.1304695544    13.3043868044
Ni      9.8231946918     4.2572739512    13.3057506922
Ni     11.0517679695     6.3857120360    13.3033344194
Ni      2.4490339821     1.4222228929    15.3362210124
Ni      3.6772966574     3.5494520554    15.3385526461
Ni      4.9062018672     5.6779299780    15.3378106046
Ni      6.1346571942     7.8070606266    15.3335999053
Ni      4.9058225197     1.4219699914    15.3362206260
Ni      6.1346426084     3.5508505475    15.3401418518
Ni      7.3625330027     5.6784279498    15.3395242568
Ni      8.5915701206     7.8062468470    15.3354851546
Ni      7.3627071376     1.4224398724    15.3370388041
Ni      8.5913286772     3.5492677633    15.3408174188
Ni      9.8201850849     5.6778143804    15.3377746619
Ni     11.0486433115     7.8070023171    15.3347462049
Ni      9.8200953547     1.4222882677    15.3366654644
Ni     11.0486075444     3.5492992589    15.3407265960
Ni     12.2774144623     5.6772885732    15.3359640033
Ni     13.5061541972     7.8063455902    15.3319299253
Ni      1.2187910631     0.7145173608    17.3879334314
Ni      2.4472474227     2.8420654806    17.3934581627
Ni      3.6755426811     4.9714604374    17.3911199588
Ni      4.9045369929     7.0990999797    17.3858410289
Ni      3.6755273590     0.7130852450    17.3897672789
Ni      4.9037000473     2.8423806074    17.3934481142
Ni      6.1319553005     4.9726957480    17.3963328007
Ni      7.3614524743     7.0997441935    17.3897409983
Ni      6.1332850561     0.7119051795    17.3902534707
Ni      7.3623531846     2.8409773484    17.3961534740
Ni      8.5911690953     4.9716069348    17.3936888912
Ni      9.8197669951     7.1000577029    17.3889506467
Ni      8.5911411426     0.7131642395    17.3880087950
Ni      9.8198330590     2.8408219131    17.3957136598
Ni     11.0487030798     4.9704125685    17.3927698418
Ni     12.2763266601     7.0989938309    17.3852102935
O       8.1853233808     3.4574048182    21.7117206478
O       8.5869329741     5.0599815235    19.5762271001
O      10.2109211163     3.6451020548    23.8826602062
C       9.3606393600     4.2890487236    21.7367471584
C       9.7574736302     4.6321502783    20.3055951979
C      10.5272793641     3.6720453941    22.4918474794
H       9.0423459569     5.1976070563    22.2680419510
H      10.2036708160     3.7499198429    19.8025973096
H      10.4835571337     5.4542343167    20.2475656164
H      11.4351836342     4.2717022800    22.2942344717
H      10.7115000118     2.6514065461    22.0984614952
H       8.4384371395     2.5707271966    21.3925898339
H       7.8511829079     4.4818016084    19.8831003151
H      11.0040911060     3.3843978098    24.3788521822
O       2.4676593393     1.4045078651    18.8058894197
H       2.5804189712     1.3115658959    19.7657035449
80
Step 2 | NEB Image 2 | Cartesian Angstrom
Ni      1.2287066100     0.7093818543    11.2500854202
Ni      2.4573759916     2.8374505305    11.2501442207
Ni      3.6860284607     4.9655037686    11.2501836336
Ni      4.9146593271     7.0935588847    11.2501764966
Ni      3.6860093077     0.7094073805    11.2501780157
Ni      4.9146650006     2.8374651950    11.2502638595
Ni      6.1433020147     4.9655024616    11.2502963817
Ni      7.3719233368     7.0935456435    11.2502510342
Ni      6.1432747468     0.7094342499    11.2502459447
Ni      7.3719098329     2.8374848368    11.2503287649
Ni      8.6005353737     4.9655122704    11.2503342561
Ni      9.8291647807     7.0935519815    11.2502510681
Ni      8.6005254372     0.7094424209    11.2502413400
Ni      9.8291481148     2.8374901045    11.2502880780
Ni     11.0577795956     4.9655214608    11.2502622717
Ni     12.2864319855     7.0935714207    11.2501763708
Ni      9.8230808494     0.0027214601    13.3027575369
Ni     11.0516127227     2.1303881842    13.3052420382
Ni     12.2798116590     4.2571116555    13.3049722442
Ni     13.5090866333     6.3849742463    13.3035360454
Ni      2.4519069054     0.0022730523    13.3029420515
Ni      3.6805387997     2.1303879138    13.3046521333
Ni      4.9090460599     4.2578688996    13.3061296989
Ni      6.1374563514     6.3855997730    13.3039380343
Ni      4.9087284312     0.0020493669    13.3029162879
Ni      6.1374991750     2.1311310982    13.3064565318
Ni      7.3662251629     4.2582411329    13.3079791669
Ni      8.5943340183     6.3852241271    13.3057105977
Ni      7.3651826195     0.0026525574    13.3025677638
Ni      8.5941406027     2.1306922898    13.3052218612
Ni      9.8230180651     4.2573279640    13.3066667446
Ni     11.0515624330     6.3855781875    13.3040031791
Ni      2.4497339295     1.4222213248    15.3372330665
Ni      3.6783810380     3.5491456376    15.3402630405
Ni      4.9071090926     5.6773156654    15.3394644689
Ni      6.1351736314     7.8063857180    15.3347713018
Ni      4.9059894041     1.4225123410    15.3387905979
Ni      6.1353041549     3.5508316476    15.3436708999
Ni      7.3632734817     5.6776771973    15.3431335985
Ni      8.5916583943     7.8052507873    15.3374905384
Ni      7.3625707197     1.4236254838    15.3396958752
Ni      8.5908458990     3.5501009329    15.3448672363
Ni      9.8194020145     5.6772479925    15.3414725126
Ni     11.0480293979     7.8062341911    15.3363066192
Ni      9.8195585242     1.4230798878    15.3382743722
Ni     11.0477960807     3.5498623511    15.3427928045
Ni     12.2764448313     5.6770182779    15.3376054528
Ni     13.5057000841     7.8060520998    15.3324891615
Ni      1.2195960761     0.7145415583    17.3884047926
Ni      2.4489479153     2.8421349245    17.3943153355
Ni      3.6785609305     4.9696300199    17.3938554859
Ni      4.9061053623     7.0975663570    17.3873410361
Ni      3.6709668008     0.7178721268    17.4095008773
Ni      4.9127516058     2.8427841377    17.4138964704
Ni      6.1380566176     4.9683880974    17.4101759600
Ni      7.3646128651     7.0941053639    17.3987407004
Ni      6.1329426400     0.7177223582    17.3976389142
Ni      7.3569752213     2.8453042057    17.4202632269
Ni      8.5892105893     4.9768210857    17.4289377674
Ni      9.8171788606     7.0926025997    17.4018263933
Ni      8.5897869322     0.7174414296    17.3931008940
Ni      9.8170405217     2.8444873255    17.4039700310
Ni     11.0399858524     4.9717286924    17.4097552540
Ni     12.2733708995     7.0968938723    17.3883105787
O       8.2987433415     3.5466302780    22.2368736235
O       8.5893946645     4.5141718674    19.4452507627
O      10.9132219847     3.9715100877    23.7855867130
C       9.5587804157     4.0770592034    21.7695440198
C       9.6693741979     3.9553705070    20.1942371789
C      10.7550889361     3.3677061530    22.4771612268
H       9.6023386083     5.1247745522    22.1283029519
H       9.7545957781     2.8620230295    19.9511211235
H      10.6197472143     4.4273225513    19.8554909594
H      11.6930595442     3.4775543418    21.8796115424
H      10.4943927347     2.2879185478    22.5408239723
H       8.0111382648     2.9118058169    21.5463416622
H       6.9976800214     4.0592862044    18.6672528215
H      11.6831544753     3.6149142859    24.2691431303
O       2.5173530473     1.6136493293    18.8382905024
H       2.6445322610     1.6605848847    19.8045465025
80
Step 3 | NEB Image 3 | Cartesian Angstrom
Ni      1.2286029390     0.7093401123    11.2499248990
Ni      2.4572359487     2.8374379533    11.2498796079
Ni      3.6858797352     4.9655501408    11.2498491274
Ni      4.9145454666     7.0936626155    11.2498601273
Ni      3.6859072771     0.7093218706    11.2498706884
Ni      4.9145467386     2.8374264399    11.2498072880
Ni      6.1432037379     4.9655529444    11.2497841026
Ni      7.3718744325     7.0936692104    11.2498301114
Ni      6.1432299674     0.7093075347    11.2498426724
Ni      7.3718847764     2.8374187276    11.2497821656
Ni      8.6005483488     4.9655497499    11.2497869672
Ni      9.8292081108     7.0936604213    11.2498512051
Ni      8.6005592059     0.7093104286    11.2498602657
Ni      9.8292214030     2.8374233865    11.2498294791
Ni     11.0578778971     4.9655439593    11.2498514978
Ni     12.2865247095     7.0936444198    11.2499062545
Ni      9.8232357178     0.0023768088    13.3021397879
Ni     11.0518920217     2.1301388587    13.3044071790
Ni     12.2801536939     4.2570783974    13.3041814795
Ni     13.5093660664     6.3850863018    13.3030561365
Ni      2.4516803077     0.0020644730    13.3024408944
Ni      3.6801889234     2.1302781894    13.3037348579
Ni      4.9085999550     4.2579634082    13.3048988111
Ni      6.1371334338     6.3859461365    13.3028017029
Ni      4.9086015574     0.0016775557    13.3021056208
Ni      6.1373024431     2.1308360313    13.3050536547
Ni      7.3660687575     4.2582653673    13.3062566540
Ni      8.5943129102     6.3855709747    13.3043362560
Ni      7.3652004158     0.0021973136    13.3017237888
Ni      8.5942679223     2.1303231572    13.3038690739
Ni      9.8232548285     4.2572807969    13.3052042652
Ni     11.0518389663     6.3858152992    13.3029744159
Ni      2.4486830542     1.4221375466    15.3352296526
Ni      3.6767316699     3.5494608699    15.3375834416
Ni      4.9052668394     5.6784742926    15.3362821372
Ni      6.1343403357     7.8075804870    15.3329329816
Ni      4.9057283373     1.4216414401    15.3349620409
Ni      6.1337134764     3.5505879509    15.3374725645
Ni      7.3620829594     5.6791609463    15.3372883447
Ni      8.5913484339     7.8068365259    15.3345458830
Ni      7.3625876198     1.4213552560    15.3353631824
Ni      8.5914315306     3.5490120573    15.3382427286
Ni      9.8202396810     5.6783436831    15.3358534552
Ni     11.0488006355     7.8074442171    15.3339931546
Ni      9.8202744767     1.4217404590    15.3357447003
Ni     11.0489461110     3.5491224656    15.3393177387
Ni     12.2778189231     5.6775931100    15.3350629662
Ni     13.5063108256     7.8065099677    15.3316714069
Ni      1.2161689289     0.7134747326    17.3854883551
Ni      2.4457722622     2.8446314712    17.3904997523
Ni      3.6726768681     4.9721260503    17.3892744207
Ni      4.9030914263     7.1007575334    17.3845928198
Ni      3.6845355464     0.7060819871    17.3780246590
Ni      4.8999681956     2.8389992915    17.3913631641
Ni      6.1249367513     4.9810094200    17.3776977963
Ni      7.3598636017     7.1019952923    17.3878478733
Ni      6.1324440002     0.7103498438    17.3899669021
Ni      7.3633594384     2.8294612434    17.3722985970
Ni      8.5863276498     4.9751220342    17.3769527020
Ni      9.8193029261     7.1032605688    17.3832431582
Ni      8.5913429817     0.7112507944    17.3866667614
Ni      9.8196397310     2.8363181477    17.3879200458
Ni     11.0524886477     4.9754065350    17.3811380859
Ni     12.2769949770     7.1000386164    17.3839857024
O       8.4090805475     3.4252512977    20.6850616569
O       9.1052566094     5.6877379262    19.0474961102
O       9.7260509580     3.6655036861    23.3913657604
C       9.3171343682     4.4184500156    21.1588404128
C       9.9911608421     4.9933646067    19.9218287272
C      10.3661489961     3.8730991567    22.1242473289
H       8.7721155724     5.2316753712    21.6725225536
H      10.4720630125     4.1212670747    19.3990466454
H      10.7996195726     5.6740291026    20.2219793732
H      11.2004959062     4.5905307306    22.2155374007
H      10.7733015553     2.9248727906    21.7300925909
H       8.0696714988     2.8729119093    21.4028159811
H       6.1866935046     3.5919838367    18.3450349921
H      10.3913606085     3.3398567472    24.0192348382
O       2.4881400969     0.6041079192    18.9025068953
H       2.5603716582     1.3165234571    19.5670747311
80
Step 4 | NEB Image 4 | Cartesian Angstrom
Ni      1.2285399165     0.7093179087    11.2498285961
Ni      2.4571477759     2.8374354591    11.2497008185
Ni      3.6857923294     4.9655883551    11.2496189870
Ni      4.9144803553     7.0937327669    11.2496416067
Ni      3.6858347854     0.7092659715    11.2496477952
Ni      4.9144736452     2.8374053484    11.2494642489
Ni      6.1431505083     4.9655889384    11.2494004535
Ni      7.3718537078     7.0937552977    11.2494986807
Ni      6.1432029691     0.7092137023    11.2495132894
Ni      7.3718844338     2.8373673669    11.2493428342
Ni      8.6005815448     4.9655672738    11.2493355189
Ni      9.8292675975     7.0937397353    11.2495035530
Ni      8.6005999598     0.7091990150    11.2495220475
Ni      9.8293036534     2.8373585876    11.2494276033
Ni     11.0579881431     4.9655493021    11.2494828971
Ni     12.2866293562     7.0937008281    11.2496531384
Ni      9.8234144380     0.0020551542    13.3015303812
Ni     11.0522031021     2.1298997272    13.3036416543
Ni     12.2805257101     4.2570042265    13.3034724082
Ni     13.5096784184     6.3851581000    13.3025938721
Ni      2.4515143918     0.0019466852    13.3021300096
Ni      3.6799188394     2.1302128505    13.3030126891
Ni      4.9083579131     4.2580814058    13.3039698009
Ni      6.1369420191     6.3861720633    13.3019457935
Ni      4.9084974546     0.0013944326    13.3014210040
Ni      6.1372370411     2.1306534480    13.3039081158
Ni      7.3660365054     4.2582511137    13.3049043756
Ni      8.5943829410     6.3857938697    13.3031397077
Ni      7.3652547086     0.0018300012    13.3009493614
Ni      8.5944423801     2.1300262238    13.3027355776
Ni      9.8235566813     4.2571712362    13.3039552906
Ni     11.0521831927     6.3859624147    13.3020388343
Ni      2.4477851474     1.4220959298    15.3341944869
Ni      3.6751291739     3.5501663285    15.3347660843
Ni      4.9044254606     5.6792704212    15.3343301845
Ni      6.1336964344     7.8084152380    15.3312546583
Ni      4.9053808899     1.4207772389    15.3311408226
Ni      6.1336040468     3.5508871522    15.3328666900
Ni      7.3612877142     5.6798427762    15.3323803606
Ni      8.5914609811     7.8081837206    15.3314904885
Ni      7.3631206468     1.4201739554    15.3318252473
Ni      8.5922262499     3.5476217737    15.3329706173
Ni      9.8218092160     5.6788158312    15.3307372975
Ni     11.0499010158     7.8084460474    15.3316707029
Ni      9.8211197677     1.4206468060    15.3334335293
Ni     11.0502608175     3.5483408655    15.3366690424
Ni     12.2792087498     5.6777599776    15.3329961146
Ni     13.5070357774     7.8068824172    15.3308547161
Ni      1.2165805004     0.7138878071    17.3861066854
Ni      2.4431947274     2.8437817229    17.3887565052
Ni      3.6695404667     4.9756545131    17.3854101429
Ni      4.9014895826     7.1022928771    17.3826733966
Ni      3.6834769224     0.7040929106    17.3582501985
Ni      4.8885827927     2.8460479782    17.3483304598
Ni      6.1187714875     4.9813247284    17.3659106282
Ni      7.3559867096     7.1109067368    17.3714958584
Ni      6.1360068882     0.6996484048    17.3727751578
Ni      7.3712869556     2.8301601816    17.3515877452
Ni      8.5980683041     4.9607169030    17.3263801057
Ni      9.8258009458     7.1135355955    17.3623360695
Ni      8.5937851584     0.7053678641    17.3791258610
Ni      9.8249847249     2.8320459040    17.3762387159
Ni     11.0631205744     4.9702860552    17.3650148841
Ni     12.2818344151     7.1023938411    17.3794963586
O       9.0024202243     3.3408118579    20.0185478849
O       8.0554443016     5.8166379656    18.9069365737
O       9.0963234460     3.2658565313    22.8529465379
C       8.6552079038     4.4643999275    20.8430742848
C       8.9045584665     5.7396370891    20.0502208639
C       9.4762355794     4.4440563496    22.1239045963
H       7.5827754574     4.4167407104    21.1020991234
H       9.9670129103     5.7619429001    19.7344956453
H       8.7091907760     6.6132426173    20.6900716370
H       9.2766464466     5.3533840896    22.7155971545
H      10.5468760701     4.4135621889    21.8630501392
H       8.7870876227     2.5313200323    20.5157458012
H       6.1383045212     2.1908642601    18.2958592267
H       9.7222011147     3.1393751371    23.5841346198
O       2.4702537760     0.5044130391    18.9009814908
H       2.4759173369     1.2637992980    19.5158666009
80
Step 5 | NEB Image 5 | Cartesian Angstrom
Ni      1.2286497034     0.7093615225    11.2499999440
Ni      2.4572989609     2.8374461750    11.2499999440
Ni      3.6859482184     4.9655308275    11.2499999440
Ni      4.9145974759     7.0936154800    11.2499999440
Ni      3.6859497034     0.7093615225    11.2499999440
Ni      4.9145989609     2.8374461750    11.2499999440
Ni      6.1432482184     4.9655308275    11.2499999440
Ni      7.3718974759     7.0936154800    11.2499999440
Ni      6.1432497034     0.7093615225    11.2499999440
Ni      7.3718989609     2.8374461750    11.2499999440
Ni      8.6005482184     4.9655308275    11.2499999440
Ni      9.8291974759     7.0936154800    11.2499999440
Ni      8.6005497034     0.7093615225    11.2499999440
Ni      9.8291989609     2.8374461750    11.2499999440
Ni     11.0578482184     4.9655308275    11.2499999440
Ni     12.2864974759     7.0936154800    11.2499999440
Ni      9.8231926870     0.0024995631    13.3023446442
Ni     11.0518089676     2.1302240586    13.3047083557
Ni     12.2800508544     4.2570722939    13.3044621680
Ni     13.5092873083     6.3850384546    13.3032134512
Ni      2.4517696982     0.0021660497    13.3026623307
Ni      3.6803278881     2.1303359107    13.3041135630
Ni      4.9088074938     4.2579363814    13.3054287544
Ni      6.1372745671     6.3857877107    13.3032783798
Ni      4.9086517115     0.0018312594    13.3024060945
Ni      6.1374036838     2.1309748468    13.3056096270
Ni      7.3661495135     4.2582451239    13.3069522585
Ni      8.5943413203     6.3854189562    13.3048451696
Ni      7.3652044956     0.0023769003    13.3020219334
Ni      8.5942385662     2.1304695544    13.3043868044
Ni      9.8231946918     4.2572739512    13.3057506922
Ni     11.0517679695     6.3857120360    13.3033344194
Ni      2.4490339821     1.4222228929    15.3362210124
Ni      3.6772966574     3.5494520554    15.3385526461
Ni      4.9062018672     5.6779299780    15.3378106046
Ni      6.1346571942     7.8070606266    15.3335999053
Ni      4.9058225197     1.4219699914    15.3362206260
Ni      6.1346426084     3.5508505475    15.3401418518
Ni      7.3625330027     5.6784279498    15.3395242568
Ni      8.5915701206     7.8062468470    15.3354851546
Ni      7.3627071376     1.4224398724    15.3370388041
Ni      8.5913286772     3.5492677633    15.3408174188
Ni      9.8201850849     5.6778143804    15.3377746619
Ni     11.0486433115     7.8070023171    15.3347462049
Ni      9.8200953547     1.4222882677    15.3366654644
Ni     11.0486075444     3.5492992589    15.3407265960
Ni     12.2774144623     5.6772885732    15.3359640033
Ni     13.5061541972     7.8063455902    15.3319299253
Ni      1.2187910631     0.7145173608    17.3879334314
Ni      2.4472474227     2.8420654806    17.3934581627
Ni      3.6755426811     4.9714604374    17.3911199588
Ni      4.9045369929     7.0990999797    17.3858410289
Ni      3.6755273590     0.7130852450    17.3897672789
Ni      4.9037000473     2.8423806074    17.3934481142
Ni      6.1319553005     4.9726957480    17.3963328007
Ni      7.3614524743     7.0997441935    17.3897409983
Ni      6.1332850561     0.7119051795    17.3902534707
Ni      7.3623531846     2.8409773484    17.3961534740
Ni      8.5911690953     4.9716069348    17.3936888912
Ni      9.8197669951     7.1000577029    17.3889506467
Ni      8.5911411426     0.7131642395    17.3880087950
Ni      9.8198330590     2.8408219131    17.3957136598
Ni     11.0487030798     4.9704125685    17.3927698418
Ni     12.2763266601     7.0989938309    17.3852102935
O       9.3819344244     4.1358166692    20.0930362367
O       7.4403591999     5.7710500252    18.8010456662
O       8.6054614657     3.3490556865    22.7703843692
C       8.1664603160     4.5686069475    20.7700096311
C       7.7641571257     5.9228005922    20.1887078083
C       8.3912004598     4.6889035721    22.2787219386
H       7.3485584428     3.8274455412    20.5710354409
H       8.5939941550     6.6612606078    20.2727262356
H       6.8675792875     6.3118286823    20.7285291220
H       7.5127131407     5.1500412147    22.7730789076
H       9.2780443246     5.3384479547    22.4478370724
H       9.6348023466     3.2728259917    20.4951539629
H       4.4134518168     1.3599542848    19.7391102444
H       8.7500633813     3.3953291848    23.7317250903
O       3.5190441201     1.0401590876    20.0091886335
H       2.9303167551     1.7729858078    19.7218291788
