80
Step 1 | NEB Image 1 | Cartesian Angstrom
Ni      1.2286497034     0.7093615225    11.2499999440
Ni      2.4572989609     2.8374461750    11.2499999440
Ni      3.6859482184     4.9655308275    11.2499999440
Ni      4.9145974759     7.0936154800    11.2499999440
Ni      3.6859497034     0.7093615225    11.2499999440
Ni      4.9145989609     2.8374461750    11.2499999440
Ni      6.1432482184     4.9655308275    11.2499999440
Ni      7.3718974759     7.0936154800    11.2499999440
Ni      6.1432497034     0.7093615225    11.2499999440
Ni      7.3718989609     2.8374461750    11.2499999440
Ni      8.6005482184     4.9655308275    11.2499999440
Ni      9.8291974759     7.0936154800    11.2499999440
Ni      8.6005497034     0.7093615225    11.2499999440
Ni      9.8291989609     2.8374461750    11.2499999440
Ni     11.0578482184     4.9655308275    11.2499999440
Ni     12.2864974759     7.0936154800    11.2499999440
Ni      9.8231926870     0.0024995631    13.3023446442
Ni     11.0518089676     2.1302240586    13.3047083557
Ni     12.2800508544     4.2570722939    13.3044621680
Ni     13.5092873083     6.3850384546    13.3032134512
Ni      2.4517696982     0.0021660497    13.3026623307
Ni      3.6803278881     2.1303359107    13.3041135630
Ni      4.9088074938     4.2579363814    13.3054287544
Ni      6.1372745671     6.3857877107    13.3032783798
Ni      4.9086517115     0.0018312594    13.3024060945
Ni      6.1374036838     2.1309748468    13.3056096270
Ni      7.3661495135     4.2582451239    13.3069522585
Ni      8.5943413203     6.3854189562    13.3048451696
Ni      7.3652044956     0.0023769003    13.3020219334
Ni      8.5942385662     2.1304695544    13.3043868044
Ni      9.8231946918     4.2572739512    13.3057506922
Ni     11.0517679695     6.3857120360    13.3033344194
Ni      2.4490339821     1.4222228929    15.3362210124
Ni      3.6772966574     3.5494520554    15.3385526461
Ni      4.9062018672     5.6779299780    15.3378106046
Ni      6.1346571942     7.8070606266    15.3335999053
Ni      4.9058225197     1.4219699914    15.3362206260
Ni      6.1346426084     3.5508505475    15.3401418518
Ni      7.3625330027     5.6784279498    15.3395242568
Ni      8.5915701206     7.8062468470    15.3354851546
Ni      7.3627071376     1.4224398724    15.3370388041
Ni      8.5913286772     3.5492677633    15.3408174188
Ni      9.8201850849     5.6778143804    15.3377746619
Ni     11.0486433115     7.8070023171    15.3347462049
Ni      9.8200953547     1.4222882677    15.3366654644
Ni     11.0486075444     3.5492992589    15.3407265960
Ni     12.2774144623     5.6772885732    15.3359640033
Ni     13.5061541972     7.8063455902    15.3319299253
Ni      1.2187910631     0.7145173608    17.3879334314
Ni      2.4472474227     2.8420654806    17.3934581627
Ni      3.6755426811     4.9714604374    17.3911199588
Ni      4.9045369929     7.0990999797    17.3858410289
Ni      3.6755273590     0.7130852450    17.3897672789
Ni      4.9037000473     2.8423806074    17.3934481142
Ni      6.1319553005     4.9726957480    17.3963328007
Ni      7.3614524743     7.0997441935    17.3897409983
Ni      6.1332850561     0.7119051795    17.3902534707
Ni      7.3623531846     2.8409773484    17.3961534740
Ni      8.5911690953     4.9716069348    17.3936888912
Ni      9.8197669951     7.1000577029    17.3889506467
Ni      8.5911411426     0.7131642395    17.3880087950
Ni      9.8198330590     2.8408219131    17.3957136598
Ni     11.0487030798     4.9704125685    17.3927698418
Ni     12.2763266601     7.0989938309    17.3852102935
O       8.1853233808     3.4574048182    21.7117206478
O       8.5869329741     5.0599815235    19.5762271001
O      10.2109211163     3.6451020548    23.8826602062
C       9.3606393600     4.2890487236    21.7367471584
C       9.7574736302     4.6321502783    20.3055951979
C      10.5272793641     3.6720453941    22.4918474794
H       9.0423459569     5.1976070563    22.2680419510
H      10.2036708160     3.7499198429    19.8025973096
H      10.4835571337     5.4542343167    20.2475656164
H      11.4351836342     4.2717022800    22.2942344717
H      10.7115000118     2.6514065461    22.0984614952
H       8.4384371395     2.5707271966    21.3925898339
H       7.8511829079     4.4818016084    19.8831003151
H      11.0040911060     3.3843978098    24.3788521822
O       2.4676593393     1.4045078651    18.8058894197
H       2.5804189712     1.3115658959    19.7657035449
80
Step 2 | NEB Image 2 | Cartesian Angstrom
Ni      1.2285400279     0.7093149752    11.2498277154
Ni      2.4571509954     2.8374304825    11.2497193843
Ni      3.6857895692     4.9655782836    11.2496465224
Ni      4.9144763723     7.0937254272    11.2496682578
Ni      3.6858451802     0.7092701378    11.2496838480
Ni      4.9144748864     2.8374030953    11.2495299469
Ni      6.1431440188     4.9655835623    11.2494728744
Ni      7.3718447154     7.0937442213    11.2495739239
Ni      6.1432027474     0.7092305907    11.2495968956
Ni      7.3718696212     2.8373785531    11.2494493616
Ni      8.6005563841     4.9655723834    11.2494534408
Ni      9.8292347482     7.0937263997    11.2496071448
Ni      8.6005799345     0.7092300024    11.2496275817
Ni      9.8292663119     2.8373825754    11.2495496035
Ni     11.0579381738     4.9655574569    11.2496005414
Ni     12.2865816273     7.0936889129    11.2497410230
Ni      9.8233309530     0.0021662632    13.3017614801
Ni     11.0520634325     2.1299863067    13.3038973243
Ni     12.2803636324     4.2570570435    13.3036978937
Ni     13.5095379459     6.3851544979    13.3027619083
Ni      2.4515420208     0.0019384640    13.3021364362
Ni      3.6799756936     2.1302123492    13.3031773722
Ni      4.9083294030     4.2580213236    13.3041521592
Ni      6.1369369840     6.3861558940    13.3021112168
Ni      4.9085243030     0.0014514607    13.3016104272
Ni      6.1371834281     2.1306575525    13.3041994820
Ni      7.3659738746     4.2582796323    13.3052082743
Ni      8.5943006443     6.3857816901    13.3034972231
Ni      7.3652117042     0.0019199865    13.3012077877
Ni      8.5943463732     2.1300983470    13.3030441128
Ni      9.8234005307     4.2572507446    13.3043115220
Ni     11.0520091936     6.3859594865    13.3023449959
Ni      2.4480376988     1.4220909886    15.3340193829
Ni      3.6757229167     3.5496570418    15.3359524939
Ni      4.9041544870     5.6791740318    15.3343598792
Ni      6.1338311876     7.8083057009    15.3318105466
Ni      4.9055704820     1.4211118691    15.3326170674
Ni      6.1327553167     3.5504477090    15.3337116829
Ni      7.3613534748     5.6800586376    15.3337238172
Ni      8.5911635439     7.8078048736    15.3327413267
Ni      7.3626020431     1.4199803222    15.3327212750
Ni      8.5917954833     3.5483400651    15.3342025380
Ni      9.8207625329     5.6790081650    15.3324114893
Ni     11.0492771185     7.8081842639    15.3325756706
Ni      9.8207163075     1.4209264946    15.3342004476
Ni     11.0496517277     3.5486637484    15.3372020468
Ni     12.2786646690     5.6779404048    15.3335048815
Ni     13.5066873159     7.8067903582    15.3311695859
Ni      1.2141527142     0.7128639762    17.3837885257
Ni      2.4438585908     2.8460473204    17.3882908358
Ni      3.6691194322     4.9736540840    17.3864897331
Ni      4.9012670899     7.1026797075    17.3829295372
Ni      3.6926373666     0.6990081353    17.3587050263
Ni      4.8920746251     2.8367213292    17.3773675242
Ni      6.1170509160     4.9885326195    17.3582427508
Ni      7.3569446437     7.1068445072    17.3810994060
Ni      6.1321421196     0.7058024319    17.3851995631
Ni      7.3673484845     2.8201020722    17.3432746185
Ni      8.5847098446     4.9738887700    17.3450600861
Ni      9.8206478713     7.1098217683    17.3718582130
Ni      8.5923118242     0.7074434336    17.3826704294
Ni      9.8212888508     2.8314267255    17.3782599369
Ni     11.0602037049     4.9774361285    17.3636349569
Ni     12.2792454256     7.1019751915    17.3813209468
O       8.0627465422     3.2863441615    21.2586172661
O       8.5078123650     5.2201816889    19.1785846148
O       9.6913104195     3.7765501858    23.6584048418
C       8.9882043602     4.3560562420    21.4278348303
C       9.5406490433     4.8906536304    20.0846491906
C      10.1682234358     3.9640842603    22.3278648355
H       8.4197632541     5.1484138650    21.9281444776
H      10.2179839525     4.1118825921    19.6582153914
H      10.1718436949     5.7779621811    20.2894950466
H      10.9397556058     4.7580862565    22.2903323782
H      10.6204848222     3.0348111990    21.9292861115
H       8.4856186307     2.5826247949    20.7381235284
H       6.1223163025     3.5356429326    18.3013799118
H      10.4467908063     3.5245208904    24.2233976983
O       2.5190118799     1.4310581823    18.7848817152
H       2.6536586993     1.4390921434    19.7547539551
80
Step 3 | NEB Image 3 | Cartesian Angstrom
Ni      1.2285129638     0.7093102075    11.2497921464
Ni      2.4571141680     2.8374331732    11.2496533518
Ni      3.6857540077     4.9655938901    11.2495600476
Ni      4.9144480614     7.0937514006    11.2495796682
Ni      3.6858102317     0.7092505805    11.2495822975
Ni      4.9144413374     2.8373983406    11.2493810680
Ni      6.1431184744     4.9655981240    11.2493050047
Ni      7.3718339844     7.0937809228    11.2494184067
Ni      6.1431899266     0.7091904750    11.2494351805
Ni      7.3718694880     2.8373559755    11.2492410656
Ni      8.6005726589     4.9655774869    11.2492330312
Ni      9.8292663679     7.0937638196    11.2494301598
Ni      8.6006018511     0.7091762868    11.2494541602
Ni      9.8293097106     2.8373483918    11.2493464462
Ni     11.0579974116     4.9655564253    11.2494086284
Ni     12.2866393224     7.0937171688    11.2496057294
Ni      9.8234331108     0.0020013676    13.3014304516
Ni     11.0522349024     2.1298585417    13.3035066342
Ni     12.2805712244     4.2569993156    13.3033161278
Ni     13.5097199564     6.3851901472    13.3024998784
Ni      2.4514528876     0.0019018074    13.3019946365
Ni      3.6798408841     2.1302035769    13.3028593091
Ni      4.9082271023     4.2580814641    13.3037765168
Ni      6.1368415254     6.3862404278    13.3017339529
Ni      4.9084750785     0.0013226472    13.3012482372
Ni      6.1371602584     2.1305944895    13.3036583811
Ni      7.3659553444     4.2582645196    13.3045731864
Ni      8.5943376989     6.3858825255    13.3028833967
Ni      7.3652440042     0.0017422144    13.3007975439
Ni      8.5944438821     2.1299560558    13.3024788980
Ni      9.8235692921     4.2571734268    13.3036692070
Ni     11.0522047847     6.3860302191    13.3018363235
Ni      2.4474751506     1.4221839397    15.3337016512
Ni      3.6748818018     3.5500426481    15.3347185006
Ni      4.9039147826     5.6794204729    15.3337549471
Ni      6.1334759593     7.8086596520    15.3309590593
Ni      4.9054524670     1.4207416440    15.3305404736
Ni      6.1328196173     3.5507366706    15.3318189234
Ni      7.3608347557     5.6803001539    15.3312791967
Ni      8.5912693505     7.8085083796    15.3310790125
Ni      7.3628943098     1.4195266858    15.3309497002
Ni      8.5923222213     3.5475134797    15.3315194431
Ni      9.8217234222     5.6792167516    15.3295241051
Ni     11.0499157542     7.8087416253    15.3313032819
Ni      9.8212358236     1.4204509928    15.3330361257
Ni     11.0503647334     3.5481031910    15.3359311063
Ni     12.2795237121     5.6779879132    15.3322657491
Ni     13.5071210654     7.8070083832    15.3307010944
Ni      1.2157687605     0.7139044083    17.3856710107
Ni      2.4431577782     2.8433027043    17.3902692759
Ni      3.6680789435     4.9753432980    17.3848002407
Ni      4.9006797919     7.1030001745    17.3822423182
Ni      3.6895434749     0.6998121844    17.3445645318
Ni      4.8839485891     2.8394286117    17.3530434254
Ni      6.1162214814     4.9857635230    17.3591092329
Ni      7.3544023894     7.1119139434    17.3713139790
Ni      6.1333556928     0.6998290645    17.3759901741
Ni      7.3733974735     2.8261525256    17.3358025441
Ni      8.5920152020     4.9635890619    17.3159577529
Ni      9.8244469329     7.1163450612    17.3608969661
Ni      8.5938717368     0.7037796779    17.3773511202
Ni      9.8251307164     2.8312505417    17.3754850254
Ni     11.0678421953     4.9706015693    17.3530224260
Ni     12.2824309831     7.1036843589    17.3785042834
O       8.6077236592     3.0647283714    20.5033918036
O       8.2353976738     5.5297887182    19.0466861451
O       9.2742992507     3.4302018620    23.2988251277
C       8.7529783678     4.3363547162    21.1480434148
C       9.1743932769     5.3688700460    20.1042200915
C       9.8021678846     4.2681078356    22.2486770268
H       7.7863260582     4.6430123787    21.5975831842
H      10.1601158745     5.0597639956    19.7013096367
H       9.3025072826     6.3426493815    20.6052975435
H      10.0259268159     5.2783942176    22.6292071012
H      10.7216345943     3.8296785419    21.8324607895
H       8.5796295928     2.3864104503    21.2025334944
H       6.1024040974     3.4312841263    18.2984312278
H       9.9588908729     3.3329251365    23.9852589543
O       2.5124395661     0.6139954937    18.8985222054
H       2.5903483668     1.3989460355    19.4775387703
80
Step 4 | NEB Image 4 | Cartesian Angstrom
Ni      1.2285552392     0.7093241148    11.2498513063
Ni      2.4571669453     2.8374384385    11.2497296748
Ni      3.6858150240     4.9655858470    11.2496540920
Ni      4.9144989694     7.0937214653    11.2496761697
Ni      3.6858465696     0.7092758102    11.2496799082
Ni      4.9144912053     2.8374109468    11.2495051580
Ni      6.1431684344     4.9655839021    11.2494472299
Ni      7.3718651353     7.0937416269    11.2495332715
Ni      6.1432100067     0.7092254584    11.2495435794
Ni      7.3718942704     2.8373726722    11.2493847341
Ni      8.6005895198     4.9655602118    11.2493745413
Ni      9.8292732355     7.0937283320    11.2495269342
Ni      8.6006021280     0.7092072397    11.2495419623
Ni      9.8293062057     2.8373601521    11.2494528029
Ni     11.0579912525     4.9655434283    11.2495035716
Ni     12.2866321500     7.0936939228    11.2496635063
Ni      9.8234196335     0.0020670099    13.3015437724
Ni     11.0522099589     2.1299071707    13.3036752199
Ni     12.2805300377     4.2569938020    13.3035157593
Ni     13.5096830820     6.3851417704    13.3026114509
Ni      2.4515410415     0.0019775150    13.3022037257
Ni      3.6799519154     2.1302244892    13.3030825596
Ni      4.9084354248     4.2580898678    13.3040710211
Ni      6.1369952960     6.3861305332    13.3020482751
Ni      4.9085062934     0.0014277817    13.3014799438
Ni      6.1372871440     2.1306916464    13.3040079222
Ni      7.3660867649     4.2582379818    13.3050476891
Ni      8.5944183524     6.3857462051    13.3032206688
Ni      7.3652676017     0.0018652999    13.3009870819
Ni      8.5944575444     2.1300548254    13.3028281999
Ni      9.8235763448     4.2571529371    13.3040513465
Ni     11.0522021773     6.3859265807    13.3020915346
Ni      2.4478808567     1.4220826116    15.3345321078
Ni      3.6751664952     3.5503094822    15.3346787520
Ni      4.9047801368     5.6791624460    15.3347311866
Ni      6.1337839745     7.8082845488    15.3313300822
Ni      4.9053333705     1.4207677420    15.3312071199
Ni      6.1341629357     3.5510647749    15.3334147861
Ni      7.3614814342     5.6795464075    15.3327758023
Ni      8.5916155233     7.8080739783    15.3314975538
Ni      7.3633167159     1.4205771300    15.3321602521
Ni      8.5922710773     3.5475437023    15.3335482862
Ni      9.8220459577     5.6785724022    15.3310510197
Ni     11.0500030478     7.8083430503    15.3317083804
Ni      9.8211412380     1.4207311767    15.3335344704
Ni     11.0503050011     3.5483734092    15.3369972571
Ni     12.2791643117     5.6776062029    15.3332507645
Ni     13.5070586466     7.8068380494    15.3308752604
Ni      1.2177317196     0.7142529965    17.3870923264
Ni      2.4432891808     2.8430712736    17.3888310944
Ni      3.6705100581     4.9760681178    17.3856503508
Ni      4.9020031774     7.1017447791    17.3829405300
Ni      3.6783388989     0.7075277769    17.3641443445
Ni      4.8898452896     2.8505460687    17.3411282478
Ni      6.1209721859     4.9772010853    17.3724101679
Ni      7.3565145753     7.1111054649    17.3698320102
Ni      6.1377583446     0.6985418507    17.3692325218
Ni      7.3713062426     2.8352266825    17.3617795974
Ni      8.6034524155     4.9565530095    17.3282131128
Ni      9.8273641887     7.1129622337    17.3616503501
Ni      8.5940356136     0.7057124161    17.3791355671
Ni      9.8257400753     2.8330972513    17.3772203235
Ni     11.0617030180     4.9679461219    17.3707525841
Ni     12.2820902019     7.1019258572    17.3796057796
O       9.1680459447     3.4117090144    20.1114476537
O       7.7754203278     5.6734601636    18.8818171768
O       8.9593276426     3.2879775271    22.9304063617
C       8.4634913626     4.3980971472    20.8831024686
C       8.4826027956     5.7246956187    20.1276874109
C       9.1160856963     4.5497946049    22.2505939532
H       7.4121032215     4.0787183929    21.0218048972
H       9.5309924598     6.0158321052    19.9378627988
H       8.0094085376     6.4962695510    20.7526241165
H       8.6358612189     5.3629044424    22.8177038163
H      10.1847308727     4.7862381856    22.1139339423
H       9.1789965408     2.5837562896    20.6489248847
H       6.1205100113     2.1494886967    18.2951187632
H       9.4922534978     3.3062356575    23.7444129212
O       2.5388715856     0.6073420568    18.9316342521
H       2.6802274980     1.4049208073    19.4810816259
80
Step 5 | NEB Image 5 | Cartesian Angstrom
Ni      1.2286497034     0.7093615225    11.2499999440
Ni      2.4572989609     2.8374461750    11.2499999440
Ni      3.6859482184     4.9655308275    11.2499999440
Ni      4.9145974759     7.0936154800    11.2499999440
Ni      3.6859497034     0.7093615225    11.2499999440
Ni      4.9145989609     2.8374461750    11.2499999440
Ni      6.1432482184     4.9655308275    11.2499999440
Ni      7.3718974759     7.0936154800    11.2499999440
Ni      6.1432497034     0.7093615225    11.2499999440
Ni      7.3718989609     2.8374461750    11.2499999440
Ni      8.6005482184     4.9655308275    11.2499999440
Ni      9.8291974759     7.0936154800    11.2499999440
Ni      8.6005497034     0.7093615225    11.2499999440
Ni      9.8291989609     2.8374461750    11.2499999440
Ni     11.0578482184     4.9655308275    11.2499999440
Ni     12.2864974759     7.0936154800    11.2499999440
Ni      9.8231926870     0.0024995631    13.3023446442
Ni     11.0518089676     2.1302240586    13.3047083557
Ni     12.2800508544     4.2570722939    13.3044621680
Ni     13.5092873083     6.3850384546    13.3032134512
Ni      2.4517696982     0.0021660497    13.3026623307
Ni      3.6803278881     2.1303359107    13.3041135630
Ni      4.9088074938     4.2579363814    13.3054287544
Ni      6.1372745671     6.3857877107    13.3032783798
Ni      4.9086517115     0.0018312594    13.3024060945
Ni      6.1374036838     2.1309748468    13.3056096270
Ni      7.3661495135     4.2582451239    13.3069522585
Ni      8.5943413203     6.3854189562    13.3048451696
Ni      7.3652044956     0.0023769003    13.3020219334
Ni      8.5942385662     2.1304695544    13.3043868044
Ni      9.8231946918     4.2572739512    13.3057506922
Ni     11.0517679695     6.3857120360    13.3033344194
Ni      2.4490339821     1.4222228929    15.3362210124
Ni      3.6772966574     3.5494520554    15.3385526461
Ni      4.9062018672     5.6779299780    15.3378106046
Ni      6.1346571942     7.8070606266    15.3335999053
Ni      4.9058225197     1.4219699914    15.3362206260
Ni      6.1346426084     3.5508505475    15.3401418518
Ni      7.3625330027     5.6784279498    15.3395242568
Ni      8.5915701206     7.8062468470    15.3354851546
Ni      7.3627071376     1.4224398724    15.3370388041
Ni      8.5913286772     3.5492677633    15.3408174188
Ni      9.8201850849     5.6778143804    15.3377746619
Ni     11.0486433115     7.8070023171    15.3347462049
Ni      9.8200953547     1.4222882677    15.3366654644
Ni     11.0486075444     3.5492992589    15.3407265960
Ni     12.2774144623     5.6772885732    15.3359640033
Ni     13.5061541972     7.8063455902    15.3319299253
Ni      1.2187910631     0.7145173608    17.3879334314
Ni      2.4472474227     2.8420654806    17.3934581627
Ni      3.6755426811     4.9714604374    17.3911199588
Ni      4.9045369929     7.0990999797    17.3858410289
Ni      3.6755273590     0.7130852450    17.3897672789
Ni      4.9037000473     2.8423806074    17.3934481142
Ni      6.1319553005     4.9726957480    17.3963328007
Ni      7.3614524743     7.0997441935    17.3897409983
Ni      6.1332850561     0.7119051795    17.3902534707
Ni      7.3623531846     2.8409773484    17.3961534740
Ni      8.5911690953     4.9716069348    17.3936888912
Ni      9.8197669951     7.1000577029    17.3889506467
Ni      8.5911411426     0.7131642395    17.3880087950
Ni      9.8198330590     2.8408219131    17.3957136598
Ni     11.0487030798     4.9704125685    17.3927698418
Ni     12.2763266601     7.0989938309    17.3852102935
O       9.3819344244     4.1358166692    20.0930362367
O       7.4403591999     5.7710500252    18.8010456662
O       8.6054614657     3.3490556865    22.7703843692
C       8.1664603160     4.5686069475    20.7700096311
C       7.7641571257     5.9228005922    20.1887078083
C       8.3912004598     4.6889035721    22.2787219386
H       7.3485584428     3.8274455412    20.5710354409
H       8.5939941550     6.6612606078    20.2727262356
H       6.8675792875     6.3118286823    20.7285291220
H       7.5127131407     5.1500412147    22.7730789076
H       9.2780443246     5.3384479547    22.4478370724
H       9.6348023466     3.2728259917    20.4951539629
H       4.4134518168     1.3599542848    19.7391102444
H       8.7500633813     3.3953291848    23.7317250903
O       3.5190441201     1.0401590876    20.0091886335
H       2.9303167551     1.7729858078    19.7218291788
