80
Step 1 | NEB Image 1 | Cartesian Angstrom
Ni      1.2286497034     0.7093615225    11.2499999440
Ni      2.4572989609     2.8374461750    11.2499999440
Ni      3.6859482184     4.9655308275    11.2499999440
Ni      4.9145974759     7.0936154800    11.2499999440
Ni      3.6859497034     0.7093615225    11.2499999440
Ni      4.9145989609     2.8374461750    11.2499999440
Ni      6.1432482184     4.9655308275    11.2499999440
Ni      7.3718974759     7.0936154800    11.2499999440
Ni      6.1432497034     0.7093615225    11.2499999440
Ni      7.3718989609     2.8374461750    11.2499999440
Ni      8.6005482184     4.9655308275    11.2499999440
Ni      9.8291974759     7.0936154800    11.2499999440
Ni      8.6005497034     0.7093615225    11.2499999440
Ni      9.8291989609     2.8374461750    11.2499999440
Ni     11.0578482184     4.9655308275    11.2499999440
Ni     12.2864974759     7.0936154800    11.2499999440
Ni      9.8231926870     0.0024995631    13.3023446442
Ni     11.0518089676     2.1302240586    13.3047083557
Ni     12.2800508544     4.2570722939    13.3044621680
Ni     13.5092873083     6.3850384546    13.3032134512
Ni      2.4517696982     0.0021660497    13.3026623307
Ni      3.6803278881     2.1303359107    13.3041135630
Ni      4.9088074938     4.2579363814    13.3054287544
Ni      6.1372745671     6.3857877107    13.3032783798
Ni      4.9086517115     0.0018312594    13.3024060945
Ni      6.1374036838     2.1309748468    13.3056096270
Ni      7.3661495135     4.2582451239    13.3069522585
Ni      8.5943413203     6.3854189562    13.3048451696
Ni      7.3652044956     0.0023769003    13.3020219334
Ni      8.5942385662     2.1304695544    13.3043868044
Ni      9.8231946918     4.2572739512    13.3057506922
Ni     11.0517679695     6.3857120360    13.3033344194
Ni      2.4490339821     1.4222228929    15.3362210124
Ni      3.6772966574     3.5494520554    15.3385526461
Ni      4.9062018672     5.6779299780    15.3378106046
Ni      6.1346571942     7.8070606266    15.3335999053
Ni      4.9058225197     1.4219699914    15.3362206260
Ni      6.1346426084     3.5508505475    15.3401418518
Ni      7.3625330027     5.6784279498    15.3395242568
Ni      8.5915701206     7.8062468470    15.3354851546
Ni      7.3627071376     1.4224398724    15.3370388041
Ni      8.5913286772     3.5492677633    15.3408174188
Ni      9.8201850849     5.6778143804    15.3377746619
Ni     11.0486433115     7.8070023171    15.3347462049
Ni      9.8200953547     1.4222882677    15.3366654644
Ni     11.0486075444     3.5492992589    15.3407265960
Ni     12.2774144623     5.6772885732    15.3359640032
Ni     13.5061541972     7.8063455902    15.3319299253
Ni      1.2187910631     0.7145173608    17.3879334314
Ni      2.4472474227     2.8420654806    17.3934581627
Ni      3.6755426811     4.9714604374    17.3911199588
Ni      4.9045369929     7.0990999797    17.3858410289
Ni      3.6755273590     0.7130852450    17.3897672789
Ni      4.9037000473     2.8423806074    17.3934481142
Ni      6.1319553005     4.9726957480    17.3963328007
Ni      7.3614524743     7.0997441935    17.3897409983
Ni      6.1332850561     0.7119051795    17.3902534707
Ni      7.3623531846     2.8409773484    17.3961534740
Ni      8.5911690953     4.9716069348    17.3936888912
Ni      9.8197669951     7.1000577029    17.3889506467
Ni      8.5911411426     0.7131642395    17.3880087950
Ni      9.8198330590     2.8408219131    17.3957136598
Ni     11.0487030798     4.9704125685    17.3927698418
Ni     12.2763266601     7.0989938309    17.3852102935
O       8.1853233808     3.4574048182    21.7117206478
O       8.5869329741     5.0599815235    19.5762271001
O      10.2109211163     3.6451020548    23.8826602062
C       9.3606393600     4.2890487236    21.7367471584
C       9.7574736302     4.6321502783    20.3055951979
C      10.5272793641     3.6720453941    22.4918474794
H       9.0423459569     5.1976070563    22.2680419510
H      10.2036708160     3.7499198429    19.8025973096
H      10.4835571337     5.4542343167    20.2475656164
H      11.4351836342     4.2717022800    22.2942344717
H      10.7115000118     2.6514065461    22.0984614952
H       8.4384371395     2.5707271966    21.3925898339
H       7.8511829079     4.4818016084    19.8831003151
H      11.0040911060     3.3843978098    24.3788521822
O       2.4676593393     1.4045078651    18.8058894197
H       2.5804189712     1.3115658959    19.7657035449
80
Step 2 | NEB Image 2 | Cartesian Angstrom
Ni      1.2285249742     0.7093103643    11.2498059109
Ni      2.4571306041     2.8374300645    11.2496817304
Ni      3.6857687424     4.9655858249    11.2495982193
Ni      4.9144601651     7.0937402086    11.2496209573
Ni      3.6858284133     0.7092583889    11.2496342402
Ni      4.9144570805     2.8373987374    11.2494567509
Ni      6.1431297587     4.9655912084    11.2493905479
Ni      7.3718380761     7.0937631937    11.2495021362
Ni      6.1431959756     0.7092105590    11.2495251219
Ni      7.3718674701     2.8373677161    11.2493546528
Ni      8.6005612709     4.9655767252    11.2493558221
Ni      9.8292457884     7.0937442799    11.2495320726
Ni      8.6005879041     0.7092063327    11.2495549235
Ni      9.8292826325     2.8373689594    11.2494634701
Ni     11.0579603092     4.9655591020    11.2495210468
Ni     12.2866029377     7.0937016711    11.2496866120
Ni      9.8233679147     0.0020986740    13.3016319776
Ni     11.0521270821     2.1299354112    13.3037356466
Ni     12.2804410318     4.2570406812    13.3035419294
Ni     13.5096041111     6.3851722815    13.3026601169
Ni      2.4515020561     0.0019123878    13.3020610713
Ni      3.6799146909     2.1302011406    13.3030258900
Ni      4.9082679214     4.2580433335    13.3039609578
Ni      6.1368874276     6.3862047493    13.3019274485
Ni      4.9085021166     0.0013900609    13.3014573747
Ni      6.1371614321     2.1306180375    13.3039549056
Ni      7.3659563121     4.2582781233    13.3049148076
Ni      8.5943074985     6.3858344719    13.3032378876
Ni      7.3652207587     0.0018400898    13.3010407091
Ni      8.5943799084     2.1300340020    13.3027980084
Ni      9.8234599596     4.2572286332    13.3040380819
Ni     11.0520782647     6.3859960104    13.3021392673
Ni      2.4478171883     1.4221061158    15.3337768530
Ni      3.6753872510     3.5497736899    15.3354392187
Ni      4.9039436730     5.6793287139    15.3339515548
Ni      6.1336777749     7.8084889210    15.3314566136
Ni      4.9055211826     1.4209522562    15.3318086236
Ni      6.1326362857     3.5504950837    15.3327484027
Ni      7.3611313182     5.6802399445    15.3326598833
Ni      8.5911622056     7.8081030556    15.3321043216
Ni      7.3626716720     1.4196832484    15.3319420276
Ni      8.5919683640     3.5480547544    15.3330168415
Ni      9.8210580896     5.6791493243    15.3312618842
Ni     11.0494915622     7.8084167483    15.3320830085
Ni      9.8208983715     1.4207027633    15.3337151707
Ni     11.0499153817     3.5484697368    15.3366122502
Ni     12.2789818368     5.6779999319    15.3330001138
Ni     13.5068403739     7.8068800400    15.3309909747
Ni      1.2142461358     0.7130201855    17.3839880313
Ni      2.4434295827     2.8456077656    17.3884429754
Ni      3.6683818298     4.9742583463    17.3857098098
Ni      4.9008763365     7.1030221470    17.3825382902
Ni      3.6930521542     0.6982067129    17.3527269451
Ni      4.8890881778     2.8370275247    17.3697815774
Ni      6.1157587957     4.9889410772    17.3557300352
Ni      7.3559476521     7.1086958997    17.3778905671
Ni      6.1323797396     0.7037842474    17.3824023953
Ni      7.3693079506     2.8201990902    17.3374900287
Ni      8.5861745091     4.9713306926    17.3338640723
Ni      9.8217151713     7.1122498507    17.3677302661
Ni      8.5928084966     0.7060626809    17.3808793617
Ni      9.8224094159     2.8307042070    17.3762708172
Ni     11.0630523024     4.9761342129    17.3587289779
Ni     12.2802978427     7.1026420206    17.3802961137
O       8.0485311696     3.2071296742    21.2586743248
O       8.3969695163     5.1972596631    19.1849976501
O       9.6047525001     3.6640474549    23.6907973315
C       8.8673022277     4.3486324975    21.4736132311
C       9.3948430720     5.0033959982    20.1667649602
C      10.0631631938     4.0377514380    22.3793453989
H       8.2114700974     5.0613035253    22.0045952878
H      10.2147115477     4.3587828381    19.7725500456
H       9.8506861203     5.9755880518    20.4377473052
H      10.7323152244     4.9181805447    22.4355452161
H      10.6434825665     3.2067697595    21.9203366295
H       8.6165461274     2.4801416257    20.8988382520
H       6.5054725792     3.6593952278    18.3697629515
H      10.3539149817     3.4453597483    24.2305552514
O       2.5379178440     1.4350447293    18.7871781330
H       2.6964974389     1.4345573626    19.7531363268
80
Step 3 | NEB Image 3 | Cartesian Angstrom
Ni      1.2285048407     0.7093093097    11.2497820331
Ni      2.4571031076     2.8374344887    11.2496339093
Ni      3.6857436104     4.9655988317    11.2495343226
Ni      4.9144396676     7.0937590562    11.2495526889
Ni      3.6857990543     0.7092449816    11.2495501065
Ni      4.9144310339     2.8373973817    11.2493340877
Ni      6.1431107800     4.9656025885    11.2492519630
Ni      7.3718308950     7.0937922755    11.2493680574
Ni      6.1431859755     0.7091778979    11.2493820489
Ni      7.3718699389     2.8373487846    11.2491732593
Ni      8.6005785578     4.9655786278    11.2491605828
Ni      9.8292774950     7.0937757938    11.2493711079
Ni      8.6006094918     0.7091586108    11.2493960686
Ni      9.8293247031     2.8373367627    11.2492786700
Ni     11.0580179222     4.9655555424    11.2493440915
Ni     12.2866593748     7.0937264081    11.2495598047
Ni      9.8234688404     0.0019457788    13.3013171659
Ni     11.0522944232     2.1298150580    13.3033753115
Ni     12.2806432324     4.2569778866    13.3031870808
Ni     13.5097835791     6.3852014015    13.3024099088
Ni      2.4514235995     0.0018923540    13.3019511248
Ni      3.6797968404     2.1302027235    13.3027577171
Ni      4.9081975034     4.2581023582    13.3036599205
Ni      6.1368118420     6.3862651827    13.3016144141
Ni      4.9084590101     0.0012814558    13.3011270844
Ni      6.1371555288     2.1305768360    13.3034819209
Ni      7.3659514282     4.2582582213    13.3043676391
Ni      8.5943521742     6.3859136473    13.3026782885
Ni      7.3652559371     0.0016840756    13.3006588266
Ni      8.5944783736     2.1299096325    13.3022919604
Ni      9.8236286599     4.2571448369    13.3034550485
Ni     11.0522735803     6.3860522267    13.3016638287
Ni      2.4472818651     1.4222221135    15.3336237013
Ni      3.6745958568     3.5501827222    15.3343068631
Ni      4.9038629369     5.6794888752    15.3335937926
Ni      6.1333577412     7.8087690495    15.3306732811
Ni      4.9054136428     1.4206195913    15.3298288720
Ni      6.1328771341     3.5508525501    15.3312309197
Ni      7.3606607711     5.6803607899    15.3304705867
Ni      8.5913161773     7.8087433805    15.3305069535
Ni      7.3630049266     1.4194018931    15.3303655408
Ni      8.5925114318     3.5472207783    15.3306354749
Ni      9.8220725098     5.6792735039    15.3285394457
Ni     11.0501431512     7.8089291091    15.3308665067
Ni      9.8214193210     1.4202985563    15.3326457654
Ni     11.0506123385     3.5479037967    15.3355199937
Ni     12.2798233749     5.6779939951    15.3318450602
Ni     13.5072738995     7.8070821425    15.3305393731
Ni      1.2164653406     0.7143292396    17.3864601299
Ni      2.4429626760     2.8421869933    17.3911273522
Ni      3.6678086950     4.9759321071    17.3842549396
Ni      4.9005201410     7.1030525730    17.3820401970
Ni      3.6880713219     0.7003729956    17.3397911648
Ni      4.8810995602     2.8405199595    17.3442520661
Ni      6.1161956190     4.9844291342    17.3601642610
Ni      7.3535278638     7.1136826380    17.3678083142
Ni      6.1338186368     0.6977076712    17.3726496368
Ni      7.3755840397     2.8288255610    17.3339655661
Ni      8.5948552976     4.9596877799    17.3059345574
Ni      9.8258491907     7.1186177322    17.3571125162
Ni      8.5944351320     0.7025079853    17.3754479803
Ni      9.8265467855     2.8313696626    17.3747904677
Ni     11.0705109672     4.9678912614    17.3495471961
Ni     12.2835734360     7.1042747108    17.3775177392
O       8.6217492872     3.0599091785    20.5079829309
O       8.1029586040     5.4291470870    19.0470596260
O       9.1895815834     3.4066140317    23.3299807614
C       8.6422383900     4.3126081924    21.1912621337
C       8.9884124019     5.4042592191    20.1639538730
C       9.6730813743     4.3057670313    22.3273714563
H       7.6582818655     4.5261672017    21.6320249803
H      10.0270779064     5.2390115484    19.8292412979
H       8.9339135128     6.3837912802    20.6693595775
H       9.7995466024     5.3237931995    22.7278790227
H      10.6396127142     3.9582182610    21.9263110678
H       8.8970178206     2.3623593905    21.1479224380
H       6.1139737660     2.9751832339    18.3529960330
H       9.8770701249     3.3532761581    24.0533767751
O       2.5748490325     0.8389235613    18.9126720042
H       2.8138854326     1.5842712689    19.4962554745
80
Step 4 | NEB Image 4 | Cartesian Angstrom
Ni      1.2285636279     0.7093267205    11.2498629469
Ni      2.4571775127     2.8374392707    11.2497453350
Ni      3.6858270096     4.9655839139    11.2496735582
Ni      4.9145089333     7.0937153204    11.2496961701
Ni      3.6858541761     0.7092809093    11.2497005727
Ni      4.9145011624     2.8374133228    11.2495320483
Ni      6.1431781493     4.9655809061    11.2494779653
Ni      7.3718710242     7.0937334546    11.2495587869
Ni      6.1432139951     0.7092329763    11.2495681770
Ni      7.3718986758     2.8373763745    11.2494171091
Ni      8.6005919762     4.9655569876    11.2494069554
Ni      9.8292734011     7.0937207979    11.2495499947
Ni      8.6006014457     0.7092145092    11.2495633155
Ni      9.8293041376     2.8373633793    11.2494784290
Ni     11.0579881819     4.9655411672    11.2495268170
Ni     12.2866289462     7.0936888583    11.2496782795
Ni      9.8234138110     0.0020841443    13.3015749556
Ni     11.0521997929     2.1299200681    13.3037181298
Ni     12.2805157707     4.2569948074    13.3035639546
Ni     13.5096704134     6.3851319990    13.3026400538
Ni      2.4515596713     0.0019920967    13.3022455080
Ni      3.6799760988     2.1302284102    13.3031325934
Ni      4.9084757447     4.2580893638    13.3041354563
Ni      6.1370257659     6.3861083158    13.3021164169
Ni      4.9085134577     0.0014506755    13.3015331610
Ni      6.1373104121     2.1307108911    13.3040878127
Ni      7.3661107263     4.2582337975    13.3051528525
Ni      8.5944314411     6.3857186924    13.3033009547
Ni      7.3652707044     0.0018930275    13.3010344134
Ni      8.5944567044     2.1300770583    13.3029089521
Ni      9.8235719442     4.2571519384    13.3041405522
Ni     11.0521951526     6.3859058421    13.3021538522
Ni      2.4479719398     1.4220611398    15.3346894170
Ni      3.6752450583     3.5503439802    15.3347119626
Ni      4.9049411245     5.6791089885    15.3349233016
Ni      6.1338505597     7.8082064296    15.3314242240
Ni      4.9053159349     1.4207844254    15.3313948846
Ni      6.1343989511     3.5511129835    15.3337594675
Ni      7.3616138861     5.6794048952    15.3331225396
Ni      8.5916733222     7.8079734219    15.3316274232
Ni      7.3633819592     1.4207782290    15.3324339337
Ni      8.5922440925     3.5475769124    15.3339976415
Ni      9.8220707890     5.6784511574    15.3314189913
Ni     11.0499970843     7.8082536052    15.3318228629
Ni      9.8211068912     1.4207964382    15.3336615746
Ni     11.0502705780     3.5484405612    15.3372285135
Ni     12.2790714531     5.6775369662    15.3334674638
Ni     13.5070329431     7.8068004657    15.3309219213
Ni      1.2180218580     0.7142775204    17.3872768772
Ni      2.4433336786     2.8431292056    17.3885001827
Ni      3.6709744278     4.9761411408    17.3858564448
Ni      4.9022569086     7.1015127784    17.3830863403
Ni      3.6764605240     0.7088650750    17.3681048619
Ni      4.8911701978     2.8524335987    17.3398278468
Ni      6.1218354718     4.9757824366    17.3747199647
Ni      7.3569760117     7.1107917995    17.3698986252
Ni      6.1385019977     0.6985133166    17.3683396581
Ni      7.3707271779     2.8366178062    17.3666303521
Ni      8.6052365339     4.9556555053    17.3313670043
Ni      9.8277544886     7.1121405245    17.3621490464
Ni      8.5940118552     0.7061795517    17.3796341021
Ni      9.8257169306     2.8334241972    17.3776097103
Ni     11.0603515869     4.9677158941    17.3742617941
Ni     12.2819214735     7.1015550832    17.3798967060
O       9.2439390031     3.4248911600    20.1867270146
O       7.7596222816     5.6212795883    18.8996151183
O       8.9365549906     3.2771373108    22.9938918971
C       8.4505673953     4.3712794006    20.9341699026
C       8.4048528832     5.7032381994    20.1820611281
C       9.0605807697     4.5473569574    22.3259472241
H       7.4268790599     3.9853816704    21.0559787733
H       9.4297687829     6.0786093682    20.0477251547
H       7.8358001477     6.4254096327    20.7902229411
H       8.5292469312     5.3364845783    22.8803737225
H      10.1250806430     4.8261244617    22.2249514936
H       9.3132959586     2.6359115957    20.7181501952
H       5.6915396651     2.3039369791    18.5196971452
H       9.4170328975     3.3223927818    23.8389903119
O       2.9024987761     0.7080810460    19.0857269737
H       3.0218907336     1.5827551991    19.4552190691
80
Step 5 | NEB Image 5 | Cartesian Angstrom
Ni      1.2286497034     0.7093615225    11.2499999440
Ni      2.4572989609     2.8374461750    11.2499999440
Ni      3.6859482184     4.9655308275    11.2499999440
Ni      4.9145974759     7.0936154800    11.2499999440
Ni      3.6859497034     0.7093615225    11.2499999440
Ni      4.9145989609     2.8374461750    11.2499999440
Ni      6.1432482184     4.9655308275    11.2499999440
Ni      7.3718974759     7.0936154800    11.2499999440
Ni      6.1432497034     0.7093615225    11.2499999440
Ni      7.3718989609     2.8374461750    11.2499999440
Ni      8.6005482184     4.9655308275    11.2499999440
Ni      9.8291974759     7.0936154800    11.2499999440
Ni      8.6005497034     0.7093615225    11.2499999440
Ni      9.8291989609     2.8374461750    11.2499999440
Ni     11.0578482184     4.9655308275    11.2499999440
Ni     12.2864974759     7.0936154800    11.2499999440
Ni      9.8231926870     0.0024995631    13.3023446442
Ni     11.0518089676     2.1302240586    13.3047083557
Ni     12.2800508544     4.2570722939    13.3044621680
Ni     13.5092873083     6.3850384546    13.3032134512
Ni      2.4517696982     0.0021660497    13.3026623307
Ni      3.6803278881     2.1303359107    13.3041135630
Ni      4.9088074938     4.2579363814    13.3054287544
Ni      6.1372745671     6.3857877107    13.3032783798
Ni      4.9086517115     0.0018312594    13.3024060945
Ni      6.1374036838     2.1309748468    13.3056096270
Ni      7.3661495135     4.2582451239    13.3069522585
Ni      8.5943413203     6.3854189562    13.3048451696
Ni      7.3652044956     0.0023769003    13.3020219334
Ni      8.5942385662     2.1304695544    13.3043868044
Ni      9.8231946918     4.2572739512    13.3057506922
Ni     11.0517679695     6.3857120360    13.3033344194
Ni      2.4490339821     1.4222228929    15.3362210124
Ni      3.6772966574     3.5494520554    15.3385526461
Ni      4.9062018672     5.6779299780    15.3378106046
Ni      6.1346571942     7.8070606266    15.3335999053
Ni      4.9058225197     1.4219699914    15.3362206260
Ni      6.1346426084     3.5508505475    15.3401418518
Ni      7.3625330027     5.6784279498    15.3395242568
Ni      8.5915701206     7.8062468470    15.3354851546
Ni      7.3627071376     1.4224398724    15.3370388041
Ni      8.5913286772     3.5492677633    15.3408174188
Ni      9.8201850849     5.6778143804    15.3377746619
Ni     11.0486433115     7.8070023171    15.3347462049
Ni      9.8200953547     1.4222882677    15.3366654644
Ni     11.0486075444     3.5492992589    15.3407265960
Ni     12.2774144623     5.6772885732    15.3359640032
Ni     13.5061541972     7.8063455902    15.3319299253
Ni      1.2187910631     0.7145173608    17.3879334314
Ni      2.4472474227     2.8420654806    17.3934581627
Ni      3.6755426811     4.9714604374    17.3911199588
Ni      4.9045369929     7.0990999797    17.3858410289
Ni      3.6755273590     0.7130852450    17.3897672789
Ni      4.9037000473     2.8423806074    17.3934481142
Ni      6.1319553005     4.9726957480    17.3963328007
Ni      7.3614524743     7.0997441935    17.3897409983
Ni      6.1332850561     0.7119051795    17.3902534707
Ni      7.3623531846     2.8409773484    17.3961534740
Ni      8.5911690953     4.9716069348    17.3936888912
Ni      9.8197669951     7.1000577029    17.3889506467
Ni      8.5911411426     0.7131642395    17.3880087950
Ni      9.8198330590     2.8408219131    17.3957136598
Ni     11.0487030798     4.9704125685    17.3927698418
Ni     12.2763266601     7.0989938309    17.3852102935
O       9.3819344244     4.1358166692    20.0930362367
O       7.4403591999     5.7710500252    18.8010456662
O       8.6054614657     3.3490556865    22.7703843692
C       8.1664603160     4.5686069475    20.7700096311
C       7.7641571257     5.9228005922    20.1887078083
C       8.3912004598     4.6889035721    22.2787219386
H       7.3485584428     3.8274455412    20.5710354409
H       8.5939941550     6.6612606078    20.2727262356
H       6.8675792875     6.3118286823    20.7285291220
H       7.5127131407     5.1500412147    22.7730789076
H       9.2780443246     5.3384479547    22.4478370724
H       9.6348023466     3.2728259917    20.4951539629
H       4.4134518168     1.3599542848    19.7391102444
H       8.7500633813     3.3953291848    23.7317250903
O       3.5190441201     1.0401590876    20.0091886335
H       2.9303167551     1.7729858078    19.7218291788
