80
Step 1 | NEB Image 1 | Cartesian Angstrom
Ni      1.2286497034     0.7093615225    11.2499999440
Ni      2.4572989609     2.8374461750    11.2499999440
Ni      3.6859482184     4.9655308275    11.2499999440
Ni      4.9145974759     7.0936154800    11.2499999440
Ni      3.6859497034     0.7093615225    11.2499999440
Ni      4.9145989609     2.8374461750    11.2499999440
Ni      6.1432482184     4.9655308275    11.2499999440
Ni      7.3718974759     7.0936154800    11.2499999440
Ni      6.1432497034     0.7093615225    11.2499999440
Ni      7.3718989609     2.8374461750    11.2499999440
Ni      8.6005482184     4.9655308275    11.2499999440
Ni      9.8291974759     7.0936154800    11.2499999440
Ni      8.6005497034     0.7093615225    11.2499999440
Ni      9.8291989609     2.8374461750    11.2499999440
Ni     11.0578482184     4.9655308275    11.2499999440
Ni     12.2864974759     7.0936154800    11.2499999440
Ni      9.8231926870     0.0024995631    13.3023446442
Ni     11.0518089676     2.1302240586    13.3047083557
Ni     12.2800508544     4.2570722939    13.3044621680
Ni     13.5092873083     6.3850384546    13.3032134512
Ni      2.4517696982     0.0021660497    13.3026623307
Ni      3.6803278881     2.1303359107    13.3041135630
Ni      4.9088074938     4.2579363814    13.3054287544
Ni      6.1372745671     6.3857877107    13.3032783798
Ni      4.9086517115     0.0018312594    13.3024060945
Ni      6.1374036838     2.1309748468    13.3056096270
Ni      7.3661495135     4.2582451239    13.3069522585
Ni      8.5943413203     6.3854189562    13.3048451696
Ni      7.3652044956     0.0023769003    13.3020219334
Ni      8.5942385662     2.1304695544    13.3043868044
Ni      9.8231946918     4.2572739512    13.3057506922
Ni     11.0517679695     6.3857120360    13.3033344194
Ni      2.4490339821     1.4222228929    15.3362210124
Ni      3.6772966574     3.5494520554    15.3385526461
Ni      4.9062018672     5.6779299780    15.3378106046
Ni      6.1346571942     7.8070606266    15.3335999053
Ni      4.9058225197     1.4219699914    15.3362206260
Ni      6.1346426084     3.5508505475    15.3401418518
Ni      7.3625330027     5.6784279498    15.3395242568
Ni      8.5915701206     7.8062468470    15.3354851546
Ni      7.3627071376     1.4224398724    15.3370388041
Ni      8.5913286772     3.5492677633    15.3408174188
Ni      9.8201850849     5.6778143804    15.3377746619
Ni     11.0486433115     7.8070023171    15.3347462049
Ni      9.8200953547     1.4222882677    15.3366654644
Ni     11.0486075444     3.5492992589    15.3407265960
Ni     12.2774144623     5.6772885732    15.3359640033
Ni     13.5061541972     7.8063455902    15.3319299253
Ni      1.2187910631     0.7145173608    17.3879334314
Ni      2.4472474227     2.8420654806    17.3934581627
Ni      3.6755426811     4.9714604374    17.3911199588
Ni      4.9045369929     7.0990999797    17.3858410289
Ni      3.6755273590     0.7130852450    17.3897672789
Ni      4.9037000473     2.8423806074    17.3934481142
Ni      6.1319553005     4.9726957480    17.3963328007
Ni      7.3614524743     7.0997441935    17.3897409983
Ni      6.1332850561     0.7119051795    17.3902534707
Ni      7.3623531846     2.8409773484    17.3961534740
Ni      8.5911690953     4.9716069348    17.3936888912
Ni      9.8197669951     7.1000577029    17.3889506467
Ni      8.5911411426     0.7131642395    17.3880087950
Ni      9.8198330590     2.8408219131    17.3957136598
Ni     11.0487030798     4.9704125685    17.3927698418
Ni     12.2763266601     7.0989938309    17.3852102935
O       8.1853233808     3.4574048182    21.7117206478
O       8.5869329741     5.0599815235    19.5762271001
O      10.2109211163     3.6451020548    23.8826602062
C       9.3606393600     4.2890487236    21.7367471584
C       9.7574736302     4.6321502783    20.3055951979
C      10.5272793641     3.6720453941    22.4918474794
H       9.0423459569     5.1976070563    22.2680419510
H      10.2036708160     3.7499198429    19.8025973096
H      10.4835571337     5.4542343167    20.2475656164
H      11.4351836342     4.2717022800    22.2942344717
H      10.7115000118     2.6514065461    22.0984614952
H       8.4384371395     2.5707271966    21.3925898339
H       7.8511829079     4.4818016084    19.8831003151
H      11.0040911060     3.3843978098    24.3788521822
O       2.4676593393     1.4045078651    18.8058894197
H       2.5804189712     1.3115658959    19.7657035449
80
Step 2 | NEB Image 2 | Cartesian Angstrom
Ni      1.2286182556     0.7093453295    11.2499476445
Ni      2.4572566974     2.8374388737    11.2499183438
Ni      3.6859011947     4.9655426994    11.2498985749
Ni      4.9145620500     7.0936474169    11.2499079325
Ni      3.6859236755     0.7093341065    11.2499195434
Ni      4.9145646246     2.8374313365    11.2498796354
Ni      6.1432182027     4.9655452449    11.2498653956
Ni      7.3718812960     7.0936502153    11.2498996735
Ni      6.1432367538     0.7093274229    11.2499113193
Ni      7.3718874179     2.8374293681    11.2498735135
Ni      8.6005443261     4.9655449545    11.2498802984
Ni      9.8291984302     7.0936429377    11.2499219224
Ni      8.6005521083     0.7093330374    11.2499284225
Ni      9.8292066683     2.8374359325    11.2499106290
Ni     11.0578579778     4.9655417331    11.2499257460
Ni     12.2865056403     7.0936321669    11.2499565232
Ni      9.8232029648     0.0024397661    13.3022582135
Ni     11.0518349584     2.1301857286    13.3045582748
Ni     12.2800842288     4.2570910780    13.3043262812
Ni     13.5093073800     6.3850687531    13.3031488117
Ni      2.4517185052     0.0020925325    13.3025166397
Ni      3.6802475549     2.1302913727    13.3038832804
Ni      4.9086635425     4.2579437031    13.3050899703
Ni      6.1371828096     6.3858957691    13.3029827987
Ni      4.9086229060     0.0017376449    13.3022493860
Ni      6.1373269098     2.1308775216    13.3052891959
Ni      7.3660881107     4.2582652134    13.3065410936
Ni      8.5943090783     6.3855180971    13.3045801625
Ni      7.3651933312     0.0022740541    13.3018788607
Ni      8.5942387803     2.1303850949    13.3041029732
Ni      9.8232026769     4.2572981143    13.3054620193
Ni     11.0517783337     6.3857789082    13.3031646996
Ni      2.4488836170     1.4221324217    15.3354933849
Ni      3.6770412274     3.5493652149    15.3380674659
Ni      4.9055007401     5.6783110938    15.3367180855
Ni      6.1344851714     7.8073969482    15.3332643085
Ni      4.9057755835     1.4217937681    15.3357000540
Ni      6.1338706223     3.5505677737    15.3384349320
Ni      7.3622908622     5.6789651749    15.3382994218
Ni      8.5913641019     7.8065560168    15.3351240873
Ni      7.3625383380     1.4216683820    15.3361058956
Ni      8.5912856439     3.5492595812    15.3393736219
Ni      9.8199969650     5.6781947014    15.3369093806
Ni     11.0486165637     7.8072272010    15.3344418593
Ni      9.8201157701     1.4219590974    15.3361995185
Ni     11.0487098937     3.5492895398    15.3398895491
Ni     12.2775366549     5.6775248299    15.3355290700
Ni     13.5061768506     7.8064268062    15.3318328352
Ni      1.2162792142     0.7134257450    17.3855035627
Ni      2.4462257235     2.8447925118    17.3906081161
Ni      3.6734683200     4.9715879012    17.3900325238
Ni      4.9035050540     7.1003663125    17.3849957032
Ni      3.6835934574     0.7072038527    17.3835788666
Ni      4.9026055898     2.8389425127    17.3976654015
Ni      6.1264701492     4.9801090162    17.3810298081
Ni      7.3607689451     7.1003483105    17.3905687056
Ni      6.1322909733     0.7120905176    17.3922684038
Ni      7.3617267301     2.8301938836    17.3785685295
Ni      8.5854505627     4.9769486220    17.3871036307
Ni      9.8184657652     7.1010953694    17.3869730894
Ni      8.5909290640     0.7124889087    17.3881915559
Ni      9.8187531085     2.8372237446    17.3900874805
Ni     11.0499590599     4.9760904515    17.3858360677
Ni     12.2761038954     7.0994364517    17.3848919468
O       8.1297721966     3.4623148680    21.5825044344
O       8.7022482472     5.0798426353    19.2560197695
O      10.2076820679     3.9249097780    23.7040595398
C       9.3045953909     4.2685518980    21.4975947179
C       9.7315990318     4.4992442815    20.0294418544
C      10.4649603950     3.6739744954    22.3145410633
H       9.0424092984     5.2349959539    21.9660678635
H      10.0255817869     3.4940027452    19.6135766126
H      10.6523533805     5.1229113535    20.0124058907
H      11.4267053329     4.1326578077    22.0076300709
H      10.5144617241     2.5854278459    22.1088167502
H       8.1735043013     2.8088906428    20.8502281663
H       6.3337510083     3.6574439503    18.4187307799
H      10.9488021247     3.6035510416    24.2298105528
O       2.5131749944     1.4925495612    18.8037795970
H       2.6416808158     1.5382847571    19.7731328687
80
Step 3 | NEB Image 3 | Cartesian Angstrom
Ni      1.2285521085     0.7093216863    11.2498482786
Ni      2.4571671591     2.8374338012    11.2497506359
Ni      3.6858079174     4.9655741458    11.2496850583
Ni      4.9144901529     7.0937132032    11.2497027226
Ni      3.6858544064     0.7092807981    11.2497125924
Ni      4.9144878657     2.8374092194    11.2495729164
Ni      6.1431556704     4.9655782143    11.2495208808
Ni      7.3718512320     7.0937313841    11.2496078881
Ni      6.1432076455     0.7092428982    11.2496254674
Ni      7.3718747694     2.8373844374    11.2494914090
Ni      8.6005592347     4.9655665325    11.2494918306
Ni      9.8292364003     7.0937167319    11.2496301419
Ni      8.6005802929     0.7092390350    11.2496479519
Ni      9.8292657301     2.8373848977    11.2495758471
Ni     11.0579376874     4.9655526321    11.2496209626
Ni     12.2865817091     7.0936833652    11.2497515559
Ni      9.8233328599     0.0021819627    13.3017785578
Ni     11.0520629054     2.1299950566    13.3039382218
Ni     12.2803620678     4.2570454055    13.3037336699
Ni     13.5095404597     6.3851433772    13.3027740611
Ni      2.4515590673     0.0019681264    13.3021915158
Ni      3.6800024677     2.1302308940    13.3032573918
Ni      4.9083862142     4.2580220829    13.3042753041
Ni      6.1369715247     6.3861142322    13.3022161676
Ni      4.9085337558     0.0014841749    13.3016565970
Ni      6.1372158651     2.1306958764    13.3043050654
Ni      7.3660001384     4.2582698881    13.3053477479
Ni      8.5943174939     6.3857445454    13.3035746314
Ni      7.3652187132     0.0019537346    13.3012447144
Ni      8.5943525438     2.1301262688    13.3031326742
Ni      9.8234078058     4.2572354384    13.3043976521
Ni     11.0520170396     6.3859344768    13.3023877451
Ni      2.4480704831     1.4221340630    15.3343166599
Ni      3.6757814503     3.5497208788    15.3360802552
Ni      4.9044458031     5.6790252403    15.3347953137
Ni      6.1338851011     7.8081813747    15.3319033221
Ni      4.9055816908     1.4211635981    15.3327145626
Ni      6.1331008460     3.5505891593    15.3343333256
Ni      7.3614304773     5.6798380771    15.3341055307
Ni      8.5912611816     7.8077133356    15.3327945579
Ni      7.3626964214     1.4202900210    15.3330184374
Ni      8.5918461989     3.5482920220    15.3346677795
Ni      9.8209059544     5.6788531927    15.3326134207
Ni     11.0493294358     7.8081196574    15.3326291765
Ni      9.8207392211     1.4210391505    15.3343302000
Ni     11.0496524334     3.5486356129    15.3374884382
Ni     12.2786629108     5.6778391884    15.3336220227
Ni     13.5067042480     7.8067677922    15.3311832124
Ni      1.2153393734     0.7133954743    17.3849513485
Ni      2.4442489448     2.8447172902    17.3896070333
Ni      3.6699591626     4.9737137806    17.3868536493
Ni      4.9016816859     7.1021497959    17.3832520942
Ni      3.6889055858     0.7016332456    17.3606503236
Ni      4.8920920194     2.8384670573    17.3739275368
Ni      6.1193739051     4.9851261483    17.3649235946
Ni      7.3570974874     7.1068977699    17.3801191821
Ni      6.1326866344     0.7053355163    17.3836958502
Ni      7.3679708051     2.8251477460    17.3505353842
Ni      8.5877135577     4.9709041606    17.3461567289
Ni      9.8214687237     7.1097548941    17.3720168155
Ni      8.5925012591     0.7075205511    17.3822785674
Ni      9.8219938774     2.8329600207    17.3804883379
Ni     11.0600846997     4.9745733545    17.3660974567
Ni     12.2795359172     7.1018759720    17.3812910151
O       8.5483090004     3.3149361752    20.3929139719
O       8.9551842256     5.8856642072    18.9685973342
O       9.3750805009     3.4980206693    23.2149219024
C       9.0768145219     4.4781055460    21.0350772905
C       9.7887033679     5.3176155617    19.9780748182
C      10.0818961855     4.1124284137    22.1257746857
H       8.2608148797     5.0694201095    21.4920584334
H      10.5578280908     4.6496429078    19.5126076097
H      10.3132222358     6.1439431903    20.4785210486
H      10.6058484206     5.0216557379    22.4645514188
H      10.8245541141     3.4106027375    21.7074274833
H       8.2612550715     2.6801634511    21.0739571199
H       6.1236004246     3.5522884594    18.3048974253
H      10.0269870527     3.2479697940    23.8883250965
O       2.4878364972     0.4884085073    18.8765086324
H       2.5379124715     1.1952228726    19.5578177345
80
Step 4 | NEB Image 4 | Cartesian Angstrom
Ni      1.2285425339     0.7093192803    11.2498325691
Ni      2.4571507055     2.8374365068    11.2497036749
Ni      3.6857965224     4.9655890424    11.2496219169
Ni      4.9144839922     7.0937316555    11.2496445687
Ni      3.6858356721     0.7092671819    11.2496493387
Ni      4.9144765300     2.8374065421    11.2494640046
Ni      6.1431543135     4.9655886725    11.2494004780
Ni      7.3718566714     7.0937541784    11.2494963401
Ni      6.1432042062     0.7092138500    11.2495093122
Ni      7.3718877615     2.8373670413    11.2493383102
Ni      8.6005856906     4.9655655056    11.2493292664
Ni      9.8292721776     7.0937392413    11.2494962066
Ni      8.6006025314     0.7091970194    11.2495138930
Ni      9.8293081934     2.8373562255    11.2494185425
Ni     11.0579941617     4.9655474042    11.2494735535
Ni     12.2866350695     7.0937009463    11.2496452928
Ni      9.8234244723     0.0020449941    13.3015073674
Ni     11.0522195922     2.1298915182    13.3036193551
Ni     12.2805442081     4.2569966908    13.3034551881
Ni     13.5096945827     6.3851556776    13.3025785346
Ni      2.4515159763     0.0019528330    13.3021419819
Ni      3.6799182958     2.1302148295    13.3030064840
Ni      4.9083743655     4.2580894718    13.3039669000
Ni      6.1369517711     6.3861667732    13.3019451102
Ni      4.9084960174     0.0013938721    13.3014104159
Ni      6.1372515552     2.1306594907    13.3038931854
Ni      7.3660520814     4.2582457379    13.3048955451
Ni      8.5943981005     6.3857870175    13.3031144165
Ni      7.3652616467     0.0018261767    13.3009275306
Ni      8.5944555221     2.1300232067    13.3027176264
Ni      9.8235771888     4.2571594117    13.3039327552
Ni     11.0522055260     6.3859565597    13.3020144033
Ni      2.4477743005     1.4220937655    15.3342713260
Ni      3.6750704504     3.5502469489    15.3346198751
Ni      4.9045158578     5.6792629245    15.3343948255
Ni      6.1336968463     7.8084049490    15.3312065788
Ni      4.9053516302     1.4207385683    15.3309904811
Ni      6.1337934790     3.5509656592    15.3328669070
Ni      7.3613143639     5.6797682161    15.3323008279
Ni      8.5915202050     7.8082063371    15.3313546015
Ni      7.3632114542     1.4202643771    15.3317845387
Ni      8.5922809093     3.5475297544    15.3329350200
Ni      9.8219645943     5.6787527418    15.3306084899
Ni     11.0499869434     7.8084568566    15.3315780625
Ni      9.8211675071     1.4206303526    15.3333666299
Ni     11.0503352456     3.5483115773    15.3366668922
Ni     12.2792603358     5.6777137083    15.3329848585
Ni     13.5070778005     7.8068847686    15.3308238441
Ni      1.2170412666     0.7140604894    17.3865262181
Ni      2.4431359022     2.8434181668    17.3888103782
Ni      3.6697523003     4.9759462412    17.3853319944
Ni      4.9016019695     7.1021572941    17.3826903682
Ni      3.6815913370     0.7052388530    17.3592331448
Ni      4.8884254190     2.8478534885    17.3439029394
Ni      6.1193326442     4.9798303682    17.3678520625
Ni      7.3559746494     7.1113856860    17.3701579723
Ni      6.1367364593     0.6987826438    17.3707990072
Ni      7.3717160272     2.8321209030    17.3542516017
Ni      8.6004622089     4.9585601771    17.3246555307
Ni      9.8266357183     7.1138401373    17.3611720721
Ni      8.5939892515     0.7052016392    17.3787431991
Ni      9.8255174905     2.8322885092    17.3761748713
Ni     11.0631883276     4.9691108752    17.3661665281
Ni     12.2821606164     7.1023571798    17.3793166030
O       9.0806374531     3.4117084281    20.0026694044
O       7.8800326174     5.7756880715    18.8742374693
O       9.0196112929     3.2658539941    22.8224652469
C       8.5358266752     4.4629627262    20.8189647795
C       8.6650166203     5.7814288888    20.0679168809
C       9.2708540501     4.5147804030    22.1489790880
H       7.4648274656     4.2675212533    21.0021159095
H       9.7280108188     5.9548211914    19.8145242833
H       8.3171956487     6.6069394249    20.7083176781
H       8.9063000859     5.3641842457    22.7514483399
H      10.3482569163     4.6444124200    21.9586235594
H       8.9368723580     2.5697352833    20.4706103705
H       6.1324608301     2.1713337599    18.2925192768
H       9.6140051215     3.1937451855    23.5743874082
O       2.4703277696     0.5013569669    18.9023700285
H       2.4845730730     1.2689306393    19.5138387140
80
Step 5 | NEB Image 5 | Cartesian Angstrom
Ni      1.2286497034     0.7093615225    11.2499999440
Ni      2.4572989609     2.8374461750    11.2499999440
Ni      3.6859482184     4.9655308275    11.2499999440
Ni      4.9145974759     7.0936154800    11.2499999440
Ni      3.6859497034     0.7093615225    11.2499999440
Ni      4.9145989609     2.8374461750    11.2499999440
Ni      6.1432482184     4.9655308275    11.2499999440
Ni      7.3718974759     7.0936154800    11.2499999440
Ni      6.1432497034     0.7093615225    11.2499999440
Ni      7.3718989609     2.8374461750    11.2499999440
Ni      8.6005482184     4.9655308275    11.2499999440
Ni      9.8291974759     7.0936154800    11.2499999440
Ni      8.6005497034     0.7093615225    11.2499999440
Ni      9.8291989609     2.8374461750    11.2499999440
Ni     11.0578482184     4.9655308275    11.2499999440
Ni     12.2864974759     7.0936154800    11.2499999440
Ni      9.8231926870     0.0024995631    13.3023446442
Ni     11.0518089676     2.1302240586    13.3047083557
Ni     12.2800508544     4.2570722939    13.3044621680
Ni     13.5092873083     6.3850384546    13.3032134512
Ni      2.4517696982     0.0021660497    13.3026623307
Ni      3.6803278881     2.1303359107    13.3041135630
Ni      4.9088074938     4.2579363814    13.3054287544
Ni      6.1372745671     6.3857877107    13.3032783798
Ni      4.9086517115     0.0018312594    13.3024060945
Ni      6.1374036838     2.1309748468    13.3056096270
Ni      7.3661495135     4.2582451239    13.3069522585
Ni      8.5943413203     6.3854189562    13.3048451696
Ni      7.3652044956     0.0023769003    13.3020219334
Ni      8.5942385662     2.1304695544    13.3043868044
Ni      9.8231946918     4.2572739512    13.3057506922
Ni     11.0517679695     6.3857120360    13.3033344194
Ni      2.4490339821     1.4222228929    15.3362210124
Ni      3.6772966574     3.5494520554    15.3385526461
Ni      4.9062018672     5.6779299780    15.3378106046
Ni      6.1346571942     7.8070606266    15.3335999053
Ni      4.9058225197     1.4219699914    15.3362206260
Ni      6.1346426084     3.5508505475    15.3401418518
Ni      7.3625330027     5.6784279498    15.3395242568
Ni      8.5915701206     7.8062468470    15.3354851546
Ni      7.3627071376     1.4224398724    15.3370388041
Ni      8.5913286772     3.5492677633    15.3408174188
Ni      9.8201850849     5.6778143804    15.3377746619
Ni     11.0486433115     7.8070023171    15.3347462049
Ni      9.8200953547     1.4222882677    15.3366654644
Ni     11.0486075444     3.5492992589    15.3407265960
Ni     12.2774144623     5.6772885732    15.3359640033
Ni     13.5061541972     7.8063455902    15.3319299253
Ni      1.2187910631     0.7145173608    17.3879334314
Ni      2.4472474227     2.8420654806    17.3934581627
Ni      3.6755426811     4.9714604374    17.3911199588
Ni      4.9045369929     7.0990999797    17.3858410289
Ni      3.6755273590     0.7130852450    17.3897672789
Ni      4.9037000473     2.8423806074    17.3934481142
Ni      6.1319553005     4.9726957480    17.3963328007
Ni      7.3614524743     7.0997441935    17.3897409983
Ni      6.1332850561     0.7119051795    17.3902534707
Ni      7.3623531846     2.8409773484    17.3961534740
Ni      8.5911690953     4.9716069348    17.3936888912
Ni      9.8197669951     7.1000577029    17.3889506467
Ni      8.5911411426     0.7131642395    17.3880087950
Ni      9.8198330590     2.8408219131    17.3957136598
Ni     11.0487030798     4.9704125685    17.3927698418
Ni     12.2763266601     7.0989938309    17.3852102935
O       9.3819344244     4.1358166692    20.0930362367
O       7.4403591999     5.7710500252    18.8010456662
O       8.6054614657     3.3490556865    22.7703843692
C       8.1664603160     4.5686069475    20.7700096311
C       7.7641571257     5.9228005922    20.1887078083
C       8.3912004598     4.6889035721    22.2787219386
H       7.3485584428     3.8274455412    20.5710354409
H       8.5939941550     6.6612606078    20.2727262356
H       6.8675792875     6.3118286823    20.7285291220
H       7.5127131407     5.1500412147    22.7730789076
H       9.2780443246     5.3384479547    22.4478370724
H       9.6348023466     3.2728259917    20.4951539629
H       4.4134518168     1.3599542848    19.7391102444
H       8.7500633813     3.3953291848    23.7317250903
O       3.5190441201     1.0401590876    20.0091886335
H       2.9303167551     1.7729858078    19.7218291788
