126
Step 1 | ATOMIC_POSITIONS (angstrom) | Cartesian Angstrom
NI      0.0000000000     0.0000000000     1.1900000730
NI      1.2286496050     2.1280835410     1.1900000730
NI      2.4572992100     4.2561670810     1.1900000730
NI      3.6859488150     6.3842506220     1.1900000730
NI      4.9145984200     8.5123341620     1.1900000730
NI      2.4572992100     0.0000000000     1.1900000730
NI      3.6859488150     2.1280835410     1.1900000730
NI      4.9145984200     4.2561670810     1.1900000730
NI      6.1432480250     6.3842506220     1.1900000730
NI      7.3718976300     8.5123341620     1.1900000730
NI      4.9145984200     0.0000000000     1.1900000730
NI      6.1432480250     2.1280835410     1.1900000730
NI      7.3718976300     4.2561670810     1.1900000730
NI      8.6005472350     6.3842506220     1.1900000730
NI      9.8291968400     8.5123341620     1.1900000730
NI      7.3718976300     0.0000000000     1.1900000730
NI      8.6005472350     2.1280835410     1.1900000730
NI      9.8291968400     4.2561670810     1.1900000730
NI     11.0578464450     6.3842506220     1.1900000730
NI     12.2864960500     8.5123341620     1.1900000730
NI      9.8291968400     0.0000000000     1.1900000730
NI     11.0578464450     2.1280835410     1.1900000730
NI     12.2864960500     4.2561670810     1.1900000730
NI     13.5151456550     6.3842506220     1.1900000730
NI     14.7437952600     8.5123341620     1.1900000730
NI      1.2266991497     0.7011096249     3.1975200216
NI      2.4549986973     2.8307205974     3.1996003469
NI      3.6853987071     4.9578676974     3.1978308579
NI      4.9089345779     7.0860655711     3.2057012233
NI      6.1413328322     9.2185781147     3.2067203237
NI      3.6814350751     0.7018732314     3.2012646249
NI      4.9164076668     2.8354603382     3.2037523510
NI      6.1432156253     4.9630963303     3.2157769345
NI      7.3730594360     7.0803255515     3.2120090549
NI      8.5925360335     9.2109681461     3.2098243528
NI      6.1397375419     0.7042161227     3.1966856161
NI      7.3706099896     2.8362499929     3.2080453634
NI      8.5929565520     4.9585348043     3.2085352288
NI      9.8238559483     7.0886922837     3.2000697458
NI     11.0531049381     9.2140033055     3.2005487451
NI      8.6008686770     0.7028703025     3.1979849847
NI      9.8220706892     2.8349010025     3.2038516732
NI     11.0522530426     4.9588174441     3.1967561466
NI     12.2833761834     7.0868331424     3.1996978397
NI     13.5134515542     9.2142328787     3.2018298595
NI     11.0543011339     0.7016834915     3.1996797809
NI     12.2824924439     2.8294899726     3.1986355626
NI     13.5133974197     4.9591355113     3.1979179466
NI     14.7422204087     7.0878609871     3.2011106754
NI     15.9735539583     9.2122169280     3.2091397897
NI      2.4507607871     1.4074327137     5.2075932366
NI      3.6812274216     3.5351975314     5.2049940316
NI      4.9169879908     5.6707066400     5.2228368751
NI      6.1408314965     7.7942159879     5.2153892565
NI      7.3685215841     9.9094291837     5.2336358387
NI      4.9075439990     1.4093842193     5.2107683091
NI      6.1507843205     3.5422567422     5.2369382273
NI      7.3555433188     5.6515001677     5.2668368702
NI      8.5842751671     7.7972533444     5.2358585325
NI      9.8255098998     9.9205571434     5.2082876155
NI      7.3675657816     1.4078020297     5.2046078502
NI      8.5798249676     3.5456051470     5.2430209955
NI      9.8226452651     5.6652281937     5.2037883044
NI     11.0526953725     7.7922998370     5.2088998831
NI     12.2805941349     9.9208403574     5.2142773447
NI      9.8261740516     1.4092910345     5.2050623588
NI     11.0522191509     3.5353854975     5.2063509493
NI     12.2810276176     5.6631440518     5.2052094297
NI     13.5111471662     7.7928684401     5.2103045295
NI     14.7379063754     9.9225923127     5.2073344863
NI     12.2819913596     1.4063451520     5.2083067776
NI     13.5097690571     3.5358149858     5.2065954525
NI     14.7389673931     5.6642012268     5.2068942840
NI     15.9772546188     7.8007260164     5.2339993692
NI     17.1953498313     9.9092288686     5.2324969827
NI     -0.0047992759     0.0239758777     7.2020575458
NI      1.2251889117     2.1215376299     7.2241918733
NI      2.4423467315     4.2374942261     7.2281077937
NI      3.6434335390     6.3554841499     7.2034737655
NI      4.8639119062     8.5285565079     7.3290175783
NI      2.4621819812     0.0018906677     7.2187531807
NI      3.6816598221     2.1155589392     7.2301954429
NI      4.8821594531     4.2364668859     7.1941457593
NI      6.1181444901     6.3453818857     7.2798160646
NI      7.4129232708     8.5270509587     7.3325844056
NI      4.9113887405    -0.0122955411     7.2308405254
NI      6.1317935304     2.0953250152     7.2023004042
NI      7.3755364706     4.2306112892     7.4059381831
NI      8.6372420731     6.3628073148     7.1947111737
NI      9.8422413462     8.5036914825     7.2201497675
NI      7.3635357172    -0.0137428572     7.2304870697
NI      8.5977066273     2.0982134623     7.2049278698
NI      9.8425853773     4.2415998056     7.2095285288
NI     11.0632928277     6.3713967498     7.2267551959
NI     12.2823655272     8.5024904401     7.2295057213
NI      9.8152180858    -0.0019767190     7.2224108355
NI     11.0470584318     2.1215737666     7.2263786481
NI     12.2827059349     4.2422906319     7.2226966032
NI     13.5012707338     6.3706953377     7.2222056165
NI     14.7224414058     8.5028532997     7.2180262104
C       7.9095323385     3.7732776667    10.3018751844
C       7.3269867785     3.4583553480    11.6504215673
C       7.9736842683     4.3478024268    12.7484363013
C       8.0772327510     3.6299849988    14.1096209253
C       8.2855575133     4.6345649996    15.2595762887
C       8.6231936736     3.9610561945    16.5922891731
O       7.1420621325     4.1292409014     9.3938621212
O       5.9242302770     3.6006362222    11.6601504643
O       9.2721877140     4.7320417166    12.2938218074
O       6.8899660594     2.8779515567    14.3271078758
O       9.3937864479     5.5006406393    14.9228889072
O       7.5083368791     3.1482151512    17.0070035075
H       8.9854992799     3.6366432183    10.1153382311
H       7.6066255761     2.4002528048    11.8489188529
H       7.3023904555     5.2219621135    12.8415444220
H       8.9672547720     2.9685153453    14.0496156072
H       7.3517464971     5.2150900734    15.3580150264
H       9.5337621169     3.3535942810    16.4564539614
H       8.8338319021     4.7401440736    17.3462245166
H       5.6527597285     3.7801506591    10.7349809235
H       9.6801115422     5.2281318815    13.0323594519
H       6.8658195749     2.6359736005    15.2756102182
H       9.2917616440     6.3444095667    15.3923876371
H       7.7841963174     2.5906118716    17.7522338612
O       6.1361703824     7.7843780421     8.6387294096
H       6.0997703880     7.7976012425     9.6084519420
126
Step 2 | ATOMIC_POSITIONS (angstrom) | Cartesian Angstrom
NI      0.0000000000     0.0000000000     1.1900000730
NI      1.2286496050     2.1280835410     1.1900000730
NI      2.4572992100     4.2561670810     1.1900000730
NI      3.6859488150     6.3842506220     1.1900000730
NI      4.9145984200     8.5123341620     1.1900000730
NI      2.4572992100     0.0000000000     1.1900000730
NI      3.6859488150     2.1280835410     1.1900000730
NI      4.9145984200     4.2561670810     1.1900000730
NI      6.1432480250     6.3842506220     1.1900000730
NI      7.3718976300     8.5123341620     1.1900000730
NI      4.9145984200     0.0000000000     1.1900000730
NI      6.1432480250     2.1280835410     1.1900000730
NI      7.3718976300     4.2561670810     1.1900000730
NI      8.6005472350     6.3842506220     1.1900000730
NI      9.8291968400     8.5123341620     1.1900000730
NI      7.3718976300     0.0000000000     1.1900000730
NI      8.6005472350     2.1280835410     1.1900000730
NI      9.8291968400     4.2561670810     1.1900000730
NI     11.0578464450     6.3842506220     1.1900000730
NI     12.2864960500     8.5123341620     1.1900000730
NI      9.8291968400     0.0000000000     1.1900000730
NI     11.0578464450     2.1280835410     1.1900000730
NI     12.2864960500     4.2561670810     1.1900000730
NI     13.5151456550     6.3842506220     1.1900000730
NI     14.7437952600     8.5123341620     1.1900000730
NI      1.2266765028     0.7011177613     3.1976378525
NI      2.4549349710     2.8307716474     3.1995624522
NI      3.6852896660     4.9579314841     3.1977293307
NI      4.9089451502     7.0860699314     3.2056275633
NI      6.1413292553     9.2187609655     3.2068585841
NI      3.6813825570     0.7019518206     3.2013414228
NI      4.9162164383     2.8354077938     3.2036952193
NI      6.1433060643     4.9631103375     3.2157333753
NI      7.3731392680     7.0804530063     3.2119162201
NI      8.5925958555     9.2110845484     3.2098216129
NI      6.1397328334     0.7041033984     3.1967698030
NI      7.3705939990     2.8364342681     3.2080529108
NI      8.5930466216     4.9584074372     3.2084640661
NI      9.8239481827     7.0886776448     3.2000598481
NI     11.0531232719     9.2139164978     3.2006874647
NI      8.6007167983     0.7029326737     3.1981020892
NI      9.8220775435     2.8349278851     3.2039313532
NI     11.0522721745     4.9589334522     3.1969278731
NI     12.2833777554     7.0868915752     3.1997575461
NI     13.5134632455     9.2142009214     3.2018759199
NI     11.0543284189     0.7017442110     3.1997358829
NI     12.2825195514     2.8295269842     3.1987330383
NI     13.5134065246     4.9592522123     3.1980334023
NI     14.7421296785     7.0880066067     3.2010723866
NI     15.9737664653     9.2123245763     3.2090692529
NI      2.4507712146     1.4073852458     5.2077389009
NI      3.6811000166     3.5351432905     5.2048933090
NI      4.9171720738     5.6706440205     5.2228041575
NI      6.1407602555     7.7943364881     5.2152193224
NI      7.3686421669     9.9094526313     5.2336139982
NI      4.9075594028     1.4094987413     5.2108072585
NI      6.1508834817     3.5423991926     5.2368144695
NI      7.3555590000     5.6515818257     5.2669537785
NI      8.5843422321     7.7973139390     5.2358439652
NI      9.8255210489     9.9207685624     5.2081728682
NI      7.3676489906     1.4077842225     5.2046103701
NI      8.5799299590     3.5456959996     5.2430903555
NI      9.8227022846     5.6652576605     5.2037189214
NI     11.0526658061     7.7923652730     5.2089672096
NI     12.2807112856     9.9208473605     5.2142571300
NI      9.8261615237     1.4094182900     5.2051115370
NI     11.0521627286     3.5354454820     5.2063421368
NI     12.2809642124     5.6632435541     5.2053696795
NI     13.5110739224     7.7929279146     5.2103453879
NI     14.7379249039     9.9227560476     5.2072682948
NI     12.2820003829     1.4065425801     5.2082799914
NI     13.5096727537     3.5358479728     5.2066068320
NI     14.7388408807     5.6641563043     5.2067985079
NI     15.9772547020     7.8008090195     5.2338309879
NI     17.1954159425     9.9095099322     5.2324969453
NI     -0.0048933932     0.0241555527     7.2020770259
NI      1.2252179208     2.1215554191     7.2239882801
NI      2.4423955270     4.2375514881     7.2280259465
NI      3.6432662086     6.3555105925     7.2031519567
NI      4.8638121492     8.5286845463     7.3289233908
NI      2.4620888657     0.0017716810     7.2187180334
NI      3.6817836479     2.1155072236     7.2301010661
NI      4.8821500916     4.2363128645     7.1940014084
NI      6.1181804675     6.3455363365     7.2795472859
NI      7.4129198171     8.5271374396     7.3323934135
NI      4.9112934854    -0.0123065853     7.2307011529
NI      6.1318012914     2.0954031374     7.2022073517
NI      7.3755410921     4.2305056041     7.4058141501
NI      8.6373621367     6.3627907717     7.1945901180
NI      9.8421337784     8.5037093528     7.2202343557
NI      7.3635437719    -0.0135947700     7.2303303625
NI      8.5978782449     2.0983175227     7.2046630236
NI      9.8427802268     4.2417281536     7.2094217843
NI     11.0632077477     6.3716378641     7.2267599377
NI     12.2821889325     8.5025818736     7.2294260900
NI      9.8153602128    -0.0019442871     7.2223490029
NI     11.0472583683     2.1217330552     7.2263205059
NI     12.2826312420     4.2423891795     7.2227061672
NI     13.5011614768     6.3708691975     7.2220239336
NI     14.7224263642     8.5028995811     7.2179436552
C       7.9094751587     3.7730600491    10.3016192898
C       7.3270139447     3.4584420252    11.6504580138
C       7.9736543178     4.3477852914    12.7486146851
C       8.0773335471     3.6300451012    14.1097847092
C       8.2856140903     4.6345600688    15.2597174712
C       8.6231783579     3.9609768698    16.5923546669
O       7.1419898839     4.1292835971     9.3939444261
O       5.9242278226     3.6007798098    11.6602597337
O       9.2719242819     4.7322209466    12.2937991028
O       6.8900321578     2.8781999614    14.3271846978
O       9.3937056791     5.5006109252    14.9228290764
O       7.5082354779     3.1481496604    17.0069096406
H       8.9859636304     3.6363186199    10.1156472950
H       7.6067148198     2.4004417822    11.8489054592
H       7.3024878797     5.2219472989    12.8415677606
H       8.9672963464     2.9685096626    14.0495967867
H       7.3517936994     5.2150400199    15.3581132489
H       9.5338446619     3.3536553359    16.4565376168
H       8.8340050295     4.7401338793    17.3461491226
H       5.6531541689     3.7801777206    10.7349389708
H       9.6803328485     5.2281137228    13.0321739422
H       6.8658405995     2.6360280240    15.2756041015
H       9.2918942847     6.3443896067    15.3923373608
H       7.7842171017     2.5906584342    17.7522129606
O       6.1362267192     7.7847102950     8.6386455115
H       6.1001040427     7.7973642421     9.6083473853
126
Step 3 | ATOMIC_POSITIONS (angstrom) | Cartesian Angstrom
NI      0.0000000000     0.0000000000     1.1900000730
NI      1.2286496050     2.1280835410     1.1900000730
NI      2.4572992100     4.2561670810     1.1900000730
NI      3.6859488150     6.3842506220     1.1900000730
NI      4.9145984200     8.5123341620     1.1900000730
NI      2.4572992100     0.0000000000     1.1900000730
NI      3.6859488150     2.1280835410     1.1900000730
NI      4.9145984200     4.2561670810     1.1900000730
NI      6.1432480250     6.3842506220     1.1900000730
NI      7.3718976300     8.5123341620     1.1900000730
NI      4.9145984200     0.0000000000     1.1900000730
NI      6.1432480250     2.1280835410     1.1900000730
NI      7.3718976300     4.2561670810     1.1900000730
NI      8.6005472350     6.3842506220     1.1900000730
NI      9.8291968400     8.5123341620     1.1900000730
NI      7.3718976300     0.0000000000     1.1900000730
NI      8.6005472350     2.1280835410     1.1900000730
NI      9.8291968400     4.2561670810     1.1900000730
NI     11.0578464450     6.3842506220     1.1900000730
NI     12.2864960500     8.5123341620     1.1900000730
NI      9.8291968400     0.0000000000     1.1900000730
NI     11.0578464450     2.1280835410     1.1900000730
NI     12.2864960500     4.2561670810     1.1900000730
NI     13.5151456550     6.3842506220     1.1900000730
NI     14.7437952600     8.5123341620     1.1900000730
NI      1.2266765028     0.7011177613     3.1976378525
NI      2.4549349710     2.8307716474     3.1995624522
NI      3.6852896660     4.9579314841     3.1977293307
NI      4.9089451502     7.0860699314     3.2056275633
NI      6.1413292553     9.2187609655     3.2068585841
NI      3.6813825570     0.7019518206     3.2013414228
NI      4.9162164383     2.8354077938     3.2036952193
NI      6.1433060643     4.9631103375     3.2157333753
NI      7.3731392680     7.0804530063     3.2119162201
NI      8.5925958555     9.2110845484     3.2098216129
NI      6.1397328334     0.7041033984     3.1967698030
NI      7.3705939990     2.8364342681     3.2080529108
NI      8.5930466216     4.9584074372     3.2084640661
NI      9.8239481827     7.0886776448     3.2000598481
NI     11.0531232719     9.2139164978     3.2006874647
NI      8.6007167983     0.7029326737     3.1981020892
NI      9.8220775435     2.8349278851     3.2039313532
NI     11.0522721745     4.9589334522     3.1969278731
NI     12.2833777554     7.0868915752     3.1997575461
NI     13.5134632455     9.2142009214     3.2018759199
NI     11.0543284189     0.7017442110     3.1997358829
NI     12.2825195514     2.8295269842     3.1987330383
NI     13.5134065246     4.9592522123     3.1980334023
NI     14.7421296785     7.0880066067     3.2010723866
NI     15.9737664653     9.2123245763     3.2090692529
NI      2.4507712146     1.4073852458     5.2077389009
NI      3.6811000166     3.5351432905     5.2048933090
NI      4.9171720738     5.6706440205     5.2228041575
NI      6.1407602555     7.7943364881     5.2152193224
NI      7.3686421669     9.9094526313     5.2336139982
NI      4.9075594028     1.4094987413     5.2108072585
NI      6.1508834817     3.5423991926     5.2368144695
NI      7.3555590000     5.6515818257     5.2669537785
NI      8.5843422321     7.7973139390     5.2358439652
NI      9.8255210489     9.9207685624     5.2081728682
NI      7.3676489906     1.4077842225     5.2046103701
NI      8.5799299590     3.5456959996     5.2430903555
NI      9.8227022846     5.6652576605     5.2037189214
NI     11.0526658061     7.7923652730     5.2089672096
NI     12.2807112856     9.9208473605     5.2142571300
NI      9.8261615237     1.4094182900     5.2051115370
NI     11.0521627286     3.5354454820     5.2063421368
NI     12.2809642124     5.6632435541     5.2053696795
NI     13.5110739224     7.7929279146     5.2103453879
NI     14.7379249039     9.9227560476     5.2072682948
NI     12.2820003829     1.4065425801     5.2082799914
NI     13.5096727537     3.5358479728     5.2066068320
NI     14.7388408807     5.6641563043     5.2067985079
NI     15.9772547020     7.8008090195     5.2338309879
NI     17.1954159425     9.9095099322     5.2324969453
NI     -0.0048933932     0.0241555527     7.2020770259
NI      1.2252179208     2.1215554191     7.2239882801
NI      2.4423955270     4.2375514881     7.2280259465
NI      3.6432662086     6.3555105925     7.2031519567
NI      4.8638121492     8.5286845463     7.3289233908
NI      2.4620888657     0.0017716810     7.2187180334
NI      3.6817836479     2.1155072236     7.2301010661
NI      4.8821500916     4.2363128645     7.1940014084
NI      6.1181804675     6.3455363365     7.2795472859
NI      7.4129198171     8.5271374396     7.3323934135
NI      4.9112934854    -0.0123065853     7.2307011529
NI      6.1318012914     2.0954031374     7.2022073517
NI      7.3755410921     4.2305056041     7.4058141501
NI      8.6373621367     6.3627907717     7.1945901180
NI      9.8421337784     8.5037093528     7.2202343557
NI      7.3635437719    -0.0135947700     7.2303303625
NI      8.5978782449     2.0983175227     7.2046630236
NI      9.8427802268     4.2417281536     7.2094217843
NI     11.0632077477     6.3716378641     7.2267599377
NI     12.2821889325     8.5025818736     7.2294260900
NI      9.8153602128    -0.0019442871     7.2223490029
NI     11.0472583683     2.1217330552     7.2263205059
NI     12.2826312420     4.2423891795     7.2227061672
NI     13.5011614768     6.3708691975     7.2220239336
NI     14.7224263642     8.5028995811     7.2179436552
C       7.9094751587     3.7730600491    10.3016192898
C       7.3270139447     3.4584420252    11.6504580138
C       7.9736543178     4.3477852914    12.7486146851
C       8.0773335471     3.6300451012    14.1097847092
C       8.2856140903     4.6345600688    15.2597174712
C       8.6231783579     3.9609768698    16.5923546669
O       7.1419898839     4.1292835971     9.3939444261
O       5.9242278226     3.6007798098    11.6602597337
O       9.2719242819     4.7322209466    12.2937991028
O       6.8900321578     2.8781999614    14.3271846978
O       9.3937056791     5.5006109252    14.9228290764
O       7.5082354779     3.1481496604    17.0069096406
H       8.9859636304     3.6363186199    10.1156472950
H       7.6067148198     2.4004417822    11.8489054592
H       7.3024878797     5.2219472989    12.8415677606
H       8.9672963464     2.9685096626    14.0495967867
H       7.3517936994     5.2150400199    15.3581132489
H       9.5338446619     3.3536553359    16.4565376168
H       8.8340050295     4.7401338793    17.3461491226
H       5.6531541689     3.7801777206    10.7349389708
H       9.6803328485     5.2281137228    13.0321739422
H       6.8658405995     2.6360280240    15.2756041015
H       9.2918942847     6.3443896067    15.3923373608
H       7.7842171017     2.5906584342    17.7522129606
O       6.1362267192     7.7847102950     8.6386455115
H       6.1001040427     7.7973642421     9.6083473853
