64
Step 1 | ATOMIC_POSITIONS (angstrom) | Cartesian Angstrom
NI      2.8568593560     1.4508721950     3.0000001930
NI      5.7137187120     1.4508721950     3.0000001930
NI      8.5705780690     1.4508721950     3.0000001930
NI     11.4274374250     1.4508721950     3.0000001930
NI      4.2852890340     3.6271804860     3.0000001930
NI      7.1421483910     3.6271804860     3.0000001930
NI      9.9990077470     3.6271804860     3.0000001930
NI     12.8558671030     3.6271804860     3.0000001930
NI      5.7137187120     5.8034887780     3.0000001930
NI      8.5705780690     5.8034887780     3.0000001930
NI     11.4274374250     5.8034887780     3.0000001930
NI     14.2842967810     5.8034887780     3.0000001930
NI      7.1421483910     7.9797970700     3.0000001930
NI      9.9990077470     7.9797970700     3.0000001930
NI     12.8558671030     7.9797970700     3.0000001930
NI     15.7127264590     7.9797970700     3.0000001930
NI      1.4452225267     0.7422226680     4.9757967587
NI      4.3020733764     0.7422408880     4.9758141353
NI      7.1589869833     0.7422037431     4.9758035526
NI     10.0158322405     0.7421827706     4.9757905596
NI      2.8576312582     2.9024271107     4.9920794897
NI      5.7144701846     2.9024275593     4.9921001033
NI      8.5713702614     2.9023827486     4.9921017020
NI     11.4282490055     2.9023870551     4.9920905917
NI      4.2855793409     5.0774055006     4.9921351257
NI      7.1424278145     5.0773979373     4.9921648477
NI      9.9993463096     5.0773739891     4.9921723919
NI     12.8562314335     5.0773819962     4.9921394668
NI      5.7040514018     7.2393153510     4.9929021393
NI      8.5609226903     7.2393256336     4.9929288149
NI     11.4178516817     7.2393040679     4.9929179152
NI     14.2746915757     7.2392954316     4.9928840372
AG      1.4600185441     2.2336831185     7.2179032691
AG      4.3168735130     2.2336862234     7.2179063133
AG      7.1737365705     2.2336820031     7.2179107406
AG     10.0305998645     2.2336785146     7.2179067753
AG      2.8567165038     4.3540923096     7.2179808746
AG      5.7135690799     4.3540934339     7.2179863314
AG      8.5704335453     4.3540893634     7.2179927745
AG     11.4272996269     4.3540880889     7.2179879976
AG      4.2839108480     6.5288771470     7.2182952160
AG      7.1407665653     6.5288790166     7.2183038308
AG      9.9976333939     6.5288774931     7.2183086050
AG     12.8544981801     6.5288753463     7.2182998401
AG      5.6751058865     8.6469686235     7.2342707408
AG      8.5319640520     8.6469721157     7.2342770127
AG     11.3888298525     8.6469686297     7.2342787061
AG     14.2456905631     8.6469650422     7.2342708116
AG      2.8873139820     1.5055275592     9.6192078328
AG      5.7441736938     1.5055272256     9.6192092326
AG      8.6010342964     1.5055259880     9.6192087250
AG     11.4578931317     1.5055262862     9.6192075297
AG      4.2871129512     3.6287968202     9.6210697837
AG      7.1439725688     3.6287961020     9.6210718612
AG     10.0008336053     3.6287953009     9.6210716832
AG     12.8576927696     3.6287959913     9.6210697849
AG      5.7135575570     5.8044863891     9.6211983849
AG      8.5704178417     5.8044859677     9.6212007068
AG     11.4272792533     5.8044854754     9.6211997609
AG     14.2841375570     5.8044858053     9.6211972975
AG      7.1118850252     7.9255441369     9.6211980432
AG      9.9687457385     7.9255438707     9.6211995391
AG     12.8256063794     7.9255429387     9.6211981456
AG     15.6824641352     7.9255431775     9.6211966479
64
Step 2 | ATOMIC_POSITIONS (angstrom) | Cartesian Angstrom
NI      2.8568593560     1.4508721950     3.0000001930
NI      5.7137187120     1.4508721950     3.0000001930
NI      8.5705780690     1.4508721950     3.0000001930
NI     11.4274374250     1.4508721950     3.0000001930
NI      4.2852890340     3.6271804860     3.0000001930
NI      7.1421483910     3.6271804860     3.0000001930
NI      9.9990077470     3.6271804860     3.0000001930
NI     12.8558671030     3.6271804860     3.0000001930
NI      5.7137187120     5.8034887780     3.0000001930
NI      8.5705780690     5.8034887780     3.0000001930
NI     11.4274374250     5.8034887780     3.0000001930
NI     14.2842967810     5.8034887780     3.0000001930
NI      7.1421483910     7.9797970700     3.0000001930
NI      9.9990077470     7.9797970700     3.0000001930
NI     12.8558671030     7.9797970700     3.0000001930
NI     15.7127264590     7.9797970700     3.0000001930
NI      1.4678763308     0.7631350944     4.9376736562
NI      4.3247297052     0.7631457115     4.9377098730
NI      7.1817126446     0.7631073043     4.9376888413
NI     10.0385317257     0.7630937589     4.9376669150
NI      2.8599036270     2.9040786695     4.9678569636
NI      5.7167802677     2.9040825559     4.9678902520
NI      8.5737191126     2.9040183942     4.9678765387
NI     11.4305573328     2.9040247204     4.9678578360
NI      4.2859719330     5.0762255442     4.9690884942
NI      7.1428490931     5.0762075135     4.9691265908
NI      9.9997730844     5.0761467410     4.9691268389
NI     12.8566452920     5.0761686718     4.9690830927
NI      5.6907156626     7.2204576673     4.9705946001
NI      8.5475873312     7.2204467459     4.9706333977
NI     11.4045558189     7.2204029719     4.9706181616
NI     14.2613797727     7.2204214188     4.9705686341
AG      1.4898640460     2.2500498300     7.1908536175
AG      4.3467189307     2.2500534305     7.1908647660
AG      7.2035892887     2.2500510007     7.1908659947
AG     10.0604523988     2.2500460638     7.1908535700
AG      2.8597951980     4.3714463126     7.1942485416
AG      5.7166512119     4.3714494053     7.1942576294
AG      8.5735188180     4.3714419374     7.1942584697
AG     11.4303817445     4.3714391389     7.1942500936
AG      4.2775940935     6.5134451548     7.1927732374
AG      7.1344508078     6.5134454389     7.1927844885
AG      9.9913181528     6.5134397145     7.1927892127
AG     12.8481842399     6.5134390924     7.1927774358
AG      5.6354337596     8.6316199352     7.2294725122
AG      8.4922915179     8.6316186717     7.2294866102
AG     11.3491631491     8.6316144384     7.2294876187
AG     14.2060244072     8.6316137486     7.2294708559
AG      2.9181065428     1.5253155165     9.6385509563
AG      5.7749676863     1.5253155694     9.6385536866
AG      8.6318292036     1.5253144041     9.6385514206
AG     11.4886869741     1.5253145103     9.6385491671
AG      4.2926466504     3.6451122094     9.6473427706
AG      7.1495075598     3.6451113762     9.6473454984
AG     10.0063686731     3.6451099109     9.6473434281
AG     12.8632267303     3.6451108785     9.6473408312
AG      5.7104195552     5.7917165333     9.6456025547
AG      8.5672805940     5.7917156574     9.6456054763
AG     11.4241421670     5.7917146454     9.6456037106
AG     14.2809997218     5.7917154614     9.6456004444
AG      7.0821777853     7.9069671687     9.6478344426
AG      9.9390397389     7.9069664420     9.6478372899
AG     12.7959009270     7.9069658576     9.6478344247
AG     15.6527574839     7.9069663470     9.6478316753
64
Step 3 | ATOMIC_POSITIONS (angstrom) | Cartesian Angstrom
NI      2.8568593560     1.4508721950     3.0000001930
NI      5.7137187120     1.4508721950     3.0000001930
NI      8.5705780690     1.4508721950     3.0000001930
NI     11.4274374250     1.4508721950     3.0000001930
NI      4.2852890340     3.6271804860     3.0000001930
NI      7.1421483910     3.6271804860     3.0000001930
NI      9.9990077470     3.6271804860     3.0000001930
NI     12.8558671030     3.6271804860     3.0000001930
NI      5.7137187120     5.8034887780     3.0000001930
NI      8.5705780690     5.8034887780     3.0000001930
NI     11.4274374250     5.8034887780     3.0000001930
NI     14.2842967810     5.8034887780     3.0000001930
NI      7.1421483910     7.9797970700     3.0000001930
NI      9.9990077470     7.9797970700     3.0000001930
NI     12.8558671030     7.9797970700     3.0000001930
NI     15.7127264590     7.9797970700     3.0000001930
NI      1.4935183129     0.7833946747     4.8947580633
NI      4.3503795166     0.7833947081     4.8948040453
NI      7.2074135671     0.7833396142     4.8947819358
NI     10.0642142320     0.7833406521     4.8947494527
NI      2.8641661270     2.9080124734     4.9366357417
NI      5.7210753286     2.9080101102     4.9366822064
NI      8.5780548024     2.9079334101     4.9366580400
NI     11.4348607109     2.9079479781     4.9366275294
NI      4.2863661767     5.0742832834     4.9383708063
NI      7.1432767268     5.0742552939     4.9384160621
NI     10.0002195949     5.0741733625     4.9384050605
NI     12.8570658616     5.0742050929     4.9383530827
NI      5.6754358349     7.2026971517     4.9430029650
NI      8.5323258476     7.2026626669     4.9430466014
NI     11.3893243491     7.2025994624     4.9430259250
NI     14.2461217770     7.2026421746     4.9429688838
AG      1.5225893321     2.2550168404     7.1589905393
AG      4.3794423396     2.2550210534     7.1590081735
AG      7.2363171538     2.2550176594     7.1590062903
AG     10.0931821178     2.2550122834     7.1589878679
AG      2.8661139802     4.3865752499     7.1662172181
AG      5.7229708842     4.3865795749     7.1662312304
AG      8.5798427614     4.3865715915     7.1662273547
AG     11.4367048463     4.3865693564     7.1662140878
AG      4.2659240812     6.5014805162     7.1633307655
AG      7.1227816693     6.5014803428     7.1633461214
AG      9.9796521456     6.5014727901     7.1633464535
AG     12.8365167705     6.5014721425     7.1633313134
AG      5.5909278520     8.6301767039     7.2200292463
AG      8.4477867796     8.6301724335     7.2200519346
AG     11.3046613974     8.6301669085     7.2200460146
AG     14.1615213141     8.6301687453     7.2200232176
AG      2.9527508994     1.5329244556     9.6607816194
AG      5.8096129246     1.5329242480     9.6607853876
AG      8.6664754955     1.5329229631     9.6607810520
AG     11.5233323499     1.5329232406     9.6607779960
AG      4.3020109157     3.6606919157     9.6781896864
AG      7.1588729871     3.6606912847     9.6781930246
AG     10.0157344410     3.6606896618     9.6781885511
AG     12.8725912639     3.6606904846     9.6781853386
AG      5.7039649560     5.7793193425     9.6748631184
AG      8.5608268831     5.7793181212     9.6748664915
AG     11.4176885418     5.7793170269     9.6748630717
AG     14.2745452118     5.7793180848     9.6748593095
AG      7.0493615018     7.9013441064     9.6796385707
AG      9.9062247073     7.9013426061     9.6796424324
AG     12.7630861884     7.9013421657     9.6796374186
AG     15.6199415950     7.9013435704     9.6796338076
64
Step 4 | ATOMIC_POSITIONS (angstrom) | Cartesian Angstrom
NI      2.8568593560     1.4508721950     3.0000001930
NI      5.7137187120     1.4508721950     3.0000001930
NI      8.5705780690     1.4508721950     3.0000001930
NI     11.4274374250     1.4508721950     3.0000001930
NI      4.2852890340     3.6271804860     3.0000001930
NI      7.1421483910     3.6271804860     3.0000001930
NI      9.9990077470     3.6271804860     3.0000001930
NI     12.8558671030     3.6271804860     3.0000001930
NI      5.7137187120     5.8034887780     3.0000001930
NI      8.5705780690     5.8034887780     3.0000001930
NI     11.4274374250     5.8034887780     3.0000001930
NI     14.2842967810     5.8034887780     3.0000001930
NI      7.1421483910     7.9797970700     3.0000001930
NI      9.9990077470     7.9797970700     3.0000001930
NI     12.8558671030     7.9797970700     3.0000001930
NI     15.7127264590     7.9797970700     3.0000001930
NI      1.5324586265     0.8095249574     4.8288259831
NI      4.3893447361     0.8095381626     4.8288748956
NI      7.2464260472     0.8094530433     4.8288513127
NI     10.1031877169     0.8094459470     4.8288139749
NI      2.8742533534     2.9182517443     4.8828354926
NI      5.7311781124     2.9182344728     4.8828802691
NI      8.5881773271     2.9181335334     4.8828600282
NI     11.4449669112     2.9181631656     4.8828309027
NI      4.2868595307     5.0706541339     4.8844523399
NI      7.1437797098     5.0706014408     4.8845072758
NI     10.0007586523     5.0705172457     4.8845026769
NI     12.8576055114     5.0705720092     4.8844390420
NI      5.6512863108     7.1819651355     4.8978409138
NI      8.5082125379     7.1819198986     4.8978974123
NI     11.3652689231     7.1818543410     4.8978702765
NI     14.2220194173     7.1819109729     4.8977982794
AG      1.5738811533     2.2488710108     7.1074917995
AG      4.4307317022     2.2488788665     7.1075109626
AG      7.2876064328     2.2488740809     7.1075011375
AG     10.1444743719     2.2488653311     7.1074823922
AG      2.8789432547     4.3991847067     7.1210367352
AG      5.7357949854     4.3991888243     7.1210520467
AG      8.5926682745     4.3991812247     7.1210451499
AG     11.4495354071     4.3991808377     7.1210294751
AG      4.2416329377     6.4962203274     7.1167621120
AG      7.0984877938     6.4962188966     7.1167844804
AG      9.9553647110     6.4962141885     7.1167781357
AG     12.8122314036     6.4962137216     7.1167579896
AG      5.5194448984     8.6450644069     7.1993742892
AG      8.3763085998     8.6450601093     7.1994085986
AG     11.2331850547     8.6450553742     7.1993872502
AG     14.0900402109     8.6450570773     7.1993564879
AG      3.0091208288     1.5300007381     9.6961816888
AG      5.8659836129     1.5300006600     9.6961857942
AG      8.7228468042     1.5299985348     9.6961782853
AG     11.5797030227     1.5299986858     9.6961753624
AG      4.3207276014     3.6742555171     9.7280006829
AG      7.1775899214     3.6742549498     9.7280047514
AG     10.0344519129     3.6742533871     9.7279973989
AG     12.8913083922     3.6742540869     9.7279934104
AG      5.6902082875     5.7693678139     9.7224637519
AG      8.5470710729     5.7693668343     9.7224686967
AG     11.4039335875     5.7693663131     9.7224627026
AG     14.2607895145     5.7693670508     9.7224570968
AG      6.9968750075     7.9083618094     9.7315679783
AG      9.8537404327     7.9083602492     9.7315732480
AG     12.7106020467     7.9083600880     9.7315639717
AG     15.5674554137     7.9083616194     9.7315590936
64
Step 5 | ATOMIC_POSITIONS (angstrom) | Cartesian Angstrom
NI      2.8568593560     1.4508721950     3.0000001930
NI      5.7137187120     1.4508721950     3.0000001930
NI      8.5705780690     1.4508721950     3.0000001930
NI     11.4274374250     1.4508721950     3.0000001930
NI      4.2852890340     3.6271804860     3.0000001930
NI      7.1421483910     3.6271804860     3.0000001930
NI      9.9990077470     3.6271804860     3.0000001930
NI     12.8558671030     3.6271804860     3.0000001930
NI      5.7137187120     5.8034887780     3.0000001930
NI      8.5705780690     5.8034887780     3.0000001930
NI     11.4274374250     5.8034887780     3.0000001930
NI     14.2842967810     5.8034887780     3.0000001930
NI      7.1421483910     7.9797970700     3.0000001930
NI      9.9990077470     7.9797970700     3.0000001930
NI     12.8558671030     7.9797970700     3.0000001930
NI     15.7127264590     7.9797970700     3.0000001930
NI      1.5540973606     0.8200406352     4.7904929412
NI      4.4110054805     0.8200550754     4.7905386988
NI      7.2681098211     0.8199447239     4.7905266252
NI     10.1248515131     0.8199409452     4.7904829356
NI      2.8850149846     2.9299578231     4.8447490682
NI      5.7419505158     2.9299224968     4.8447923234
NI      8.5989743459     2.9298166264     4.8447794296
NI     11.4557439898     2.9298603820     4.8447463807
NI      4.2869346061     5.0690068297     4.8464700812
NI      7.1438729691     5.0689400710     4.8465308905
NI     10.0008828856     5.0688598664     4.8465239123
NI     12.8577114424     5.0689276864     4.8464571307
NI      5.6354883191     7.1777973982     4.8686873072
NI      8.4924557422     7.1777408910     4.8687459645
NI     11.3495400434     7.1776699148     4.8687128360
NI     14.2062521147     7.1777418787     4.8686405107
AG      1.6073819963     2.2320839056     7.0713509444
AG      4.4642308549     2.2320922589     7.0713711705
AG      7.3211051095     2.2320876573     7.0713545928
AG     10.1779761210     2.2320787191     7.0713354945
AG      2.8885183596     4.3965508258     7.0903787776
AG      5.7453665730     4.3965549029     7.0903949607
AG      8.6022440209     4.3965480818     7.0903844097
AG     11.4591134579     4.3965481300     7.0903656580
AG      4.2207761719     6.5065768952     7.0850091385
AG      7.0776309293     6.5065753369     7.0850361516
AG      9.9345138471     6.5065709334     7.0850214979
AG     12.7913804822     6.5065697992     7.0849996776
AG      5.4700928693     8.6707424157     7.1798999026
AG      8.3269609155     8.6707373358     7.1799424067
AG     11.1838370774     8.6707328762     7.1799074575
AG     14.0406887676     8.6707354963     7.1798717118
AG      3.0489078548     1.5139972390     9.7198997625
AG      5.9057713098     1.5139969184     9.7199033687
AG      8.7626344095     1.5139946910     9.7198926240
AG     11.6194901084     1.5139950863     9.7198905588
AG      4.3360569398     3.6707556093     9.7627577079
AG      7.1929197438     3.6707549208     9.7627622030
AG     10.0497819791     3.6707538936     9.7627516903
AG     12.9066378020     3.6707546347     9.7627473529
AG      5.6787564663     5.7741199642     9.7549152619
AG      8.5356202942     5.7741193078     9.7549211922
AG     11.3924829656     5.7741191551     9.7549123396
AG     14.2493379514     5.7741196258     9.7549054223
AG      6.9608013449     7.9280517236     9.7681534178
AG      9.8176684041     7.9280500172     9.7681592025
AG     12.6745295452     7.9280501816     9.7681457744
AG     15.5313813686     7.9280518548     9.7681403428
64
Step 6 | ATOMIC_POSITIONS (angstrom) | Cartesian Angstrom
NI      2.8568593560     1.4508721950     3.0000001930
NI      5.7137187120     1.4508721950     3.0000001930
NI      8.5705780690     1.4508721950     3.0000001930
NI     11.4274374250     1.4508721950     3.0000001930
NI      4.2852890340     3.6271804860     3.0000001930
NI      7.1421483910     3.6271804860     3.0000001930
NI      9.9990077470     3.6271804860     3.0000001930
NI     12.8558671030     3.6271804860     3.0000001930
NI      5.7137187120     5.8034887780     3.0000001930
NI      8.5705780690     5.8034887780     3.0000001930
NI     11.4274374250     5.8034887780     3.0000001930
NI     14.2842967810     5.8034887780     3.0000001930
NI      7.1421483910     7.9797970700     3.0000001930
NI      9.9990077470     7.9797970700     3.0000001930
NI     12.8558671030     7.9797970700     3.0000001930
NI     15.7127264590     7.9797970700     3.0000001930
NI      1.5626696388     0.8183905848     4.7721515949
NI      4.4196357836     0.8183698066     4.7721686845
NI      7.2766923227     0.8182653781     4.7721704758
NI     10.1333981272     0.8183001676     4.7721397254
NI      2.8982408823     2.9451668798     4.8157675444
NI      5.7552151558     2.9450891377     4.8157907075
NI      8.6122248910     2.9450257457     4.8157766409
NI     11.4689417595     2.9451050168     4.8157522133
NI      4.2867655495     5.0705744234     4.8190901084
NI      7.1437621660     5.0704939602     4.8191316822
NI     10.0007482283     5.0704563564     4.8191022514
NI     12.8575043282     5.0705345640     4.8190631221
NI      5.6241441718     7.1885200579     4.8498353398
NI      8.4811813014     7.1884352442     4.8498596710
NI     11.3382088915     7.1883866482     4.8498129047
NI     14.1948659538     7.1884922238     4.8497821902
AG      1.6315404739     2.2069279192     7.0414356980
AG      4.4883934338     2.2069294469     7.0414524589
AG      7.3452627655     2.2069310962     7.0414218822
AG     10.2021313401     2.2069284382     7.0414071552
AG      2.8962981777     4.3847476765     7.0672367228
AG      5.7531516462     4.3847498212     7.0672478787
AG      8.6100309171     4.3847484349     7.0672245661
AG     11.4668941218     4.3847498857     7.0672072725
AG      4.1991775659     6.5282549355     7.0600573133
AG      7.0560412758     6.5282507282     7.0600786572
AG      9.9129240550     6.5282469200     7.0600461946
AG     12.7697818267     6.5282479851     7.0600338262
AG      5.4301862913     8.7070266087     7.1581989859
AG      8.2870629828     8.7070158351     7.1582412976
AG     11.1439308735     8.7070145569     7.1581867640
AG     14.0007751383     8.7070237346     7.1581546230
AG      3.0824526098     1.4860307006     9.7377057188
AG      5.9393162893     1.4860298757     9.7377063613
AG      8.7961775518     1.4860295486     9.7376919125
AG     11.6530331832     1.4860301428     9.7376927819
AG      4.3511062302     3.6554301585     9.7913045158
AG      7.2079697133     3.6554300385     9.7913072745
AG     10.0648303547     3.6554308015     9.7912928960
AG     12.9216853488     3.6554308544     9.7912900324
AG      5.6676620290     5.7894245035     9.7796960826
AG      8.5245267671     5.7894244615     9.7797004825
AG     11.3813870961     5.7894252585     9.7796883060
AG     14.2382415156     5.7894252499     9.7796824988
AG      6.9315755268     7.9597465768     9.7987453849
AG      9.7884432009     7.9597448180     9.7987493341
AG     12.6453017015     7.9597463169     9.7987316646
AG     15.5021532377     7.9597479791     9.7987278749
64
Step 7 | ATOMIC_POSITIONS (angstrom) | Cartesian Angstrom
NI      2.8568593560     1.4508721950     3.0000001930
NI      5.7137187120     1.4508721950     3.0000001930
NI      8.5705780690     1.4508721950     3.0000001930
NI     11.4274374250     1.4508721950     3.0000001930
NI      4.2852890340     3.6271804860     3.0000001930
NI      7.1421483910     3.6271804860     3.0000001930
NI      9.9990077470     3.6271804860     3.0000001930
NI     12.8558671030     3.6271804860     3.0000001930
NI      5.7137187120     5.8034887780     3.0000001930
NI      8.5705780690     5.8034887780     3.0000001930
NI     11.4274374250     5.8034887780     3.0000001930
NI     14.2842967810     5.8034887780     3.0000001930
NI      7.1421483910     7.9797970700     3.0000001930
NI      9.9990077470     7.9797970700     3.0000001930
NI     12.8558671030     7.9797970700     3.0000001930
NI     15.7127264590     7.9797970700     3.0000001930
NI      1.5546480744     0.8064646375     4.7817587863
NI      4.4115916750     0.8064409186     4.7817776228
NI      7.2686354823     0.8063413746     4.7818010647
NI     10.1253514426     0.8063805162     4.7817724813
NI      2.9062385878     2.9545613379     4.8114714734
NI      5.7632122615     2.9544958735     4.8114947472
NI      8.6202011784     2.9544502431     4.8114914971
NI     11.4769364165     2.9545223551     4.8114686928
NI      4.2867618431     5.0761523377     4.8177004295
NI      7.1437583873     5.0760861606     4.8177272669
NI     10.0007251821     5.0760690961     4.8177086986
NI     12.8574848373     5.0761273590     4.8176774960
NI      5.6225797392     7.2078072385     4.8502580899
NI      8.4796032813     7.2077275931     4.8502692389
NI     11.3366144518     7.2076932217     4.8502388983
NI     14.1932693570     7.2077904251     4.8502206555
AG      1.6349670249     2.1934541486     7.0324203607
AG      4.4918176544     2.1934567152     7.0324326644
AG      7.3486840140     2.1934639169     7.0323982724
AG     10.2055541211     2.1934596383     7.0323908943
AG      2.8986754224     4.3750514639     7.0637258076
AG      5.7555273174     4.3750563699     7.0637293593
AG      8.6124057257     4.3750560500     7.0637046202
AG     11.4692715263     4.3750539829     7.0636935000
AG      4.1871311505     6.5455415881     7.0543799671
AG      7.0439947707     6.5455395811     7.0543907366
AG      9.9008769690     6.5455354649     7.0543569885
AG     12.7577365776     6.5455349868     7.0543557479
AG      5.4184897176     8.7288334150     7.1454695336
AG      8.2753625537     8.7288225507     7.1455071053
AG     11.1322264994     8.7288257271     7.1454484098
AG     13.9890728437     8.7288356745     7.1454216610
AG      3.0943403100     1.4663492176     9.7404088163
AG      5.9512037476     1.4663486016     9.7404075412
AG      8.8080644059     1.4663492112     9.7403910746
AG     11.6649202014     1.4663493964     9.7403940093
AG      4.3589525006     3.6411186166     9.7995414182
AG      7.2158156385     3.6411189184     9.7995434040
AG     10.0726757988     3.6411197281     9.7995271410
AG     12.9295311313     3.6411194773     9.7995249221
AG      5.6621181911     5.8030092423     9.7840234045
AG      8.5189823517     5.8030096116     9.7840273117
AG     11.3758423423     5.8030104158     9.7840138050
AG     14.2326973469     5.8030098816     9.7840081440
AG      6.9224288992     7.9809561521     9.8085958078
AG      9.7792957152     7.9809549966     9.8085989809
AG     12.6361536414     7.9809570405     9.8085792776
AG     15.4930061571     7.9809577996     9.8085760247
64
Step 8 | ATOMIC_POSITIONS (angstrom) | Cartesian Angstrom
NI      2.8568593560     1.4508721950     3.0000001930
NI      5.7137187120     1.4508721950     3.0000001930
NI      8.5705780690     1.4508721950     3.0000001930
NI     11.4274374250     1.4508721950     3.0000001930
NI      4.2852890340     3.6271804860     3.0000001930
NI      7.1421483910     3.6271804860     3.0000001930
NI      9.9990077470     3.6271804860     3.0000001930
NI     12.8558671030     3.6271804860     3.0000001930
NI      5.7137187120     5.8034887780     3.0000001930
NI      8.5705780690     5.8034887780     3.0000001930
NI     11.4274374250     5.8034887780     3.0000001930
NI     14.2842967810     5.8034887780     3.0000001930
NI      7.1421483910     7.9797970700     3.0000001930
NI      9.9990077470     7.9797970700     3.0000001930
NI     12.8558671030     7.9797970700     3.0000001930
NI     15.7127264590     7.9797970700     3.0000001930
NI      1.5439303798     0.7943273660     4.7967094645
NI      4.4008818953     0.7942977528     4.7967246044
NI      7.2578995817     0.7941951798     4.7967525067
NI     10.1146129804     0.7942420134     4.7967262010
NI      2.9105650305     2.9591990784     4.8162789507
NI      5.7675311409     2.9591249928     4.8162982002
NI      8.6245000451     2.9590857083     4.8162999103
NI     11.4812476428     2.9591644068     4.8162788617
NI      4.2871857018     5.0836302981     4.8258115788
NI      7.1441829705     5.0835656847     4.8258370380
NI     10.0011498681     5.0835710490     4.8258175478
NI     12.8579042197     5.0836252767     4.8257903871
NI      5.6236277473     7.2258897383     4.8560084986
NI      8.4806680621     7.2258231920     4.8560145055
NI     11.3376594610     7.2258026243     4.8559817993
NI     14.1942990922     7.2258835808     4.8559710268
AG      1.6322129719     2.1931789763     7.0318230152
AG      4.4890636702     2.1931822113     7.0318291150
AG      7.3459260499     2.1931908424     7.0317937893
AG     10.2027961753     2.1931861647     7.0317931358
AG      2.8989314600     4.3724094254     7.0684456945
AG      5.7557810845     4.3724140464     7.0684432588
AG      8.6126603907     4.3724136490     7.0684209598
AG     11.4695282341     4.3724116972     7.0684141715
AG      4.1793766096     6.5549711878     7.0564333532
AG      7.0362413742     6.5549695048     7.0564372351
AG      9.8931272909     6.5549660305     7.0564035959
AG     12.7499854486     6.5549653385     7.0564107077
AG      5.4156482417     8.7362973905     7.1379421109
AG      8.2725217521     8.7362881181     7.1379743952
AG     11.1293832689     8.7362942253     7.1379107693
AG     13.9862282310     8.7363037397     7.1378903992
AG      3.0994184001     1.4590011257     9.7371093580
AG      5.9562816322     1.4590006870     9.7371054423
AG      8.8131411675     1.4590017198     9.7370873999
AG     11.6699970853     1.4590017245     9.7370928816
AG      4.3640120862     3.6335005764     9.7999017449
AG      7.2208746667     3.6335006810     9.7999029414
AG     10.0777346453     3.6335018328     9.7998854006
AG     12.9345902064     3.6335017697     9.7998838641
AG      5.6587847532     5.8101989857     9.7800823395
AG      8.5156489340     5.8101996528     9.7800857385
AG     11.3725087171     5.8102006564     9.7800709348
AG     14.2293637060     5.8101998163     9.7800654812
AG      6.9192719695     7.9885692747     9.8107011509
AG      9.7761382500     7.9885688333     9.8107030724
AG     12.6329955250     7.9885708162     9.8106814315
AG     15.4898485857     7.9885710251     9.8106791409
64
Step 9 | ATOMIC_POSITIONS (angstrom) | Cartesian Angstrom
NI      2.8568593560     1.4508721950     3.0000001930
NI      5.7137187120     1.4508721950     3.0000001930
NI      8.5705780690     1.4508721950     3.0000001930
NI     11.4274374250     1.4508721950     3.0000001930
NI      4.2852890340     3.6271804860     3.0000001930
NI      7.1421483910     3.6271804860     3.0000001930
NI      9.9990077470     3.6271804860     3.0000001930
NI     12.8558671030     3.6271804860     3.0000001930
NI      5.7137187120     5.8034887780     3.0000001930
NI      8.5705780690     5.8034887780     3.0000001930
NI     11.4274374250     5.8034887780     3.0000001930
NI     14.2842967810     5.8034887780     3.0000001930
NI      7.1421483910     7.9797970700     3.0000001930
NI      9.9990077470     7.9797970700     3.0000001930
NI     12.8558671030     7.9797970700     3.0000001930
NI     15.7127264590     7.9797970700     3.0000001930
NI      1.5336302283     0.7820736546     4.8107594472
NI      4.3905839403     0.7820467588     4.8107747113
NI      7.2475761318     0.7819575060     4.8108065550
NI     10.1042940972     0.7820024161     4.8107787413
NI      2.9154622623     2.9637986276     4.8214820692
NI      5.7724185182     2.9637314334     4.8214953323
NI      8.6293531243     2.9637009387     4.8215014912