122
Step 1 | ATOMIC_POSITIONS (angstrom) | Cartesian Angstrom
NI      1.2189535980     0.7037631880     1.4255056150
NI      2.4379071950     2.8150527500     1.4255056150
NI      3.6568607930     4.9263423130     1.4255056150
NI      4.8758143900     7.0376318760     1.4255056150
NI      6.0947679870     9.1489214370     1.4255056150
NI      7.3137215840    11.2602110000     1.4255056150
NI      3.6568607920     0.7037631880     1.4255056150
NI      4.8758143890     2.8150527500     1.4255056150
NI      6.0947679860     4.9263423130     1.4255056150
NI      7.3137215840     7.0376318760     1.4255056150
NI      8.5326751800     9.1489214370     1.4255056150
NI      9.7516287780    11.2602110000     1.4255056150
NI      6.0947679870     0.7037631880     1.4255056150
NI      7.3137215840     2.8150527500     1.4255056150
NI      8.5326751810     4.9263423130     1.4255056150
NI      9.7516287790     7.0376318760     1.4255056150
NI     10.9705823750     9.1489214370     1.4255056150
NI     12.1895359730    11.2602110000     1.4255056150
NI      8.5326751820     0.7037631880     1.4255056150
NI      9.7516287790     2.8150527500     1.4255056150
NI     10.9705823760     4.9263423130     1.4255056150
NI     12.1895359740     7.0376318760     1.4255056150
NI     13.4084895710     9.1489214370     1.4255056150
NI     14.6274431680    11.2602110000     1.4255056150
NI     10.9705823750     0.7037631880     1.4255056150
NI     12.1895359720     2.8150527500     1.4255056150
NI     13.4084895700     4.9263423130     1.4255056150
NI     14.6274431670     7.0376318760     1.4255056150
NI     15.8463967640     9.1489214370     1.4255056150
NI     17.0653503620    11.2602110000     1.4255056150
NI     13.4084895710     0.7037631880     1.4255056150
NI     14.6274431670     2.8150527500     1.4255056150
NI     15.8463967650     4.9263423130     1.4255056150
NI     17.0653503620     7.0376318760     1.4255056150
NI     18.2843039590     9.1489214370     1.4255056150
NI     19.5032575570    11.2602110000     1.4255056150
NI      2.4394966721     1.4084440606     3.4278030689
NI      3.6533965560     3.5254215503     3.4229548206
NI      4.8670317345     5.6351761680     3.4191247321
NI      6.0873152399     7.7410923732     3.4229548206
NI      7.3137215840     9.8508492547     3.4278030689
NI      8.5367707667    11.9616095989     3.4291549132
NI      4.8798028991     1.4012234525     3.4229548206
NI      6.0938576744     3.5182903688     3.4300162888
NI      7.3137215840     5.6311566384     3.4300162888
NI      8.5401279271     7.7410923732     3.4229548206
NI      9.7644822801     9.8487186031     3.4134275968
NI     10.9804438022    11.9548257400     3.4134275968
NI      7.3137215830     1.3973850391     3.4191247321
NI      8.5335854926     3.5182903688     3.4300162888
NI      9.7604114315     5.6351761680     3.4191247321
NI     10.9875780121     7.7439304773     3.3950689003
NI     12.2049566320     9.8437815038     3.3813985686
NI     13.4147916543    11.9479878263     3.3950689003
NI      9.7476402679     1.4012234525     3.4229548206
NI     10.9740466110     3.5254215503     3.4229548206
NI     12.2002295238     5.6435564464     3.3950689003
NI     13.4186367889     7.7472535626     3.3637089473
NI     14.6274431670     9.8409676268     3.3637089473
NI     15.8400946787    11.9479878263     3.3950689003
NI     12.1879464949     1.4084440606     3.4278030689
NI     13.4114816450     3.5319304079     3.4134275968
NI     14.6274431670     5.6479117445     3.3813985686
NI     15.8362495461     7.7472535626     3.3637089473
NI     17.0499297020     9.8437815038     3.3813985686
NI     18.2744425318    11.9548257400     3.4134275968
NI     14.6274431670     1.4122555511     3.4291549132
NI     15.8434046900     3.5319304079     3.4134275968
NI     17.0546568092     5.6435564464     3.3950689003
NI     18.2673083209     7.7439304773     3.3950689003
NI     19.4904040549     9.8487186031     3.4134275968
NI     20.7181155663    11.9616095989     3.4291549132
AG      0.0000000000     0.0000000000     5.6350743441
AG      1.4630899032     2.5246689613     5.6442063333
AG      2.9345326557     5.0568450046     5.6587416280
AG      4.4016316744     7.5979350443     5.6587416280
AG      5.8588390785    10.1383298704     5.6442063333
AG      2.9179724077     0.0047385433     5.6442063333
AG      4.3893726118     2.5342054591     5.6418142079
AG      5.8564515666     5.0639343617     5.6394699029
AG      7.3137215840     7.5993264569     5.6418142079
AG      8.7686040885    10.1383298704     5.6442063333
AG      5.8466225653     0.0129573261     5.6587416280
AG      7.3137215840     2.5398686517     5.6394699029
AG      8.7709916004     5.0639343617     5.6394699029
AG     10.2258114926     7.5979350443     5.6587416280
AG     11.6890230419    10.1416559005     5.6708603879
AG      8.7808206017     0.0129573261     5.6587416280
AG     10.2380705552     2.5342054591     5.6418142079
AG     11.6929105113     5.0568450046     5.6587416280
AG     13.1564572980     7.5958841622     5.6886978860
AG     14.6274431670    10.1437064257     5.6886978860
AG     11.7094707593     0.0047385433     5.6442063333
AG     13.1643532648     2.5246689613     5.6442063333
AG     14.6274431670     5.0521629491     5.6708603879
AG     16.0984290370     7.5958841622     5.6886978860
AG     17.5658632931    10.1416559005     5.6708603879
AG      1.4628258041     0.8445628716     7.9851231906
AG      2.9254687107     3.3781977969     7.9855656980
AG      4.3880822524     5.9116977819     7.9858070603
AG      5.8508508285     8.4451082561     7.9855656980
AG      7.3137215840    10.9786116328     7.9851231906
AG      4.3883394662     0.8444313230     7.9855656980
AG      5.8509480770     3.3780464475     7.9854346180
AG      7.3137215840     5.9116444829     7.9854346180
AG      8.7765923395     8.4451082561     7.9855656980
AG     10.2394018649    10.9785950786     7.9856189952
AG      7.3137215840     0.8443418133     7.9858070603
AG      8.7764950920     3.3780464475     7.9854346180
AG     10.2393609166     5.9116977819     7.9858070603
AG     11.7021386286     8.4451418183     7.9863768457
AG     13.1648051286    10.9785545112     7.9863768457
AG     10.2391037018     0.8444313230     7.9855656980
AG     11.7019744573     3.3781977969     7.9855656980
AG     13.1647766680     5.9117784225     7.9863768457
AG     14.6274431670     8.4451582500     7.9868494868
AG     16.0900812064    10.9785545112     7.9863768457
AG     13.1646173639     0.8445628716     7.9851231906
AG     14.6274431680     3.3782845957     7.9856189952
AG     16.0901096680     5.9117784225     7.9863768457
AG     17.5527477064     8.4451418183     7.9863768457
AG     19.0154844711    10.9785950786     7.9856189952
122
Step 2 | ATOMIC_POSITIONS (angstrom) | Cartesian Angstrom
NI      1.2189535980     0.7037631880     1.4255056150
NI      2.4379071950     2.8150527500     1.4255056150
NI      3.6568607930     4.9263423130     1.4255056150
NI      4.8758143900     7.0376318760     1.4255056150
NI      6.0947679870     9.1489214370     1.4255056150
NI      7.3137215840    11.2602110000     1.4255056150
NI      3.6568607920     0.7037631880     1.4255056150
NI      4.8758143890     2.8150527500     1.4255056150
NI      6.0947679860     4.9263423130     1.4255056150
NI      7.3137215840     7.0376318760     1.4255056150
NI      8.5326751800     9.1489214370     1.4255056150
NI      9.7516287780    11.2602110000     1.4255056150
NI      6.0947679870     0.7037631880     1.4255056150
NI      7.3137215840     2.8150527500     1.4255056150
NI      8.5326751810     4.9263423130     1.4255056150
NI      9.7516287790     7.0376318760     1.4255056150
NI     10.9705823750     9.1489214370     1.4255056150
NI     12.1895359730    11.2602110000     1.4255056150
NI      8.5326751820     0.7037631880     1.4255056150
NI      9.7516287790     2.8150527500     1.4255056150
NI     10.9705823760     4.9263423130     1.4255056150
NI     12.1895359740     7.0376318760     1.4255056150
NI     13.4084895710     9.1489214370     1.4255056150
NI     14.6274431680    11.2602110000     1.4255056150
NI     10.9705823750     0.7037631880     1.4255056150
NI     12.1895359720     2.8150527500     1.4255056150
NI     13.4084895700     4.9263423130     1.4255056150
NI     14.6274431670     7.0376318760     1.4255056150
NI     15.8463967640     9.1489214370     1.4255056150
NI     17.0653503620    11.2602110000     1.4255056150
NI     13.4084895710     0.7037631880     1.4255056150
NI     14.6274431670     2.8150527500     1.4255056150
NI     15.8463967650     4.9263423130     1.4255056150
NI     17.0653503620     7.0376318760     1.4255056150
NI     18.2843039590     9.1489214370     1.4255056150
NI     19.5032575570    11.2602110000     1.4255056150
NI      2.4421551731     1.4099789469     3.4245291442
NI      3.6486011797     3.5342073716     3.4144235478
NI      4.8553589500     5.6419154532     3.4061640511
NI      6.0773088074     7.7408523803     3.4144235478
NI      7.3137215840     9.8477794822     3.4245291442
NI      8.5428871379    11.9580783104     3.4274232587
NI      4.8850139553     1.3926776242     3.4144235478
NI      6.0921861187     3.5173252956     3.4292013115
NI      7.3137215840     5.6330867848     3.4292013115
NI      8.5501343596     7.7408523803     3.4144235478
NI      9.7804501136     9.8433706054     3.3957242080
NI     10.9930592207    11.9436711894     3.3957242080
NI      7.3137215830     1.3839064686     3.4061640511
NI      8.5352570483     3.5173252956     3.4292013115
NI      9.7720842160     5.6419154532     3.4061640511
NI     11.0055307619     7.7464716950     3.3650815211
NI     12.2199019252     9.8351528347     3.3457278896
NI     13.4215672702    11.9311696801     3.3650815211
NI      9.7424292117     1.3926776242     3.4144235478
NI     10.9788419873     3.5342073716     3.4144235478
NI     12.2114066578     5.6578333749     3.3650815211
NI     13.4269437822     7.7520496074     3.3237261895
NI     14.6274431670     9.8313755373     3.3237261895
NI     15.8333190628    11.9311696801     3.3650815211
NI     12.1852879939     1.4099789469     3.4245291442
NI     13.4148340599     3.5484329562     3.3957242080
NI     14.6274431670     5.6651690826     3.3457278896
NI     15.8279425528     7.7520496074     3.3237261895
NI     17.0349844088     9.8351528347     3.3457278896
NI     18.2618271133    11.9436711894     3.3957242080
NI     14.6274431670     1.4193181282     3.4274232587
NI     15.8400522751     3.5484329562     3.3957242080
NI     17.0434796752     5.6578333749     3.3650815211
NI     18.2493555711     7.7464716950     3.3650815211
NI     19.4744362214     9.8433706054     3.3957242080
NI     20.7119991951    11.9580783104     3.4274232587
AG     -0.0000000000     0.0000000000     5.6552659248
AG      1.4630670094     2.5137427347     5.6723877280
AG      2.9440759253     5.0459543865     5.6956230819
AG      4.4158348612     7.5951156394     5.6956230819
AG      5.8682900214    10.1438128103     5.6723877280
AG      2.9084985710     0.0101818300     5.6723877280
AG      4.3908307781     2.5350473317     5.6695260897
AG      5.8634341555     5.0599029621     5.6637854622
AG      7.3137215840     7.5976427115     5.6695260897
AG      8.7591531456    10.1438128103     5.6723877280
AG      5.8419626481     0.0266673491     5.6956230819
AG      7.3137215840     2.5479314508     5.6637854622
AG      8.7640090115     5.0599029621     5.6637854622
AG     10.2116083058     7.5951156394     5.6956230819
AG     11.6765360753    10.1488652540     5.7123101001
AG      8.7854805189     0.0266673491     5.6956230819
AG     10.2366123889     2.5350473317     5.6695260897
AG     11.6833672417     5.0459543865     5.6956230819
AG     13.1500794268     7.5922018965     5.7351369663
AG     14.6274431670    10.1510709570     5.7351369663
AG     11.7189445960     0.0101818300     5.6723877280
AG     13.1643761586     2.5137427347     5.6723877280
AG     14.6274431670     5.0377442420     5.7123101001
AG     16.1048069082     7.5922018965     5.7351369663
AG     17.5783502597    10.1488652540     5.7123101001
AG      1.4625556402     0.8444068924     7.9806285873
AG      2.9254180852     3.3776286207     7.9820702047
AG      4.3885051173     5.9114536407     7.9828649998
AG      5.8513184368     8.4454366872     7.9820702047
AG      7.3137215840    10.9789235911     7.9806285873
AG      4.3878212324     0.8446720681     7.9820702047
AG      5.8509161122     3.3780279927     7.9810693567
AG      7.3137215840     5.9116813926     7.9810693567
AG      8.7761247312     8.4454366872     7.9820702047
AG     10.2385597855    10.9790812534     7.9827010724
AG      7.3137215840     0.8448300956     7.9828649998
AG      8.7765270568     3.3780279927     7.9810693567
AG     10.2389380517     5.9114536407     7.9828649998
AG     11.7011865272     8.4453391755     7.9857942207
AG     13.1641581615    10.9792803766     7.9857942207
AG     10.2396219356     0.8446720681     7.9820702047
AG     11.7020250828     3.3776286207     7.9820702047
AG     13.1644715337     5.9108551999     7.9857942207
AG     14.6274431670     8.4451582500     7.9880345267
AG     16.0907281735    10.9792803766     7.9857942207
AG     13.1648875278     0.8444068924     7.9806285873
AG     14.6274431680     3.3773122462     7.9827010724
AG     16.0904148023     5.9108551999     7.9857942207
AG     17.5536998078     8.4453391755     7.9857942207
AG     19.0163265505    10.9790812534     7.9827010724
122
Step 3 | ATOMIC_POSITIONS (angstrom) | Cartesian Angstrom
NI      1.2189535980     0.7037631880     1.4255056150
NI      2.4379071950     2.8150527500     1.4255056150
NI      3.6568607930     4.9263423130     1.4255056150
NI      4.8758143900     7.0376318760     1.4255056150
NI      6.0947679870     9.1489214370     1.4255056150
NI      7.3137215840    11.2602110000     1.4255056150
NI      3.6568607920     0.7037631880     1.4255056150
NI      4.8758143890     2.8150527500     1.4255056150
NI      6.0947679860     4.9263423130     1.4255056150
NI      7.3137215840     7.0376318760     1.4255056150
NI      8.5326751800     9.1489214370     1.4255056150
NI      9.7516287780    11.2602110000     1.4255056150
NI      6.0947679870     0.7037631880     1.4255056150
NI      7.3137215840     2.8150527500     1.4255056150
NI      8.5326751810     4.9263423130     1.4255056150
NI      9.7516287790     7.0376318760     1.4255056150
NI     10.9705823750     9.1489214370     1.4255056150
NI     12.1895359730    11.2602110000     1.4255056150
NI      8.5326751820     0.7037631880     1.4255056150
NI      9.7516287790     2.8150527500     1.4255056150
NI     10.9705823760     4.9263423130     1.4255056150
NI     12.1895359740     7.0376318760     1.4255056150
NI     13.4084895710     9.1489214370     1.4255056150
NI     14.6274431680    11.2602110000     1.4255056150
NI     10.9705823750     0.7037631880     1.4255056150
NI     12.1895359720     2.8150527500     1.4255056150
NI     13.4084895700     4.9263423130     1.4255056150
NI     14.6274431670     7.0376318760     1.4255056150
NI     15.8463967640     9.1489214370     1.4255056150
NI     17.0653503620    11.2602110000     1.4255056150
NI     13.4084895710     0.7037631880     1.4255056150
NI     14.6274431670     2.8150527500     1.4255056150
NI     15.8463967650     4.9263423130     1.4255056150
NI     17.0653503620     7.0376318760     1.4255056150
NI     18.2843039590     9.1489214370     1.4255056150
NI     19.5032575570    11.2602110000     1.4255056150
NI      2.4444230929     1.4112883310     3.4245381565
NI      3.6458384503     3.5392302885     3.4122453991
NI      4.8486583495     5.6457840467     3.4018338919
NI      6.0715774691     7.7407335157     3.4122453991
NI      7.3137215840     9.8451607141     3.4245381565
NI      8.5470203128    11.9556920207     3.4283358570
NI      4.8879825642     1.3877735719     3.4122453991
NI      6.0908679957     3.5165642770     3.4302690696
NI      7.3137215840     5.6346088220     3.4302690696
NI      8.5558656979     7.7407335157     3.4122453991
NI      9.7891097299     9.8399729954     3.3904192907
NI     11.0003314455    11.9378705467     3.3904192907
NI      7.3137215830     1.3761692816     3.4018338919
NI      8.5365751713     3.5165642770     3.4302690696
NI      9.7787848165     5.6457840467     3.4018338919
NI     11.0142052609     7.7477187717     3.3574103409
NI     12.2270273585     9.8310389639     3.3379269458
NI     13.4248245196    11.9230338053     3.3574103409
NI      9.7394606028     1.3877735719     3.4122453991
NI     10.9816047167     3.5392302885     3.4122453991
NI     12.2168239073     5.6647221730     3.3574103409
NI     13.4306668898     7.7541991445     3.3161070134
NI     14.6274431670     9.8270764629     3.3161070134
NI     15.8300618134    11.9230338053     3.3574103409
NI     12.1830200741     1.4112883310     3.4245381565
NI     13.4162214514     3.5576312089     3.3904192907
NI     14.6274431670     5.6733968241     3.3379269458
NI     15.8242194452     7.7541991445     3.3161070134
NI     17.0278589755     9.8310389639     3.3379269458
NI     18.2545548885    11.9378705467     3.3904192907
NI     14.6274431670     1.4240907075     3.4283358570
NI     15.8386648836     3.5576312089     3.3904192907
NI     17.0380624257     5.6647221730     3.3574103409
NI     18.2406810721     7.7477187717     3.3574103409
NI     19.4657766051     9.8399729954     3.3904192907
NI     20.7078660202    11.9556920207     3.4283358570
AG     -0.0000000000    -0.0000000000     5.6670988199
AG      1.4626969907     2.5075754188     5.6866158065
AG      2.9491553932     5.0400425939     5.7114429500
AG      4.4234943577     7.5936725875     5.7114429500
AG      5.8734460643    10.1472169139     5.6866158065
AG      2.9029725094     0.0129450423     5.6866158065
AG      4.3916317185     2.5355097549     5.6849365659
AG      5.8673944689     5.0576164741     5.6769575196
AG      7.3137215840     7.5967178652     5.6849365659
AG      8.7539971027    10.1472169139     5.6866158065
AG      5.8393826195     0.0340221936     5.7114429500
AG      7.3137215840     2.5525044268     5.6769575196
AG      8.7600486981     5.0576164741     5.6769575196
AG     10.2039488093     7.5936725875     5.7114429500
AG     11.6697007873    10.1528116093     5.7282700422
AG      8.7880605475     0.0340221936     5.7114429500
AG     10.2358114485     2.5355097549     5.6849365659
AG     11.6782877738     5.0400425939     5.7114429500
AG     13.1466581301     7.5902266099     5.7515521451
AG     14.6274431670    10.1550215302     5.7515521451
AG     11.7244706576     0.0129450423     5.6866158065
AG     13.1647461773     2.5075754188     5.6866158065
AG     14.6274431670     5.0298515314     5.7282700422
AG     16.1082282049     7.5902266099     5.7515521451
AG     17.5851855477    10.1528116093     5.7282700422
AG      1.4619525989     0.8440587263     7.9800439640
AG      2.9252767813     3.3765762723     7.9823038036
AG      4.3892933599     5.9109985486     7.9834958036
AG      5.8521591452     8.4460852342     7.9823038036
AG      7.3137215840    10.9796199233     7.9800439640
AG      4.3868392200     0.8450758695     7.9823038036
AG      5.8509092481     3.3780240297     7.9801733485
AG      7.3137215840     5.9116893186     7.9801733485
AG      8.7752840228     8.4460852342     7.9823038036
AG     10.2370797010    10.9799357806     7.9836550084
AG      7.3137215840     0.8457402797     7.9834958036
AG      8.7765339209     3.3780240297     7.9801733485
AG     10.2381498091     5.9109985486     7.9834958036
AG     11.6997630125     8.4456228811     7.9888336329
AG     13.1632007079    10.9803713238     7.9888336329
AG     10.2406039480     0.8450758695     7.9823038036
AG     11.7021663867     3.3765762723     7.9823038036
AG     13.1640054726     5.9094805471     7.9888336329
AG     14.6274431670     8.4451582500     7.9928008966
AG     16.0916856271    10.9803713238     7.9888336329
AG     13.1654905691     0.8440587263     7.9800439640
AG     14.6274431680     3.3756031919     7.9836550084
AG     16.0908808634     5.9094805471     7.9888336329
AG     17.5551233225     8.4456228811     7.9888336329
AG     19.0178066350    10.9799357806     7.9836550084
122
Step 4 | ATOMIC_POSITIONS (angstrom) | Cartesian Angstrom
NI      1.2189535980     0.7037631880     1.4255056150
NI      2.4379071950     2.8150527500     1.4255056150
NI      3.6568607930     4.9263423130     1.4255056150
NI      4.8758143900     7.0376318760     1.4255056150
NI      6.0947679870     9.1489214370     1.4255056150
NI      7.3137215840    11.2602110000     1.4255056150
NI      3.6568607920     0.7037631880     1.4255056150
NI      4.8758143890     2.8150527500     1.4255056150
NI      6.0947679860     4.9263423130     1.4255056150
NI      7.3137215840     7.0376318760     1.4255056150
NI      8.5326751800     9.1489214370     1.4255056150
NI      9.7516287780    11.2602110000     1.4255056150
NI      6.0947679870     0.7037631880     1.4255056150
NI      7.3137215840     2.8150527500     1.4255056150
NI      8.5326751810     4.9263423130     1.4255056150
NI      9.7516287790     7.0376318760     1.4255056150
NI     10.9705823750     9.1489214370     1.4255056150
NI     12.1895359730    11.2602110000     1.4255056150
NI      8.5326751820     0.7037631880     1.4255056150
NI      9.7516287790     2.8150527500     1.4255056150
NI     10.9705823760     4.9263423130     1.4255056150
NI     12.1895359740     7.0376318760     1.4255056150
NI     13.4084895710     9.1489214370     1.4255056150
NI     14.6274431680    11.2602110000     1.4255056150
NI     10.9705823750     0.7037631880     1.4255056150
NI     12.1895359720     2.8150527500     1.4255056150
NI     13.4084895700     4.9263423130     1.4255056150
NI     14.6274431670     7.0376318760     1.4255056150
NI     15.8463967640     9.1489214370     1.4255056150
NI     17.0653503620    11.2602110000     1.4255056150
NI     13.4084895710     0.7037631880     1.4255056150
NI     14.6274431670     2.8150527500     1.4255056150
NI     15.8463967650     4.9263423130     1.4255056150
NI     17.0653503620     7.0376318760     1.4255056150
NI     18.2843039590     9.1489214370     1.4255056150
NI     19.5032575570    11.2602110000     1.4255056150
NI      2.4466967786     1.4126010441     3.4260895663
NI      3.6437156365     3.5429461729     3.4129088176
NI      4.8435530555     5.6487315896     3.4012014072
NI      6.0672980118     7.7407139842     3.4129088176
NI      7.3137215840     9.8425352879     3.4260895663
NI      8.5505427389    11.9536583471     3.4306618585
NI      4.8901392076     1.3840772190     3.4129088176
NI      6.0895756267     3.5158181274     3.4324422771
NI      7.3137215840     5.6361011212     3.4324422771
NI      8.5601451552     7.7407139842     3.4129088176
NI      9.7953723954     9.8371876195     3.3902002556
NI     11.0058749845    11.9338396072     3.3902002556
NI      7.3137215830     1.3702741959     3.4012014072
NI      8.5378675403     3.5158181274     3.4324422771
NI      9.7838901105     5.6487315896     3.4012014072
NI     11.0201354187     7.7486487164     3.3579671847
NI     12.2319024907     9.8282243050     3.3398179491
NI     13.4269842428    11.9174331656     3.3579671847
NI      9.7373039594     1.3840772190     3.4129088176
NI     10.9837275305     3.5429461729     3.4129088176
NI     12.2205943419     5.6693928680     3.3579671847
NI     13.4331526090     7.7556342752     3.3190516539
NI     14.6274431670     9.8242062016     3.3190516539
NI     15.8279020902    11.9174331656     3.3579671847
NI     12.1807463884     1.4126010441     3.4260895663
NI     13.4169405779     3.5644475243     3.3902002556
NI     14.6274431670     5.6790261420     3.3398179491
NI     15.8217337260     7.7556342752     3.3190516539
NI     17.0229838433     9.8282243050     3.3398179491
NI     18.2490113495    11.9338396072     3.3902002556
NI     14.6274431670     1.4281580548     3.4306618585
NI     15.8379457571     3.5644475243     3.3902002556
NI     17.0342919911     5.6693928680     3.3579671847
NI     18.2347509143     7.7486487164     3.3579671847
NI     19.4595139396     9.8371876195     3.3902002556
NI     20.7043435941    11.9536583471     3.4306618585
AG     -0.0000000000    -0.0000000000     5.6762979382
AG      1.4621145011     2.5027656195     5.6963574523
AG      2.9531199639     5.0353108934     5.7209011990
AG      4.4295744159     7.5926050188     5.7209011990
AG      5.8773202278    10.1501262643     5.6963574523
AG      2.8985158562     0.0148454911     5.6963574523
AG      4.3921627174     2.5358163273     5.6965059140
AG      5.8703821370     5.0558915431     5.6865539767
AG      7.3137215840     7.5961047204     5.6965059140
AG      8.7501229392    10.1501262644     5.6963574523
AG      5.8372671320     0.0398214628     5.7209011990
AG      7.3137215840     2.5559542888     5.6865539767
AG      8.7570610300     5.0558915431     5.6865539767
AG     10.1978687511     7.5926050188     5.7209011990
AG     11.6639704967    10.1561199942     5.7368471384
AG      8.7901760350     0.0398214628     5.7209011990
AG     10.2352804496     2.5358163273     5.6965059140
AG     11.6743232031     5.0353108934     5.7209011990
AG     13.1436833193     7.5885091021     5.7598255393
AG     14.6274431670    10.1584565458     5.7598255393
AG     11.7289273108     0.0148454911     5.6963574523
AG     13.1653286669     2.5027656195     5.6963574523
AG     14.6274431670     5.0232347616     5.7368471384
AG     16.1112030157     7.5885091021     5.7598255393
AG     17.5909158383    10.1561199942     5.7368471384
AG      1.4610398477     0.8435317492     7.9819596427
AG      2.9249762789     3.3751070336     7.9849158375
AG      4.3903415396     5.9103933818     7.9863554856
AG      5.8532812921     8.4470800962     7.9849158375
AG      7.3137215840    10.9806738776     7.9819596427
AG      4.3854165708     0.8455502461     7.9849158375
AG      5.8509051510     3.3780216642     7.9814430690
AG      7.3137215840     5.9116940496     7.9814430690
AG      8.7741618759     8.4470800962     7.9849158375
AG     10.2350584018    10.9811027782     7.9871137447
AG      7.3137215840     0.8469506134     7.9863554856
AG      8.7765380180     3.3780216642     7.9814430690
AG     10.2371016294     5.9103933818     7.9863554856
AG     11.6979417548     8.4460126481     7.9941998075
AG     13.1619525309    10.9817536956     7.9941998075
AG     10.2420265972     0.8455502461     7.9849158375
AG     11.7024668891     3.3751070336     7.9849158375
AG     13.1634323919     5.9077084082     7.9941998075
AG     14.6274431670     8.4451582500     7.9999385144
AG     16.0929338041    10.9817536956     7.9941998075
AG     13.1664033203     0.8435317492     7.9819596427
AG     14.6274431680     3.3732691966     7.9871137447
AG     16.0914539441     5.9077084082     7.9941998075
AG     17.5569445802     8.4460126481     7.9941998075
AG     19.0198279342    10.9811027782     7.9871137447
122
Step 5 | ATOMIC_POSITIONS (angstrom) | Cartesian Angstrom
NI      1.2189535980     0.7037631880     1.4255056150
NI      2.4379071950     2.8150527500     1.4255056150
NI      3.6568607930     4.9263423130     1.4255056150
NI      4.8758143900     7.0376318760     1.4255056150
NI      6.0947679870     9.1489214370     1.4255056150
NI      7.3137215840    11.2602110000     1.4255056150
NI      3.6568607920     0.7037631880     1.4255056150
NI      4.8758143890     2.8150527500     1.4255056150
NI      6.0947679860     4.9263423130     1.4255056150
NI      7.3137215840     7.0376318760     1.4255056150
NI      8.5326751800     9.1489214370     1.4255056150
NI      9.7516287780    11.2602110000     1.4255056150
NI      6.0947679870     0.7037631880     1.4255056150
NI      7.3137215840     2.8150527500     1.4255056150
NI      8.5326751810     4.9263423130     1.4255056150
NI      9.7516287790     7.0376318760     1.4255056150
NI     10.9705823750     9.1489214370     1.4255056150
NI     12.1895359730    11.2602110000     1.4255056150
NI      8.5326751820     0.7037631880     1.4255056150
NI      9.7516287790     2.8150527500     1.4255056150
NI     10.9705823760     4.9263423130     1.4255056150
NI     12.1895359740     7.0376318760     1.4255056150
NI     13.4084895710     9.1489214370     1.4255056150
NI     14.6274431680    11.2602110000     1.4255056150
NI     10.9705823750     0.7037631880     1.4255056150
NI     12.1895359720     2.8150527500     1.4255056150
NI     13.4084895700     4.9263423130     1.4255056150
NI     14.6274431670     7.0376318760     1.4255056150
NI     15.8463967640     9.1489214370     1.4255056150
NI     17.0653503620    11.2602110000     1.4255056150
NI     13.4084895710     0.7037631880     1.4255056150
NI     14.6274431670     2.8150527500     1.4255056150
NI     15.8463967650     4.9263423130     1.4255056150
NI     17.0653503620     7.0376318760     1.4255056150
NI     18.2843039590     9.1489214370     1.4255056150
NI     19.5032575570    11.2602110000     1.4255056150
NI      2.4496656096     1.4143150994     3.4291331424
NI      3.6414918259     3.5468317199     3.4156963917
NI      4.8380866243     5.6518876351     3.4028848720
NI      6.0628211241     7.7406970872     3.4156963917
NI      7.3137215840     9.8391071771     3.4291331424
NI      8.5546206134    11.9513039851     3.4347173889
NI      4.8923922847     1.3802085690     3.4156963917
NI      6.0879643994     3.5148878848     3.4360151527
NI      7.3137215840     5.6379616063     3.4360151527
NI      8.5646220429     7.7406970872     3.4156963917
NI      9.8019078576     9.8340119836     3.3932112238
NI     11.0118928970    11.9297675488     3.3932112238
NI      7.3137215830     1.3639621048     3.4028848720
NI      8.5394787676     3.5148878848     3.4360151527
NI      9.7893565417     5.6518876351     3.4028848720