64
Step 1 | ATOMIC_POSITIONS (angstrom) | Cartesian Angstrom
NI      2.8568593560     1.4508721950     3.0000001930
NI      5.7137187120     1.4508721950     3.0000001930
NI      8.5705780690     1.4508721950     3.0000001930
NI     11.4274374250     1.4508721950     3.0000001930
NI      4.2852890340     3.6271804860     3.0000001930
NI      7.1421483910     3.6271804860     3.0000001930
NI      9.9990077470     3.6271804860     3.0000001930
NI     12.8558671030     3.6271804860     3.0000001930
NI      5.7137187120     5.8034887780     3.0000001930
NI      8.5705780690     5.8034887780     3.0000001930
NI     11.4274374250     5.8034887780     3.0000001930
NI     14.2842967810     5.8034887780     3.0000001930
NI      7.1421483910     7.9797970700     3.0000001930
NI      9.9990077470     7.9797970700     3.0000001930
NI     12.8558671030     7.9797970700     3.0000001930
NI     15.7127264590     7.9797970700     3.0000001930
NI      1.4452225267     0.7422226680     4.9757967587
NI      4.3020733764     0.7422408880     4.9758141353
NI      7.1589869833     0.7422037431     4.9758035526
NI     10.0158322405     0.7421827706     4.9757905596
NI      2.8576312582     2.9024271107     4.9920794897
NI      5.7144701846     2.9024275593     4.9921001033
NI      8.5713702614     2.9023827486     4.9921017020
NI     11.4282490055     2.9023870551     4.9920905917
NI      4.2855793409     5.0774055006     4.9921351257
NI      7.1424278145     5.0773979373     4.9921648477
NI      9.9993463096     5.0773739891     4.9921723919
NI     12.8562314335     5.0773819962     4.9921394668
NI      5.7040514018     7.2393153510     4.9929021393
NI      8.5609226903     7.2393256336     4.9929288149
NI     11.4178516817     7.2393040679     4.9929179152
NI     14.2746915757     7.2392954316     4.9928840372
AG      1.4600185441     2.2336831185     7.2179032691
AG      4.3168735130     2.2336862234     7.2179063133
AG      7.1737365705     2.2336820031     7.2179107406
AG     10.0305998645     2.2336785146     7.2179067753
AG      2.8567165038     4.3540923096     7.2179808746
AG      5.7135690799     4.3540934339     7.2179863314
AG      8.5704335453     4.3540893634     7.2179927745
AG     11.4272996269     4.3540880889     7.2179879976
AG      4.2839108480     6.5288771470     7.2182952160
AG      7.1407665653     6.5288790166     7.2183038308
AG      9.9976333939     6.5288774931     7.2183086050
AG     12.8544981801     6.5288753463     7.2182998401
AG      5.6751058865     8.6469686235     7.2342707408
AG      8.5319640520     8.6469721157     7.2342770127
AG     11.3888298525     8.6469686297     7.2342787061
AG     14.2456905631     8.6469650422     7.2342708116
AG      2.8873139820     1.5055275592     9.6192078328
AG      5.7441736938     1.5055272256     9.6192092326
AG      8.6010342964     1.5055259880     9.6192087250
AG     11.4578931317     1.5055262862     9.6192075297
AG      4.2871129512     3.6287968202     9.6210697837
AG      7.1439725688     3.6287961020     9.6210718612
AG     10.0008336053     3.6287953009     9.6210716832
AG     12.8576927696     3.6287959913     9.6210697849
AG      5.7135575570     5.8044863891     9.6211983849
AG      8.5704178417     5.8044859677     9.6212007068
AG     11.4272792533     5.8044854754     9.6211997609
AG     14.2841375570     5.8044858053     9.6211972975
AG      7.1118850252     7.9255441369     9.6211980432
AG      9.9687457385     7.9255438707     9.6211995391
AG     12.8256063794     7.9255429387     9.6211981456
AG     15.6824641352     7.9255431775     9.6211966479
64
Step 2 | ATOMIC_POSITIONS (angstrom) | Cartesian Angstrom
NI      2.8568593560     1.4508721950     3.0000001930
NI      5.7137187120     1.4508721950     3.0000001930
NI      8.5705780690     1.4508721950     3.0000001930
NI     11.4274374250     1.4508721950     3.0000001930
NI      4.2852890340     3.6271804860     3.0000001930
NI      7.1421483910     3.6271804860     3.0000001930
NI      9.9990077470     3.6271804860     3.0000001930
NI     12.8558671030     3.6271804860     3.0000001930
NI      5.7137187120     5.8034887780     3.0000001930
NI      8.5705780690     5.8034887780     3.0000001930
NI     11.4274374250     5.8034887780     3.0000001930
NI     14.2842967810     5.8034887780     3.0000001930
NI      7.1421483910     7.9797970700     3.0000001930
NI      9.9990077470     7.9797970700     3.0000001930
NI     12.8558671030     7.9797970700     3.0000001930
NI     15.7127264590     7.9797970700     3.0000001930
NI      1.4678763308     0.7631350944     4.9376736562
NI      4.3247297052     0.7631457115     4.9377098730
NI      7.1817126446     0.7631073043     4.9376888413
NI     10.0385317257     0.7630937589     4.9376669150
NI      2.8599036270     2.9040786695     4.9678569636
NI      5.7167802677     2.9040825559     4.9678902520
NI      8.5737191126     2.9040183942     4.9678765387
NI     11.4305573328     2.9040247204     4.9678578360
NI      4.2859719330     5.0762255442     4.9690884942
NI      7.1428490931     5.0762075135     4.9691265908
NI      9.9997730844     5.0761467410     4.9691268389
NI     12.8566452920     5.0761686718     4.9690830927
NI      5.6907156626     7.2204576673     4.9705946001
NI      8.5475873312     7.2204467459     4.9706333977
NI     11.4045558189     7.2204029719     4.9706181616
NI     14.2613797727     7.2204214188     4.9705686341
AG      1.4898640460     2.2500498300     7.1908536175
AG      4.3467189307     2.2500534305     7.1908647660
AG      7.2035892887     2.2500510007     7.1908659947
AG     10.0604523988     2.2500460638     7.1908535700
AG      2.8597951980     4.3714463126     7.1942485416
AG      5.7166512119     4.3714494053     7.1942576294
AG      8.5735188180     4.3714419374     7.1942584697
AG     11.4303817445     4.3714391389     7.1942500936
AG      4.2775940935     6.5134451548     7.1927732374
AG      7.1344508078     6.5134454389     7.1927844885
AG      9.9913181528     6.5134397145     7.1927892127
AG     12.8481842399     6.5134390924     7.1927774358
AG      5.6354337596     8.6316199352     7.2294725122
AG      8.4922915179     8.6316186717     7.2294866102
AG     11.3491631491     8.6316144384     7.2294876187
AG     14.2060244072     8.6316137486     7.2294708559
AG      2.9181065428     1.5253155165     9.6385509563
AG      5.7749676863     1.5253155694     9.6385536866
AG      8.6318292036     1.5253144041     9.6385514206
AG     11.4886869741     1.5253145103     9.6385491671
AG      4.2926466504     3.6451122094     9.6473427706
AG      7.1495075598     3.6451113762     9.6473454984
AG     10.0063686731     3.6451099109     9.6473434281
AG     12.8632267303     3.6451108785     9.6473408312
AG      5.7104195552     5.7917165333     9.6456025547
AG      8.5672805940     5.7917156574     9.6456054763
AG     11.4241421670     5.7917146454     9.6456037106
AG     14.2809997218     5.7917154614     9.6456004444
AG      7.0821777853     7.9069671687     9.6478344426
AG      9.9390397389     7.9069664420     9.6478372899
AG     12.7959009270     7.9069658576     9.6478344247
AG     15.6527574839     7.9069663470     9.6478316753
