122
Step 1 | ATOMIC_POSITIONS (angstrom) | Cartesian Angstrom
NI      1.2189535980     0.7037631880     1.4255056150
NI      2.4379071950     2.8150527500     1.4255056150
NI      3.6568607930     4.9263423130     1.4255056150
NI      4.8758143900     7.0376318760     1.4255056150
NI      6.0947679870     9.1489214370     1.4255056150
NI      7.3137215840    11.2602110000     1.4255056150
NI      3.6568607920     0.7037631880     1.4255056150
NI      4.8758143890     2.8150527500     1.4255056150
NI      6.0947679860     4.9263423130     1.4255056150
NI      7.3137215840     7.0376318760     1.4255056150
NI      8.5326751800     9.1489214370     1.4255056150
NI      9.7516287780    11.2602110000     1.4255056150
NI      6.0947679870     0.7037631880     1.4255056150
NI      7.3137215840     2.8150527500     1.4255056150
NI      8.5326751810     4.9263423130     1.4255056150
NI      9.7516287790     7.0376318760     1.4255056150
NI     10.9705823750     9.1489214370     1.4255056150
NI     12.1895359730    11.2602110000     1.4255056150
NI      8.5326751820     0.7037631880     1.4255056150
NI      9.7516287790     2.8150527500     1.4255056150
NI     10.9705823760     4.9263423130     1.4255056150
NI     12.1895359740     7.0376318760     1.4255056150
NI     13.4084895710     9.1489214370     1.4255056150
NI     14.6274431680    11.2602110000     1.4255056150
NI     10.9705823750     0.7037631880     1.4255056150
NI     12.1895359720     2.8150527500     1.4255056150
NI     13.4084895700     4.9263423130     1.4255056150
NI     14.6274431670     7.0376318760     1.4255056150
NI     15.8463967640     9.1489214370     1.4255056150
NI     17.0653503620    11.2602110000     1.4255056150
NI     13.4084895710     0.7037631880     1.4255056150
NI     14.6274431670     2.8150527500     1.4255056150
NI     15.8463967650     4.9263423130     1.4255056150
NI     17.0653503620     7.0376318760     1.4255056150
NI     18.2843039590     9.1489214370     1.4255056150
NI     19.5032575570    11.2602110000     1.4255056150
NI      2.4394966721     1.4084440606     3.4278030689
NI      3.6533965560     3.5254215503     3.4229548206
NI      4.8670317345     5.6351761680     3.4191247321
NI      6.0873152399     7.7410923732     3.4229548206
NI      7.3137215840     9.8508492547     3.4278030689
NI      8.5367707667    11.9616095989     3.4291549132
NI      4.8798028991     1.4012234525     3.4229548206
NI      6.0938576744     3.5182903688     3.4300162888
NI      7.3137215840     5.6311566384     3.4300162888
NI      8.5401279271     7.7410923732     3.4229548206
NI      9.7644822801     9.8487186031     3.4134275968
NI     10.9804438022    11.9548257400     3.4134275968
NI      7.3137215830     1.3973850391     3.4191247321
NI      8.5335854926     3.5182903688     3.4300162888
NI      9.7604114315     5.6351761680     3.4191247321
NI     10.9875780121     7.7439304773     3.3950689003
NI     12.2049566320     9.8437815038     3.3813985686
NI     13.4147916543    11.9479878263     3.3950689003
NI      9.7476402679     1.4012234525     3.4229548206
NI     10.9740466110     3.5254215503     3.4229548206
NI     12.2002295238     5.6435564464     3.3950689003
NI     13.4186367889     7.7472535626     3.3637089473
NI     14.6274431670     9.8409676268     3.3637089473
NI     15.8400946787    11.9479878263     3.3950689003
NI     12.1879464949     1.4084440606     3.4278030689
NI     13.4114816450     3.5319304079     3.4134275968
NI     14.6274431670     5.6479117445     3.3813985686
NI     15.8362495461     7.7472535626     3.3637089473
NI     17.0499297020     9.8437815038     3.3813985686
NI     18.2744425318    11.9548257400     3.4134275968
NI     14.6274431670     1.4122555511     3.4291549132
NI     15.8434046900     3.5319304079     3.4134275968
NI     17.0546568092     5.6435564464     3.3950689003
NI     18.2673083209     7.7439304773     3.3950689003
NI     19.4904040549     9.8487186031     3.4134275968
NI     20.7181155663    11.9616095989     3.4291549132
AG      0.0000000000     0.0000000000     5.6350743441
AG      1.4630899032     2.5246689613     5.6442063333
AG      2.9345326557     5.0568450046     5.6587416280
AG      4.4016316744     7.5979350443     5.6587416280
AG      5.8588390785    10.1383298704     5.6442063333
AG      2.9179724077     0.0047385433     5.6442063333
AG      4.3893726118     2.5342054591     5.6418142079
AG      5.8564515666     5.0639343617     5.6394699029
AG      7.3137215840     7.5993264569     5.6418142079
AG      8.7686040885    10.1383298704     5.6442063333
AG      5.8466225653     0.0129573261     5.6587416280
AG      7.3137215840     2.5398686517     5.6394699029
AG      8.7709916004     5.0639343617     5.6394699029
AG     10.2258114926     7.5979350443     5.6587416280
AG     11.6890230419    10.1416559005     5.6708603879
AG      8.7808206017     0.0129573261     5.6587416280
AG     10.2380705552     2.5342054591     5.6418142079
AG     11.6929105113     5.0568450046     5.6587416280
AG     13.1564572980     7.5958841622     5.6886978860
AG     14.6274431670    10.1437064257     5.6886978860
AG     11.7094707593     0.0047385433     5.6442063333
AG     13.1643532648     2.5246689613     5.6442063333
AG     14.6274431670     5.0521629491     5.6708603879
AG     16.0984290370     7.5958841622     5.6886978860
AG     17.5658632931    10.1416559005     5.6708603879
AG      1.4628258041     0.8445628716     7.9851231906
AG      2.9254687107     3.3781977969     7.9855656980
AG      4.3880822524     5.9116977819     7.9858070603
AG      5.8508508285     8.4451082561     7.9855656980
AG      7.3137215840    10.9786116328     7.9851231906
AG      4.3883394662     0.8444313230     7.9855656980
AG      5.8509480770     3.3780464475     7.9854346180
AG      7.3137215840     5.9116444829     7.9854346180
AG      8.7765923395     8.4451082561     7.9855656980
AG     10.2394018649    10.9785950786     7.9856189952
AG      7.3137215840     0.8443418133     7.9858070603
AG      8.7764950920     3.3780464475     7.9854346180
AG     10.2393609166     5.9116977819     7.9858070603
AG     11.7021386286     8.4451418183     7.9863768457
AG     13.1648051286    10.9785545112     7.9863768457
AG     10.2391037018     0.8444313230     7.9855656980
AG     11.7019744573     3.3781977969     7.9855656980
AG     13.1647766680     5.9117784225     7.9863768457
AG     14.6274431670     8.4451582500     7.9868494868
AG     16.0900812064    10.9785545112     7.9863768457
AG     13.1646173639     0.8445628716     7.9851231906
AG     14.6274431680     3.3782845957     7.9856189952
AG     16.0901096680     5.9117784225     7.9863768457
AG     17.5527477064     8.4451418183     7.9863768457
AG     19.0154844711    10.9785950786     7.9856189952
122
Step 2 | ATOMIC_POSITIONS (angstrom) | Cartesian Angstrom
NI      1.2189535980     0.7037631880     1.4255056150
NI      2.4379071950     2.8150527500     1.4255056150
NI      3.6568607930     4.9263423130     1.4255056150
NI      4.8758143900     7.0376318760     1.4255056150
NI      6.0947679870     9.1489214370     1.4255056150
NI      7.3137215840    11.2602110000     1.4255056150
NI      3.6568607920     0.7037631880     1.4255056150
NI      4.8758143890     2.8150527500     1.4255056150
NI      6.0947679860     4.9263423130     1.4255056150
NI      7.3137215840     7.0376318760     1.4255056150
NI      8.5326751800     9.1489214370     1.4255056150
NI      9.7516287780    11.2602110000     1.4255056150
NI      6.0947679870     0.7037631880     1.4255056150
NI      7.3137215840     2.8150527500     1.4255056150
NI      8.5326751810     4.9263423130     1.4255056150
NI      9.7516287790     7.0376318760     1.4255056150
NI     10.9705823750     9.1489214370     1.4255056150
NI     12.1895359730    11.2602110000     1.4255056150
NI      8.5326751820     0.7037631880     1.4255056150
NI      9.7516287790     2.8150527500     1.4255056150
NI     10.9705823760     4.9263423130     1.4255056150
NI     12.1895359740     7.0376318760     1.4255056150
NI     13.4084895710     9.1489214370     1.4255056150
NI     14.6274431680    11.2602110000     1.4255056150
NI     10.9705823750     0.7037631880     1.4255056150
NI     12.1895359720     2.8150527500     1.4255056150
NI     13.4084895700     4.9263423130     1.4255056150
NI     14.6274431670     7.0376318760     1.4255056150
NI     15.8463967640     9.1489214370     1.4255056150
NI     17.0653503620    11.2602110000     1.4255056150
NI     13.4084895710     0.7037631880     1.4255056150
NI     14.6274431670     2.8150527500     1.4255056150
NI     15.8463967650     4.9263423130     1.4255056150
NI     17.0653503620     7.0376318760     1.4255056150
NI     18.2843039590     9.1489214370     1.4255056150
NI     19.5032575570    11.2602110000     1.4255056150
NI      2.4421551731     1.4099789469     3.4245291442
NI      3.6486011797     3.5342073716     3.4144235478
NI      4.8553589500     5.6419154532     3.4061640511
NI      6.0773088074     7.7408523803     3.4144235478
NI      7.3137215840     9.8477794822     3.4245291442
NI      8.5428871379    11.9580783104     3.4274232587
NI      4.8850139553     1.3926776242     3.4144235478
NI      6.0921861187     3.5173252956     3.4292013115
NI      7.3137215840     5.6330867848     3.4292013115
NI      8.5501343596     7.7408523803     3.4144235478
NI      9.7804501136     9.8433706054     3.3957242080
NI     10.9930592207    11.9436711894     3.3957242080
NI      7.3137215830     1.3839064686     3.4061640511
NI      8.5352570483     3.5173252956     3.4292013115
NI      9.7720842160     5.6419154532     3.4061640511
NI     11.0055307619     7.7464716950     3.3650815211
NI     12.2199019252     9.8351528347     3.3457278896
NI     13.4215672702    11.9311696801     3.3650815211
NI      9.7424292117     1.3926776242     3.4144235478
NI     10.9788419873     3.5342073716     3.4144235478
NI     12.2114066578     5.6578333749     3.3650815211
NI     13.4269437822     7.7520496074     3.3237261895
NI     14.6274431670     9.8313755373     3.3237261895
NI     15.8333190628    11.9311696801     3.3650815211
NI     12.1852879939     1.4099789469     3.4245291442
NI     13.4148340599     3.5484329562     3.3957242080
NI     14.6274431670     5.6651690826     3.3457278896
NI     15.8279425528     7.7520496074     3.3237261895
NI     17.0349844088     9.8351528347     3.3457278896
NI     18.2618271133    11.9436711894     3.3957242080
NI     14.6274431670     1.4193181282     3.4274232587
NI     15.8400522751     3.5484329562     3.3957242080
NI     17.0434796752     5.6578333749     3.3650815211
NI     18.2493555711     7.7464716950     3.3650815211
NI     19.4744362214     9.8433706054     3.3957242080
NI     20.7119991951    11.9580783104     3.4274232587
AG     -0.0000000000     0.0000000000     5.6552659248
AG      1.4630670094     2.5137427347     5.6723877280
AG      2.9440759253     5.0459543865     5.6956230819
AG      4.4158348612     7.5951156394     5.6956230819
AG      5.8682900214    10.1438128103     5.6723877280
AG      2.9084985710     0.0101818300     5.6723877280
AG      4.3908307781     2.5350473317     5.6695260897
AG      5.8634341555     5.0599029621     5.6637854622
AG      7.3137215840     7.5976427115     5.6695260897
AG      8.7591531456    10.1438128103     5.6723877280
AG      5.8419626481     0.0266673491     5.6956230819
AG      7.3137215840     2.5479314508     5.6637854622
AG      8.7640090115     5.0599029621     5.6637854622
AG     10.2116083058     7.5951156394     5.6956230819
AG     11.6765360753    10.1488652540     5.7123101001
AG      8.7854805189     0.0266673491     5.6956230819
AG     10.2366123889     2.5350473317     5.6695260897
AG     11.6833672417     5.0459543865     5.6956230819
AG     13.1500794268     7.5922018965     5.7351369663
AG     14.6274431670    10.1510709570     5.7351369663
AG     11.7189445960     0.0101818300     5.6723877280
AG     13.1643761586     2.5137427347     5.6723877280
AG     14.6274431670     5.0377442420     5.7123101001
AG     16.1048069082     7.5922018965     5.7351369663
AG     17.5783502597    10.1488652540     5.7123101001
AG      1.4625556402     0.8444068924     7.9806285873
AG      2.9254180852     3.3776286207     7.9820702047
AG      4.3885051173     5.9114536407     7.9828649998
AG      5.8513184368     8.4454366872     7.9820702047
AG      7.3137215840    10.9789235911     7.9806285873
AG      4.3878212324     0.8446720681     7.9820702047
AG      5.8509161122     3.3780279927     7.9810693567
AG      7.3137215840     5.9116813926     7.9810693567
AG      8.7761247312     8.4454366872     7.9820702047
AG     10.2385597855    10.9790812534     7.9827010724
AG      7.3137215840     0.8448300956     7.9828649998
AG      8.7765270568     3.3780279927     7.9810693567
AG     10.2389380517     5.9114536407     7.9828649998
AG     11.7011865272     8.4453391755     7.9857942207
AG     13.1641581615    10.9792803766     7.9857942207
AG     10.2396219356     0.8446720681     7.9820702047
AG     11.7020250828     3.3776286207     7.9820702047
AG     13.1644715337     5.9108551999     7.9857942207
AG     14.6274431670     8.4451582500     7.9880345267
AG     16.0907281735    10.9792803766     7.9857942207
AG     13.1648875278     0.8444068924     7.9806285873
AG     14.6274431680     3.3773122462     7.9827010724
AG     16.0904148023     5.9108551999     7.9857942207
AG     17.5536998078     8.4453391755     7.9857942207
AG     19.0163265505    10.9790812534     7.9827010724
