122
Step 1 | ATOMIC_POSITIONS (angstrom) | Cartesian Angstrom
NI      1.2189535980     0.7037631880     1.4255056150
NI      2.4379071950     2.8150527500     1.4255056150
NI      3.6568607930     4.9263423130     1.4255056150
NI      4.8758143900     7.0376318760     1.4255056150
NI      6.0947679870     9.1489214370     1.4255056150
NI      7.3137215840    11.2602110000     1.4255056150
NI      3.6568607920     0.7037631880     1.4255056150
NI      4.8758143890     2.8150527500     1.4255056150
NI      6.0947679860     4.9263423130     1.4255056150
NI      7.3137215840     7.0376318760     1.4255056150
NI      8.5326751800     9.1489214370     1.4255056150
NI      9.7516287780    11.2602110000     1.4255056150
NI      6.0947679870     0.7037631880     1.4255056150
NI      7.3137215840     2.8150527500     1.4255056150
NI      8.5326751810     4.9263423130     1.4255056150
NI      9.7516287790     7.0376318760     1.4255056150
NI     10.9705823750     9.1489214370     1.4255056150
NI     12.1895359730    11.2602110000     1.4255056150
NI      8.5326751820     0.7037631880     1.4255056150
NI      9.7516287790     2.8150527500     1.4255056150
NI     10.9705823760     4.9263423130     1.4255056150
NI     12.1895359740     7.0376318760     1.4255056150
NI     13.4084895710     9.1489214370     1.4255056150
NI     14.6274431680    11.2602110000     1.4255056150
NI     10.9705823750     0.7037631880     1.4255056150
NI     12.1895359720     2.8150527500     1.4255056150
NI     13.4084895700     4.9263423130     1.4255056150
NI     14.6274431670     7.0376318760     1.4255056150
NI     15.8463967640     9.1489214370     1.4255056150
NI     17.0653503620    11.2602110000     1.4255056150
NI     13.4084895710     0.7037631880     1.4255056150
NI     14.6274431670     2.8150527500     1.4255056150
NI     15.8463967650     4.9263423130     1.4255056150
NI     17.0653503620     7.0376318760     1.4255056150
NI     18.2843039590     9.1489214370     1.4255056150
NI     19.5032575570    11.2602110000     1.4255056150
NI      2.4503718451     1.4147228447     3.4520492676
NI      3.6445694862     3.5429145264     3.4439221873
NI      4.8428398586     5.6491433540     3.4293689555
NI      6.0677523434     7.7399903519     3.4439221873
NI      7.3137215840     9.8382916866     3.4520492676
NI      8.5525056993    11.9525250314     3.4560952605
NI      4.8905387258     1.3848324977     3.4439221873
NI      6.0884351921     3.5151596972     3.4557647630
NI      7.3137215840     5.6374179816     3.4557647630
NI      8.5596908236     7.7399903519     3.4439221873
NI      9.7956114376     9.8350645766     3.4265688216
NI     11.0078331147    11.9346941120     3.4265688216
NI      7.3137215830     1.3694506670     3.4293689555
NI      8.5390079749     3.5151596972     3.4557647630
NI      9.7846033074     5.6491433540     3.4293689555
NI     11.0217301165     7.7487742097     3.4049954355
NI     12.2351112481     9.8263717281     3.3929070253
NI     13.4276729112    11.9159893702     3.4049954355
NI      9.7369044412     1.3848324977     3.4439221873
NI     10.9828736808     3.5429145264     3.4439221873
NI     12.2215003712     5.6707111701     3.4049954355
NI     13.4351975443     7.7568149191     3.3703263238
NI     14.6274431670     9.8218449137     3.3703263238
NI     15.8272134218    11.9159893702     3.4049954355
NI     12.1770713219     1.4147228447     3.4520492676
NI     13.4152214900     3.5657160624     3.4265688216
NI     14.6274431670     5.6827312958     3.3929070253
NI     15.8196887907     7.7568149191     3.3703263238
NI     17.0197750859     9.8263717281     3.3929070253
NI     18.2470532193    11.9346941120     3.4265688216
NI     14.6274431670     1.4304246863     3.4560952605
NI     15.8396648450     3.5657160624     3.4265688216
NI     17.0333859618     5.6707111701     3.4049954355
NI     18.2331562165     7.7487742097     3.4049954355
NI     19.4592748974     9.8350645766     3.4265688216
NI     20.7023806337    11.9525250314     3.4560952605
AG     -0.0000000000     0.0000000000     5.7387111647
AG      1.4590669192     2.4915490302     5.7605517258
AG      2.9619507220     5.0192053460     5.7855587903
AG      4.4479376081     7.5930101316     5.7855587903
AG      5.8855102882    10.1583738423     5.7605517258
AG      2.8872782140     0.0178145025     5.7605517258
AG      4.3871391279     2.5329159565     5.7658473565
AG      5.8740686361     5.0537631418     5.7449081881
AG      7.3137215840     7.6019054620     5.7658473565
AG      8.7419328788    10.1583738423     5.7605517258
AG      5.8277346979     0.0555218974     5.7855587903
AG      7.3137215840     2.5602110913     5.7449081881
AG      8.7533745309     5.0537631418     5.7449081881
AG     10.1795055589     7.5930101316     5.7855587903
AG     11.6388331854    10.1706330276     5.8023805713
AG      8.7997084691     0.0555218974     5.7855587903
AG     10.2403040391     2.5329159565     5.7658473565
AG     11.6654924450     5.0192053460     5.7855587903
AG     13.1252605678     7.5778727216     5.8272120530
AG     14.6274431670    10.1797293069     5.8272120530
AG     11.7401649530     0.0178145025     5.7605517258
AG     13.1683762488     2.4915490302     5.7605517258
AG     14.6274431670     4.9942086948     5.8023805713
AG     16.1296257672     7.5778727215     5.8272120530
AG     17.6160531496    10.1706330276     5.8023805713
AG      1.4514226185     0.8379792393     8.0856411499
AG      2.9175345244     3.3605063662     8.0847404685
AG      4.3960753811     5.9070829469     8.0761108105
AG      5.8622049638     8.4608251784     8.0847404685
AG      7.3137215840    10.9917788973     8.0856411499
AG      4.3690511446     0.8464058314     8.0847404685
AG      5.8482527393     3.3764902936     8.0656171457
AG      7.3137215840     5.9147567908     8.0656171457
AG      8.7652382042     8.4608251784     8.0847404685
AG     10.2148973203    10.9927427840     8.0964986453
AG      7.3137215840     0.8535714832     8.0761108105
AG      8.7791904297     3.3764902936     8.0656171457
AG     10.2313677879     5.9070829469     8.0761108105
AG     11.6820861447     8.4530788334     8.0914077795
AG     13.1479052299    10.9919519642     8.0914077795
AG     10.2583920234     0.8464058314     8.0847404685
AG     11.7099086436     3.3605063662     8.0847404685
AG     13.1616240828     5.8904439545     8.0914077795
AG     14.6274431670     8.4451582500     8.0882342145
AG     16.1069811051    10.9919519642     8.0914077795
AG     13.1760205495     0.8379792393     8.0856411499
AG     14.6274431680     3.3499891850     8.0964986453
AG     16.0932622532     5.8904439545     8.0914077795
AG     17.5728001903     8.4530788334     8.0914077795
AG     19.0399890157    10.9927427840     8.0964986453
122
Step 2 | ATOMIC_POSITIONS (angstrom) | Cartesian Angstrom
NI      1.2189535980     0.7037631880     1.4255056150
NI      2.4379071950     2.8150527500     1.4255056150
NI      3.6568607930     4.9263423130     1.4255056150
NI      4.8758143900     7.0376318760     1.4255056150
NI      6.0947679870     9.1489214370     1.4255056150
NI      7.3137215840    11.2602110000     1.4255056150
NI      3.6568607920     0.7037631880     1.4255056150
NI      4.8758143890     2.8150527500     1.4255056150
NI      6.0947679860     4.9263423130     1.4255056150
NI      7.3137215840     7.0376318760     1.4255056150
NI      8.5326751800     9.1489214370     1.4255056150
NI      9.7516287780    11.2602110000     1.4255056150
NI      6.0947679870     0.7037631880     1.4255056150
NI      7.3137215840     2.8150527500     1.4255056150
NI      8.5326751810     4.9263423130     1.4255056150
NI      9.7516287790     7.0376318760     1.4255056150
NI     10.9705823750     9.1489214370     1.4255056150
NI     12.1895359730    11.2602110000     1.4255056150
NI      8.5326751820     0.7037631880     1.4255056150
NI      9.7516287790     2.8150527500     1.4255056150
NI     10.9705823760     4.9263423130     1.4255056150
NI     12.1895359740     7.0376318760     1.4255056150
NI     13.4084895710     9.1489214370     1.4255056150
NI     14.6274431680    11.2602110000     1.4255056150
NI     10.9705823750     0.7037631880     1.4255056150
NI     12.1895359720     2.8150527500     1.4255056150
NI     13.4084895700     4.9263423130     1.4255056150
NI     14.6274431670     7.0376318760     1.4255056150
NI     15.8463967640     9.1489214370     1.4255056150
NI     17.0653503620    11.2602110000     1.4255056150
NI     13.4084895710     0.7037631880     1.4255056150
NI     14.6274431670     2.8150527500     1.4255056150
NI     15.8463967650     4.9263423130     1.4255056150
NI     17.0653503620     7.0376318760     1.4255056150
NI     18.2843039590     9.1489214370     1.4255056150
NI     19.5032575570    11.2602110000     1.4255056150
NI      2.4503350399     1.4147015951     3.4520983940
NI      3.6445190839     3.5430820465     3.4440005511
NI      4.8426374238     5.6492602298     3.4294379652
NI      6.0675820655     7.7399502415     3.4440005511
NI      7.3137215840     9.8383341857     3.4520983940
NI      8.5524546129    11.9525545261     3.4562366192
NI      4.8906586014     1.3847050880     3.4440005511
NI      6.0885134707     3.5152048914     3.4558250949
NI      7.3137215840     5.6373275933     3.4558250949
NI      8.5598611015     7.7399502415     3.4440005511
NI      9.7959511687     9.8349790188     3.4266053000
NI     11.0080770754    11.9344426752     3.4266053000
NI      7.3137215830     1.3692169154     3.4294379652
NI      8.5389296963     3.5152048914     3.4558250949
NI      9.7848057422     5.6492602298     3.4294379652
NI     11.0219759182     7.7488336621     3.4046643035
NI     12.2350757412     9.8263922280     3.3923504016
NI     13.4277443248    11.9157467735     3.4046643035
NI      9.7367845656     1.3847050880     3.4440005511
NI     10.9829240831     3.5430820465     3.4440005511
NI     12.2216747593     5.6708943145     3.4046643035
NI     13.4350468889     7.7567279382     3.3696835635
NI     14.6274431670     9.8220188756     3.3696835635
NI     15.8271420082    11.9157467735     3.4046643035
NI     12.1771081271     1.4147015952     3.4520983940
NI     13.4153172602     3.5660530570     3.4266053000
NI     14.6274431670     5.6826902960     3.3923504016
NI     15.8198394461     7.7567279382     3.3696835635
NI     17.0198105928     9.8263922280     3.3923504016
NI     18.2468092586    11.9344426752     3.4266053000
NI     14.6274431670     1.4303656968     3.4562366192
NI     15.8395690748     3.5660530570     3.4266053000
NI     17.0332115737     5.6708943145     3.4046643035
NI     18.2329104148     7.7488336621     3.4046643035
NI     19.4589351663     9.8349790188     3.4266053000
NI     20.7024317201    11.9525545261     3.4562366192
AG     -0.0000000000    -0.0000000000     5.7386348320
AG      1.4590638783     2.4915975856     5.7606557767
AG      2.9619708935     5.0192009378     5.7858778548
AG      4.4479515115     7.5929948667     5.7858778548
AG      5.8854667176    10.1583521981     5.7606557767
AG      2.8873187438     0.0177875913     5.7606557767
AG      4.3870937488     2.5328897569     5.7658689369
AG      5.8739529778     5.0538299172     5.7448700068
AG      7.3137215840     7.6019578612     5.7658689369
AG      8.7419764494    10.1583521981     5.7606557767
AG      5.8277409660     0.0555415705     5.7858778548
AG      7.3137215840     2.5600775407     5.7448700068
AG      8.7534901892     5.0538299172     5.7448700068
AG     10.1794916555     7.5929948667     5.7858778548
AG     11.6389057794    10.1705911154     5.8028662572
AG      8.7997022010     0.0555415705     5.7858778548
AG     10.2403494182     2.5328897569     5.7658689369
AG     11.6654722735     5.0192009378     5.7858778548
AG     13.1253220884     7.5779082405     5.8276929937
AG     14.6274431670    10.1796582690     5.8276929937
AG     11.7401244232     0.0177875913     5.7606557767
AG     13.1683792897     2.4915975856     5.7606557767
AG     14.6274431670     4.9942925191     5.8028662572
AG     16.1295642466     7.5779082405     5.8276929937
AG     17.6159805556    10.1705911154     5.8028662572
AG      1.4515551828     0.8380557754     8.0855402916
AG      2.9175799131     3.3607672541     8.0847142461
AG      4.3959861301     5.9071344760     8.0760956283
AG      5.8620017226     8.4606554267     8.0847142461
AG      7.3137215840    10.9916258253     8.0855402916
AG      4.3692997745     0.8463146953     8.0847142461
AG      5.8483741492     3.3765603897     8.0657202996
AG      7.3137215840     5.9146165987     8.0657202996
AG      8.7654414454     8.4606554267     8.0847142461
AG     10.2152693477    10.9925279939     8.0962808375
AG      7.3137215840     0.8534684251     8.0760956283
AG      8.7790690198     3.3765603897     8.0657202996
AG     10.2314570389     5.9071344760     8.0760956283
AG     11.6823404094     8.4529210674     8.0914068325
AG     13.1481689916    10.9918106474     8.0914068325
AG     10.2581433935     0.8463146953     8.0847142461
AG     11.7098632549     3.3607672540     8.0847142461
AG     13.1616145858     5.8907430371     8.0914068325
AG     14.6274431670     8.4451582500     8.0884087039
AG     16.1067173434    10.9918106474     8.0914068325
AG     13.1758879852     0.8380557754     8.0855402916
AG     14.6274431680     3.3504187651     8.0962808375
AG     16.0932717502     5.8907430371     8.0914068325
AG     17.5725459256     8.4529210674     8.0914068325
AG     19.0396169883    10.9925279939     8.0962808375
