122
Step 1 | ATOMIC_POSITIONS (angstrom) | Cartesian Angstrom
NI      1.2189535980     0.7037631880     1.4255056150
NI      2.4379071950     2.8150527500     1.4255056150
NI      3.6568607930     4.9263423130     1.4255056150
NI      4.8758143900     7.0376318760     1.4255056150
NI      6.0947679870     9.1489214370     1.4255056150
NI      7.3137215840    11.2602110000     1.4255056150
NI      3.6568607920     0.7037631880     1.4255056150
NI      4.8758143890     2.8150527500     1.4255056150
NI      6.0947679860     4.9263423130     1.4255056150
NI      7.3137215840     7.0376318760     1.4255056150
NI      8.5326751800     9.1489214370     1.4255056150
NI      9.7516287780    11.2602110000     1.4255056150
NI      6.0947679870     0.7037631880     1.4255056150
NI      7.3137215840     2.8150527500     1.4255056150
NI      8.5326751810     4.9263423130     1.4255056150
NI      9.7516287790     7.0376318760     1.4255056150
NI     10.9705823750     9.1489214370     1.4255056150
NI     12.1895359730    11.2602110000     1.4255056150
NI      8.5326751820     0.7037631880     1.4255056150
NI      9.7516287790     2.8150527500     1.4255056150
NI     10.9705823760     4.9263423130     1.4255056150
NI     12.1895359740     7.0376318760     1.4255056150
NI     13.4084895710     9.1489214370     1.4255056150
NI     14.6274431680    11.2602110000     1.4255056150
NI     10.9705823750     0.7037631880     1.4255056150
NI     12.1895359720     2.8150527500     1.4255056150
NI     13.4084895700     4.9263423130     1.4255056150
NI     14.6274431670     7.0376318760     1.4255056150
NI     15.8463967640     9.1489214370     1.4255056150
NI     17.0653503620    11.2602110000     1.4255056150
NI     13.4084895710     0.7037631880     1.4255056150
NI     14.6274431670     2.8150527500     1.4255056150
NI     15.8463967650     4.9263423130     1.4255056150
NI     17.0653503620     7.0376318760     1.4255056150
NI     18.2843039590     9.1489214370     1.4255056150
NI     19.5032575570    11.2602110000     1.4255056150
NI      2.4503718451     1.4147228447     3.4520492676
NI      3.6445694862     3.5429145264     3.4439221873
NI      4.8428398586     5.6491433540     3.4293689555
NI      6.0677523434     7.7399903519     3.4439221873
NI      7.3137215840     9.8382916866     3.4520492676
NI      8.5525056993    11.9525250314     3.4560952605
NI      4.8905387258     1.3848324977     3.4439221873
NI      6.0884351921     3.5151596972     3.4557647630
NI      7.3137215840     5.6374179816     3.4557647630
NI      8.5596908236     7.7399903519     3.4439221873
NI      9.7956114376     9.8350645766     3.4265688216
NI     11.0078331147    11.9346941120     3.4265688216
NI      7.3137215830     1.3694506670     3.4293689555
NI      8.5390079749     3.5151596972     3.4557647630
NI      9.7846033074     5.6491433540     3.4293689555
NI     11.0217301165     7.7487742097     3.4049954355
NI     12.2351112481     9.8263717281     3.3929070253
NI     13.4276729112    11.9159893702     3.4049954355
NI      9.7369044412     1.3848324977     3.4439221873
NI     10.9828736808     3.5429145264     3.4439221873
NI     12.2215003712     5.6707111701     3.4049954355
NI     13.4351975443     7.7568149191     3.3703263238
NI     14.6274431670     9.8218449137     3.3703263238
NI     15.8272134218    11.9159893702     3.4049954355
NI     12.1770713219     1.4147228447     3.4520492676
NI     13.4152214900     3.5657160624     3.4265688216
NI     14.6274431670     5.6827312958     3.3929070253
NI     15.8196887907     7.7568149191     3.3703263238
NI     17.0197750859     9.8263717281     3.3929070253
NI     18.2470532193    11.9346941120     3.4265688216
NI     14.6274431670     1.4304246863     3.4560952605
NI     15.8396648450     3.5657160624     3.4265688216
NI     17.0333859618     5.6707111701     3.4049954355
NI     18.2331562165     7.7487742097     3.4049954355
NI     19.4592748974     9.8350645766     3.4265688216
NI     20.7023806337    11.9525250314     3.4560952605
AG     -0.0000000000     0.0000000000     5.7387111647
AG      1.4590669192     2.4915490302     5.7605517258
AG      2.9619507220     5.0192053460     5.7855587903
AG      4.4479376081     7.5930101316     5.7855587903
AG      5.8855102882    10.1583738423     5.7605517258
AG      2.8872782140     0.0178145025     5.7605517258
AG      4.3871391279     2.5329159565     5.7658473565
AG      5.8740686361     5.0537631418     5.7449081881
AG      7.3137215840     7.6019054620     5.7658473565
AG      8.7419328788    10.1583738423     5.7605517258
AG      5.8277346979     0.0555218974     5.7855587903
AG      7.3137215840     2.5602110913     5.7449081881
AG      8.7533745309     5.0537631418     5.7449081881
AG     10.1795055589     7.5930101316     5.7855587903
AG     11.6388331854    10.1706330276     5.8023805713
AG      8.7997084691     0.0555218974     5.7855587903
AG     10.2403040391     2.5329159565     5.7658473565
AG     11.6654924450     5.0192053460     5.7855587903
AG     13.1252605678     7.5778727216     5.8272120530
AG     14.6274431670    10.1797293069     5.8272120530
AG     11.7401649530     0.0178145025     5.7605517258
AG     13.1683762488     2.4915490302     5.7605517258
AG     14.6274431670     4.9942086948     5.8023805713
AG     16.1296257672     7.5778727215     5.8272120530
AG     17.6160531496    10.1706330276     5.8023805713
AG      1.4514226185     0.8379792393     8.0856411499
AG      2.9175345244     3.3605063662     8.0847404685
AG      4.3960753811     5.9070829469     8.0761108105
AG      5.8622049638     8.4608251784     8.0847404685
AG      7.3137215840    10.9917788973     8.0856411499
AG      4.3690511446     0.8464058314     8.0847404685
AG      5.8482527393     3.3764902936     8.0656171457
AG      7.3137215840     5.9147567908     8.0656171457
AG      8.7652382042     8.4608251784     8.0847404685
AG     10.2148973203    10.9927427840     8.0964986453
AG      7.3137215840     0.8535714832     8.0761108105
AG      8.7791904297     3.3764902936     8.0656171457
AG     10.2313677879     5.9070829469     8.0761108105
AG     11.6820861447     8.4530788334     8.0914077795
AG     13.1479052299    10.9919519642     8.0914077795
AG     10.2583920234     0.8464058314     8.0847404685
AG     11.7099086436     3.3605063662     8.0847404685
AG     13.1616240828     5.8904439545     8.0914077795
AG     14.6274431670     8.4451582500     8.0882342145
AG     16.1069811051    10.9919519642     8.0914077795
AG     13.1760205495     0.8379792393     8.0856411499
AG     14.6274431680     3.3499891850     8.0964986453
AG     16.0932622532     5.8904439545     8.0914077795
AG     17.5728001903     8.4530788334     8.0914077795
AG     19.0399890157    10.9927427840     8.0964986453
122
Step 2 | ATOMIC_POSITIONS (angstrom) | Cartesian Angstrom
NI      1.2189535980     0.7037631880     1.4255056150
NI      2.4379071950     2.8150527500     1.4255056150
NI      3.6568607930     4.9263423130     1.4255056150
NI      4.8758143900     7.0376318760     1.4255056150
NI      6.0947679870     9.1489214370     1.4255056150
NI      7.3137215840    11.2602110000     1.4255056150
NI      3.6568607920     0.7037631880     1.4255056150
NI      4.8758143890     2.8150527500     1.4255056150
NI      6.0947679860     4.9263423130     1.4255056150
NI      7.3137215840     7.0376318760     1.4255056150
NI      8.5326751800     9.1489214370     1.4255056150
NI      9.7516287780    11.2602110000     1.4255056150
NI      6.0947679870     0.7037631880     1.4255056150
NI      7.3137215840     2.8150527500     1.4255056150
NI      8.5326751810     4.9263423130     1.4255056150
NI      9.7516287790     7.0376318760     1.4255056150
NI     10.9705823750     9.1489214370     1.4255056150
NI     12.1895359730    11.2602110000     1.4255056150
NI      8.5326751820     0.7037631880     1.4255056150
NI      9.7516287790     2.8150527500     1.4255056150
NI     10.9705823760     4.9263423130     1.4255056150
NI     12.1895359740     7.0376318760     1.4255056150
NI     13.4084895710     9.1489214370     1.4255056150
NI     14.6274431680    11.2602110000     1.4255056150
NI     10.9705823750     0.7037631880     1.4255056150
NI     12.1895359720     2.8150527500     1.4255056150
NI     13.4084895700     4.9263423130     1.4255056150
NI     14.6274431670     7.0376318760     1.4255056150
NI     15.8463967640     9.1489214370     1.4255056150
NI     17.0653503620    11.2602110000     1.4255056150
NI     13.4084895710     0.7037631880     1.4255056150
NI     14.6274431670     2.8150527500     1.4255056150
NI     15.8463967650     4.9263423130     1.4255056150
NI     17.0653503620     7.0376318760     1.4255056150
NI     18.2843039590     9.1489214370     1.4255056150
NI     19.5032575570    11.2602110000     1.4255056150
NI      2.4503350399     1.4147015951     3.4520983940
NI      3.6445190839     3.5430820465     3.4440005511
NI      4.8426374238     5.6492602298     3.4294379652
NI      6.0675820655     7.7399502415     3.4440005511
NI      7.3137215840     9.8383341857     3.4520983940
NI      8.5524546129    11.9525545261     3.4562366192
NI      4.8906586014     1.3847050880     3.4440005511
NI      6.0885134707     3.5152048914     3.4558250949
NI      7.3137215840     5.6373275933     3.4558250949
NI      8.5598611015     7.7399502415     3.4440005511
NI      9.7959511687     9.8349790188     3.4266053000
NI     11.0080770754    11.9344426752     3.4266053000
NI      7.3137215830     1.3692169154     3.4294379652
NI      8.5389296963     3.5152048914     3.4558250949
NI      9.7848057422     5.6492602298     3.4294379652
NI     11.0219759182     7.7488336621     3.4046643035
NI     12.2350757412     9.8263922280     3.3923504016
NI     13.4277443248    11.9157467735     3.4046643035
NI      9.7367845656     1.3847050880     3.4440005511
NI     10.9829240831     3.5430820465     3.4440005511
NI     12.2216747593     5.6708943145     3.4046643035
NI     13.4350468889     7.7567279382     3.3696835635
NI     14.6274431670     9.8220188756     3.3696835635
NI     15.8271420082    11.9157467735     3.4046643035
NI     12.1771081271     1.4147015952     3.4520983940
NI     13.4153172602     3.5660530570     3.4266053000
NI     14.6274431670     5.6826902960     3.3923504016
NI     15.8198394461     7.7567279382     3.3696835635
NI     17.0198105928     9.8263922280     3.3923504016
NI     18.2468092586    11.9344426752     3.4266053000
NI     14.6274431670     1.4303656968     3.4562366192
NI     15.8395690748     3.5660530570     3.4266053000
NI     17.0332115737     5.6708943145     3.4046643035
NI     18.2329104148     7.7488336621     3.4046643035
NI     19.4589351663     9.8349790188     3.4266053000
NI     20.7024317201    11.9525545261     3.4562366192
AG     -0.0000000000    -0.0000000000     5.7386348320
AG      1.4590638783     2.4915975856     5.7606557767
AG      2.9619708935     5.0192009378     5.7858778548
AG      4.4479515115     7.5929948667     5.7858778548
AG      5.8854667176    10.1583521981     5.7606557767
AG      2.8873187438     0.0177875913     5.7606557767
AG      4.3870937488     2.5328897569     5.7658689369
AG      5.8739529778     5.0538299172     5.7448700068
AG      7.3137215840     7.6019578612     5.7658689369
AG      8.7419764494    10.1583521981     5.7606557767
AG      5.8277409660     0.0555415705     5.7858778548
AG      7.3137215840     2.5600775407     5.7448700068
AG      8.7534901892     5.0538299172     5.7448700068
AG     10.1794916555     7.5929948667     5.7858778548
AG     11.6389057794    10.1705911154     5.8028662572
AG      8.7997022010     0.0555415705     5.7858778548
AG     10.2403494182     2.5328897569     5.7658689369
AG     11.6654722735     5.0192009378     5.7858778548
AG     13.1253220884     7.5779082405     5.8276929937
AG     14.6274431670    10.1796582690     5.8276929937
AG     11.7401244232     0.0177875913     5.7606557767
AG     13.1683792897     2.4915975856     5.7606557767
AG     14.6274431670     4.9942925191     5.8028662572
AG     16.1295642466     7.5779082405     5.8276929937
AG     17.6159805556    10.1705911154     5.8028662572
AG      1.4515551828     0.8380557754     8.0855402916
AG      2.9175799131     3.3607672541     8.0847142461
AG      4.3959861301     5.9071344760     8.0760956283
AG      5.8620017226     8.4606554267     8.0847142461
AG      7.3137215840    10.9916258253     8.0855402916
AG      4.3692997745     0.8463146953     8.0847142461
AG      5.8483741492     3.3765603897     8.0657202996
AG      7.3137215840     5.9146165987     8.0657202996
AG      8.7654414454     8.4606554267     8.0847142461
AG     10.2152693477    10.9925279939     8.0962808375
AG      7.3137215840     0.8534684251     8.0760956283
AG      8.7790690198     3.3765603897     8.0657202996
AG     10.2314570389     5.9071344760     8.0760956283
AG     11.6823404094     8.4529210674     8.0914068325
AG     13.1481689916    10.9918106474     8.0914068325
AG     10.2581433935     0.8463146953     8.0847142461
AG     11.7098632549     3.3607672540     8.0847142461
AG     13.1616145858     5.8907430371     8.0914068325
AG     14.6274431670     8.4451582500     8.0884087039
AG     16.1067173434    10.9918106474     8.0914068325
AG     13.1758879852     0.8380557754     8.0855402916
AG     14.6274431680     3.3504187651     8.0962808375
AG     16.0932717502     5.8907430371     8.0914068325
AG     17.5725459256     8.4529210674     8.0914068325
AG     19.0396169883    10.9925279939     8.0962808375
122
Step 3 | ATOMIC_POSITIONS (angstrom) | Cartesian Angstrom
NI      1.2189535980     0.7037631880     1.4255056150
NI      2.4379071950     2.8150527500     1.4255056150
NI      3.6568607930     4.9263423130     1.4255056150
NI      4.8758143900     7.0376318760     1.4255056150
NI      6.0947679870     9.1489214370     1.4255056150
NI      7.3137215840    11.2602110000     1.4255056150
NI      3.6568607920     0.7037631880     1.4255056150
NI      4.8758143890     2.8150527500     1.4255056150
NI      6.0947679860     4.9263423130     1.4255056150
NI      7.3137215840     7.0376318760     1.4255056150
NI      8.5326751800     9.1489214370     1.4255056150
NI      9.7516287780    11.2602110000     1.4255056150
NI      6.0947679870     0.7037631880     1.4255056150
NI      7.3137215840     2.8150527500     1.4255056150
NI      8.5326751810     4.9263423130     1.4255056150
NI      9.7516287790     7.0376318760     1.4255056150
NI     10.9705823750     9.1489214370     1.4255056150
NI     12.1895359730    11.2602110000     1.4255056150
NI      8.5326751820     0.7037631880     1.4255056150
NI      9.7516287790     2.8150527500     1.4255056150
NI     10.9705823760     4.9263423130     1.4255056150
NI     12.1895359740     7.0376318760     1.4255056150
NI     13.4084895710     9.1489214370     1.4255056150
NI     14.6274431680    11.2602110000     1.4255056150
NI     10.9705823750     0.7037631880     1.4255056150
NI     12.1895359720     2.8150527500     1.4255056150
NI     13.4084895700     4.9263423130     1.4255056150
NI     14.6274431670     7.0376318760     1.4255056150
NI     15.8463967640     9.1489214370     1.4255056150
NI     17.0653503620    11.2602110000     1.4255056150
NI     13.4084895710     0.7037631880     1.4255056150
NI     14.6274431670     2.8150527500     1.4255056150
NI     15.8463967650     4.9263423130     1.4255056150
NI     17.0653503620     7.0376318760     1.4255056150
NI     18.2843039590     9.1489214370     1.4255056150
NI     19.5032575570    11.2602110000     1.4255056150
NI      2.4502404399     1.4146469778     3.4522070898
NI      3.6444595631     3.5433703476     3.4441921621
NI      4.8422744513     5.6494697921     3.4296018652
NI      6.0673026290     7.7398576375     3.4441921621
NI      7.3137215840     9.8384434203     3.4522070898
NI      8.5523418599    11.9526196241     3.4565012498
NI      4.8908785170     1.3845093909     3.4441921621
NI      6.0886950997     3.5153097549     3.4559479961
NI      7.3137215840     5.6371178662     3.4559479961
NI      8.5601405380     7.7398576375     3.4441921621
NI      9.7965252938     9.8348483262     3.4267610131
NI     11.0084773211    11.9340108146     3.4267610131
NI      7.3137215830     1.3687977909     3.4296018652
NI      8.5387480673     3.5153097549     3.4559479961
NI      9.7851687147     5.6494697920     3.4296018652
NI     11.0223993845     7.7489369599     3.4042387309
NI     12.2350205033     9.8264241196     3.3915811493
NI     13.4278665994    11.9153283920     3.4042387309
NI      9.7365646500     1.3845093909     3.4441921621
NI     10.9829836039     3.5433703476     3.4441921621
NI     12.2219759511     5.6712093981     3.4042387309
NI     13.4348618928     7.7566211307     3.3688702253
NI     14.6274431670     9.8222324907     3.3688702253
NI     15.8270197336    11.9153283920     3.4042387309
NI     12.1772027271     1.4146469778     3.4522070898
NI     13.4154911397     3.5666156102     3.4267610131
NI     14.6274431670     5.6826265128     3.3915811493
NI     15.8200244422     7.7566211307     3.3688702253
NI     17.0198658307     9.8264241196     3.3915811493
NI     18.2464090129    11.9340108146     3.4267610131
NI     14.6274431670     1.4302355008     3.4565012498
NI     15.8393951953     3.5666156102     3.4267610131
NI     17.0329103819     5.6712093981     3.4042387309
NI     18.2324869485     7.7489369599     3.4042387309
NI     19.4583610412     9.8348483262     3.4267610131
NI     20.7025444731    11.9526196241     3.4565012498
AG     -0.0000000000    -0.0000000000     5.7385155889
AG      1.4590613982     2.4917002833     5.7608302902
AG      2.9619760964     5.0192303589     5.7864033717
AG      4.4479286335     7.5929756503     5.7864033717
AG      5.8853765387    10.1583029971     5.7608302902
AG      2.8874064425     0.0177340946     5.7608302902
AG      4.3869989373     2.5328350174     5.7658949774
AG      5.8737340977     5.0539562877     5.7447779022
AG      7.3137215840     7.6020673402     5.7658949774
AG      8.7420666283    10.1583029972     5.7608302902
AG      5.8277690468     0.0555313658     5.7864033717
AG      7.3137215840     2.5598247996     5.7447779022
AG      8.7537090693     5.0539562877     5.7447779022
AG     10.1795145335     7.5929756503     5.7864033717
AG     11.6391589416    10.1704449522     5.8036727603
AG      8.7996741202     0.0555313658     5.7864033717
AG     10.2404442297     2.5328350174     5.7658949774
AG     11.6654670706     5.0192303589     5.7864033717
AG     13.1255311780     7.5780289585     5.8283619366
AG     14.6274431670    10.1794168331     5.8283619366
AG     11.7400367245     0.0177340946     5.7608302902
AG     13.1683817698     2.4917002833     5.7608302902
AG     14.6274431670     4.9945848456     5.8036727603
AG     16.1293551570     7.5780289585     5.8283619366
AG     17.6157273934    10.1704449522     5.8036727603
AG      1.4518514318     0.8382268148     8.0853185995
AG      2.9176955741     3.3613189691     8.0846934494
AG      4.3958111676     5.9072354906     8.0761040536
AG      5.8615817539     8.4602794038     8.0846934494
AG      7.3137215840    10.9912837464     8.0853185995
AG      4.3698354043     0.8461390031     8.0846934494
AG      5.8486521517     3.3767208945     8.0659334289
AG      7.3137215840     5.9142955891     8.0659334289
AG      8.7658614141     8.4602794038     8.0846934494
AG     10.2160540882    10.9920749238     8.0958606379
AG      7.3137215840     0.8532663958     8.0761040536
AG      8.7787910173     3.3767208945     8.0659334289
AG     10.2316320014     5.9072354906     8.0761040536
AG     11.6829024905     8.4525628242     8.0914893762
AG     13.1487602798    10.9915029926     8.0914893762
AG     10.2576077637     0.8461390031     8.0846934494
AG     11.7097475939     3.3613189691     8.0846934494
AG     13.1615853786     5.8914089352     8.0914893762
AG     14.6274431670     8.4451582500     8.0889108772
AG     16.1061260552    10.9915029926     8.0914893762
AG     13.1755917362     0.8382268148     8.0853185995
AG     14.6274431680     3.3513249055     8.0958606379
AG     16.0933009574     5.8914089352     8.0914893762
AG     17.5719838445     8.4525628242     8.0914893762
AG     19.0388322478    10.9920749238     8.0958606379
122
Step 4 | ATOMIC_POSITIONS (angstrom) | Cartesian Angstrom
NI      1.2189535980     0.7037631880     1.4255056150
NI      2.4379071950     2.8150527500     1.4255056150
NI      3.6568607930     4.9263423130     1.4255056150
NI      4.8758143900     7.0376318760     1.4255056150
NI      6.0947679870     9.1489214370     1.4255056150
NI      7.3137215840    11.2602110000     1.4255056150
NI      3.6568607920     0.7037631880     1.4255056150
NI      4.8758143890     2.8150527500     1.4255056150
NI      6.0947679860     4.9263423130     1.4255056150
NI      7.3137215840     7.0376318760     1.4255056150
NI      8.5326751800     9.1489214370     1.4255056150
NI      9.7516287780    11.2602110000     1.4255056150
NI      6.0947679870     0.7037631880     1.4255056150
NI      7.3137215840     2.8150527500     1.4255056150
NI      8.5326751810     4.9263423130     1.4255056150
NI      9.7516287790     7.0376318760     1.4255056150
NI     10.9705823750     9.1489214370     1.4255056150
NI     12.1895359730    11.2602110000     1.4255056150
NI      8.5326751820     0.7037631880     1.4255056150
NI      9.7516287790     2.8150527500     1.4255056150
NI     10.9705823760     4.9263423130     1.4255056150
NI     12.1895359740     7.0376318760     1.4255056150
NI     13.4084895710     9.1489214370     1.4255056150
NI     14.6274431680    11.2602110000     1.4255056150
NI     10.9705823750     0.7037631880     1.4255056150
NI     12.1895359720     2.8150527500     1.4255056150
NI     13.4084895700     4.9263423130     1.4255056150
NI     14.6274431670     7.0376318760     1.4255056150
NI     15.8463967640     9.1489214370     1.4255056150
NI     17.0653503620    11.2602110000     1.4255056150
NI     13.4084895710     0.7037631880     1.4255056150
NI     14.6274431670     2.8150527500     1.4255056150
NI     15.8463967650     4.9263423130     1.4255056150
NI     17.0653503620     7.0376318760     1.4255056150
NI     18.2843039590     9.1489214370     1.4255056150
NI     19.5032575570    11.2602110000     1.4255056150
NI      2.4502180848     1.4146340711     3.4522853623
NI      3.6444201743     3.5435413188     3.4443256351
NI      4.8420312247     5.6496102190     3.4297094901
NI      6.0671348692     7.7398062636     3.4443256351
NI      7.3137215840     9.8384692338     3.4522853623
NI      8.5523379957    11.9526218551     3.4566707896
NI      4.8910068880     1.3843897936     3.4443256351
NI      6.0887745973     3.5153556528     3.4560193956
NI      7.3137215840     5.6370260703     3.4560193956
NI      8.5603082978     7.7398062636     3.4443256351
NI      9.7968333320     9.8347639643     3.4269104092
NI     11.0087043998    11.9337862266     3.4269104092
NI      7.3137215830     1.3685169370     3.4297094901
NI      8.5386685697     3.5153556528     3.4560193956
NI      9.7854119413     5.6496102190     3.4297094901
NI     11.0226031077     7.7489862616     3.4041051650
NI     12.2349909998     9.8264411535     3.3912860042
NI     13.4279257645    11.9151273116     3.4041051650
NI      9.7364362790     1.3843897936     3.4443256351
NI     10.9830229927     3.5435413188     3.4443256351
NI     12.2221205092     5.6713611767     3.4041051650
NI     13.4348152969     7.7565942285     3.3685875092
NI     14.6274431670     9.8222862950     3.3685875092
NI     15.8269605685    11.9151273116     3.4041051650
NI     12.1772250822     1.4146340711     3.4522853623
NI     13.4155720992     3.5669245601     3.4269104092
NI     14.6274431670     5.6825924451     3.3912860042
NI     15.8200710381     7.7565942285     3.3685875092
NI     17.0198953342     9.8264411535     3.3912860042
NI     18.2461819342    11.9337862266     3.4269104092
NI     14.6274431670     1.4302310389     3.4566707896
NI     15.8393142358     3.5669245601     3.4269104092
NI     17.0327658238     5.6713611768     3.4041051650
NI     18.2322832253     7.7489862616     3.4041051650
NI     19.4580530030     9.8347639643     3.4269104092
NI     20.7025483373    11.9526218551     3.4566707896
AG     -0.0000000000    -0.0000000000     5.7384944126
AG      1.4590594749     2.4917918998     5.7609314346
AG      2.9619334051     5.0193009458     5.7866541495
AG      4.4478461578     7.5929773287     5.7866541495
AG      5.8852962348    10.1582588545     5.7609314346
AG      2.8874848231     0.0176866207     5.7609314346
AG      4.3869347399     2.5327979531     5.7659323992
AG      5.8735972637     5.0540352888     5.7447306659
AG      7.3137215840     7.6021414689     5.7659323992
AG      8.7421469322    10.1582588545     5.7609314346
AG      5.8278088312     0.0554591005     5.7866541495
AG      7.3137215840     2.5596667973     5.7447306659
AG      8.7538459033     5.0540352888     5.7447306659
AG     10.1795970092     7.5929773287     5.7866541495
AG     11.6394385622    10.1702835132     5.8040526340
AG      8.7996343358     0.0554591005     5.7866541495
AG     10.2405084271     2.5327979531     5.7659323992
AG     11.6655097619     5.0193009458     5.7866541495
AG     13.1257400000     7.5781495219     5.8285798143
AG     14.6274431670    10.1791757062     5.8285798143
AG     11.7399583439     0.0176866207     5.7609314346
AG     13.1683836931     2.4917918998     5.7609314346
AG     14.6274431670     4.9949077237     5.8040526340
AG     16.1291463350     7.5781495219     5.8285798143
AG     17.6154477728    10.1702835132     5.8040526340
AG      1.4520710155     0.8383535915     8.0851466528
AG      2.9178017704     3.3617165085     8.0847066629
AG      4.3957027066     5.9072981106     8.0761590187
AG      5.8612905728     8.4599886654     8.0847066629
AG      7.3137215840    10.9910301930     8.0851466528
AG      4.3702327816     0.8460322021     8.0847066629
AG      5.8488567546     3.3768390220     8.0660801805
AG      7.3137215840     5.9140593339     8.0660801805
AG      8.7661525952     8.4599886654     8.0847066629
AG     10.2166284727    10.9917433027     8.0955867605
AG      7.3137215840     0.8531411558     8.0761590187
AG      8.7785864144     3.3768390220     8.0660801805
AG     10.2317404624     5.9072981106     8.0761590187
AG     11.6833305433     8.4522860540     8.0916316894
AG     13.1492139963    10.9912706730     8.0916316894
AG     10.2572103864     0.8460322021     8.0847066629
AG     11.7096413976     3.3617165085     8.0847066629
AG     13.1615597150     5.8919180250     8.0916316894
AG     14.6274431670     8.4451582500     8.0893899856
AG     16.1056723387    10.9912706730     8.0916316894
AG     13.1753721525     0.8383535915     8.0851466528
AG     14.6274431680     3.3519881475     8.0955867605
AG     16.0933266210     5.8919180250     8.0916316894
AG     17.5715557917     8.4522860540     8.0916316894
AG     19.0382578633    10.9917433027     8.0955867605
122
Step 5 | ATOMIC_POSITIONS (angstrom) | Cartesian Angstrom
NI      1.2189535980     0.7037631880     1.4255056150
NI      2.4379071950     2.8150527500     1.4255056150
NI      3.6568607930     4.9263423130     1.4255056150
NI      4.8758143900     7.0376318760     1.4255056150
NI      6.0947679870     9.1489214370     1.4255056150
NI      7.3137215840    11.2602110000     1.4255056150
NI      3.6568607920     0.7037631880     1.4255056150
NI      4.8758143890     2.8150527500     1.4255056150
NI      6.0947679860     4.9263423130     1.4255056150
NI      7.3137215840     7.0376318760     1.4255056150
NI      8.5326751800     9.1489214370     1.4255056150
NI      9.7516287780    11.2602110000     1.4255056150
NI      6.0947679870     0.7037631880     1.4255056150
NI      7.3137215840     2.8150527500     1.4255056150
NI      8.5326751810     4.9263423130     1.4255056150
NI      9.7516287790     7.0376318760     1.4255056150
NI     10.9705823750     9.1489214370     1.4255056150
NI     12.1895359730    11.2602110000     1.4255056150
NI      8.5326751820     0.7037631880     1.4255056150
NI      9.7516287790     2.8150527500     1.4255056150
NI     10.9705823760     4.9263423130     1.4255056150
NI     12.1895359740     7.0376318760     1.4255056150
NI     13.4084895710     9.1489214370     1.4255056150
NI     14.6274431680    11.2602110000     1.4255056150
NI     10.9705823750     0.7037631880     1.4255056150
NI     12.1895359720     2.8150527500     1.4255056150
NI     13.4084895700     4.9263423130     1.4255056150
NI     14.6274431670     7.0376318760     1.4255056150
NI     15.8463967640     9.1489214370     1.4255056150
NI     17.0653503620    11.2602110000     1.4255056150
NI     13.4084895710     0.7037631880     1.4255056150
NI     14.6274431670     2.8150527500     1.4255056150
NI     15.8463967650     4.9263423130     1.4255056150
NI     17.0653503620     7.0376318760     1.4255056150
NI     18.2843039590     9.1489214370     1.4255056150
NI     19.5032575570    11.2602110000     1.4255056150
NI      2.4502331249     1.4146427545     3.4523918464
NI      3.6443637263     3.5437309563     3.4445113503
NI      4.8417112142     5.6497949771     3.4298532578
NI      6.0669424143     7.7397603302     3.4445113503
NI      7.3137215840     9.8384518670     3.4523918464
NI      8.5524056921    11.9525827705     3.4568816319
NI      4.8911428950     1.3842460894     3.4445113503
NI      6.0888240569     3.5153842083     3.4560999487
NI      7.3137215840     5.6369689593     3.4560999487
NI      8.5605007527     7.7397603302     3.4445113503
NI      9.7971486562     9.8346612784     3.4271603972
NI     11.0089509905    11.9335644908     3.4271603972
NI      7.3137215830     1.3681474207     3.4298532578
NI      8.5386191101     3.5153842083     3.4560999487
NI      9.7857319518     5.6497949771     3.4298532578