80
Step 1 | ATOMIC_POSITIONS (angstrom) | Cartesian Angstrom
Ni      1.2286497520     0.7093615510    11.2500000000
Ni      2.4572990100     2.8374462050    11.2500000000
Ni      3.6859482670     4.9655308580    11.2500000000
Ni      4.9145975240     7.0936155120    11.2500000000
Ni      3.6859497520     0.7093615510    11.2500000000
Ni      4.9145990100     2.8374462050    11.2500000000
Ni      6.1432482670     4.9655308580    11.2500000000
Ni      7.3718975240     7.0936155120    11.2500000000
Ni      6.1432497520     0.7093615510    11.2500000000
Ni      7.3718990100     2.8374462050    11.2500000000
Ni      8.6005482670     4.9655308580    11.2500000000
Ni      9.8291975240     7.0936155120    11.2500000000
Ni      8.6005497520     0.7093615510    11.2500000000
Ni      9.8291990100     2.8374462050    11.2500000000
Ni     11.0578482670     4.9655308580    11.2500000000
Ni     12.2864975240     7.0936155120    11.2500000000
Ni      4.9099156437     8.5053429943    13.3011714153
Ni     11.0531329444     2.1206495289    13.3008022987
Ni     12.2817169742     4.2489790338    13.3006009374
Ni     13.5101985337     6.3773433495    13.3009431249
Ni      7.3672568657     8.5047181049    13.3011773704
Ni      3.6813642393     2.1207834059    13.3007249916
Ni      4.9098915811     4.2493198243    13.3009122649
Ni      6.1382079689     6.3774560515    13.3011135672
Ni      9.8241033231     8.5046823230    13.3010832757
Ni      6.1383369811     2.1207818053    13.3007715317
Ni      7.3668809572     4.2490234566    13.3008058444
Ni      8.5953896190     6.3767159329    13.3009510356
Ni     12.2816608155     8.5051500050    13.3006064561
Ni      8.5958456854     2.1206091639    13.3010363913
Ni      9.8244550653     4.2487038258    13.3007275536
Ni     11.0528529681     6.3769409810    13.3006612510
Cu      2.4478273934     1.4024593494    15.3768195279
Cu      3.6763308064     3.5307008763    15.3768060769
Cu      4.9041378635     5.6597275327    15.3773446705
Cu      6.1330260753     7.7878909917    15.3784795762
Cu      4.9046987935     1.4026027494    15.3777978376
Cu      6.1325026874     3.5313494179    15.3777258642
Cu      7.3610720821     5.6598451508    15.3779275454
Cu      8.5906751573     7.7868955285    15.3785352684
Cu      7.3621786350     1.4037478132    15.3762149869
Cu      8.5904727219     3.5321453649    15.3780682333
Cu      9.8190628607     5.6596863340    15.3769316566
Cu     11.0487962789     7.7874997913    15.3777155251
Cu      9.8196454140     1.4041813301    15.3774701118
Cu     11.0479045226     3.5315147301    15.3771972946
Cu     12.2765483612     5.6595853029    15.3771297580
Cu     13.5054403737     7.7883030906    15.3772812510
Cu      1.2140125069     0.6836802978    17.5697066843
Cu      2.4431554841     2.8116125733    17.5665701774
Cu      3.6705110992     4.9384343223    17.5687388932
Cu      4.8988742137     7.0688538724    17.5715927895
Cu      3.6716454968     0.6829118358    17.5713988441
Cu      4.8981418591     2.8112416660    17.5722076345
Cu      6.1274353446     4.9410331950    17.5708266735
Cu      7.3554752239     7.0698227976    17.5713298575
Cu      6.1297077273     0.6833063413    17.5689100863
Cu      7.3567237634     2.8135682210    17.5698798542
Cu      8.5851063566     4.9421568871    17.5702369002
Cu      9.8152975501     7.0699596346    17.5700617894
Cu      8.5865082002     0.6855772246    17.5667967617
Cu      9.8144914731     2.8135456226    17.5749497456
Cu     11.0427692105     4.9416447890    17.5690865385
Cu     12.2728600097     7.0692517504    17.5719745895
O       9.1088643357     3.7174777318    21.7816242401
O       8.5991043420     4.9997993767    19.4786080369
O       9.0223537882     5.3454913713    24.2240632952
C       8.7364029968     5.0975272895    21.8614364884
C       9.0387484890     5.8070106173    20.5337362792
C       9.4284029732     5.8635020967    22.9656106120
H       7.6437304867     5.0632107542    22.0914369098
H      10.1474731012     6.0004625732    20.4614184943
H       8.5401911898     6.7944192704    20.4727514929
H       9.1697630482     6.9379014629    22.8600915908
H      10.5265790213     5.7775768916    22.8179394042
H      10.0820935761     3.6624071960    21.7917360528
H       6.1829998208     3.4651779934    19.6911033550
H       9.4735237876     5.8369674423    24.9244594914
O       6.1648924128     2.7726905147    19.0754116575
H       6.1616804584     1.8983390653    19.4766322796
80
Step 2 | ATOMIC_POSITIONS (angstrom) | Cartesian Angstrom
Ni      1.2286497520     0.7093615510    11.2500000000
Ni      2.4572990100     2.8374462050    11.2500000000
Ni      3.6859482670     4.9655308580    11.2500000000
Ni      4.9145975240     7.0936155120    11.2500000000
Ni      3.6859497520     0.7093615510    11.2500000000
Ni      4.9145990100     2.8374462050    11.2500000000
Ni      6.1432482670     4.9655308580    11.2500000000
Ni      7.3718975240     7.0936155120    11.2500000000
Ni      6.1432497520     0.7093615510    11.2500000000
Ni      7.3718990100     2.8374462050    11.2500000000
Ni      8.6005482670     4.9655308580    11.2500000000
Ni      9.8291975240     7.0936155120    11.2500000000
Ni      8.6005497520     0.7093615510    11.2500000000
Ni      9.8291990100     2.8374462050    11.2500000000
Ni     11.0578482670     4.9655308580    11.2500000000
Ni     12.2864975240     7.0936155120    11.2500000000
Ni      4.9099156437     8.5053429943    13.3011714153
Ni     11.0531329444     2.1206495289    13.3008022987
Ni     12.2817169742     4.2489790338    13.3006009374
Ni     13.5101985337     6.3773433495    13.3009431249
Ni      7.3672568657     8.5047181049    13.3011773704
Ni      3.6813642393     2.1207834059    13.3007249916
Ni      4.9098915811     4.2493198243    13.3009122649
Ni      6.1382079689     6.3774560515    13.3011135672
Ni      9.8241033231     8.5046823230    13.3010832757
Ni      6.1383369811     2.1207818053    13.3007715317
Ni      7.3668809572     4.2490234566    13.3008058444
Ni      8.5953896190     6.3767159329    13.3009510356
Ni     12.2816608155     8.5051500050    13.3006064561
Ni      8.5958456854     2.1206091639    13.3010363913
Ni      9.8244550653     4.2487038258    13.3007275536
Ni     11.0528529681     6.3769409810    13.3006612510
Cu      2.4478273934     1.4024593494    15.3768195279
Cu      3.6763308064     3.5307008763    15.3768060769
Cu      4.9041378635     5.6597275327    15.3773446705
Cu      6.1330260753     7.7878909917    15.3784795762
Cu      4.9046987935     1.4026027494    15.3777978376
Cu      6.1325026874     3.5313494179    15.3777258642
Cu      7.3610720821     5.6598451508    15.3779275454
Cu      8.5906751573     7.7868955285    15.3785352684
Cu      7.3621786350     1.4037478132    15.3762149869
Cu      8.5904727219     3.5321453649    15.3780682333
Cu      9.8190628607     5.6596863340    15.3769316566
Cu     11.0487962789     7.7874997913    15.3777155251
Cu      9.8196454140     1.4041813301    15.3774701118
Cu     11.0479045226     3.5315147301    15.3771972946
Cu     12.2765483612     5.6595853029    15.3771297580
Cu     13.5054403737     7.7883030906    15.3772812510
Cu      1.2140125069     0.6836802978    17.5697066843
Cu      2.4431554841     2.8116125733    17.5665701774
Cu      3.6705110992     4.9384343223    17.5687388932
Cu      4.8988742137     7.0688538724    17.5715927895
Cu      3.6716454968     0.6829118358    17.5713988441
Cu      4.8981418591     2.8112416660    17.5722076345
Cu      6.1274353446     4.9410331950    17.5708266735
Cu      7.3554752239     7.0698227976    17.5713298575
Cu      6.1297077273     0.6833063413    17.5689100863
Cu      7.3567237634     2.8135682210    17.5698798542
Cu      8.5851063566     4.9421568871    17.5702369002
Cu      9.8152975501     7.0699596346    17.5700617894
Cu      8.5865082002     0.6855772246    17.5667967617
Cu      9.8144914731     2.8135456226    17.5749497456
Cu     11.0427692105     4.9416447890    17.5690865385
Cu     12.2728600097     7.0692517504    17.5719745895
O       9.1100076214     3.7204577628    21.7966400037
O       8.5933025229     5.0004125326    19.4695010955
O       9.0201991755     5.3433030988    24.2312958940
C       8.7456888260     5.0954916336    21.8596531911
C       9.0209336832     5.7892373467    20.4975475389
C       9.4303111623     5.8626265887    22.9747622347
H       7.6548404764     5.0704368862    22.0783234580
H      10.1377657713     5.9982223267    20.4643089284
H       8.5428729735     6.8025217114    20.4839879624
H       9.1699960424     6.9363416097    22.8615065281
H      10.5253822840     5.7765179126    22.8201071196
H      10.0786885797     3.6629330522    21.7886277181
H       6.1927531175     3.5405422174    19.7611712781
H       9.4754020409     5.8390611196    24.9284658289
O       6.1540814247     2.7500376237    19.1747073110
H       6.1641035579     1.8494715450    19.5114857494
80
Step 3 | ATOMIC_POSITIONS (angstrom) | Cartesian Angstrom
Ni      1.2286497520     0.7093615510    11.2500000000
Ni      2.4572990100     2.8374462050    11.2500000000
Ni      3.6859482670     4.9655308580    11.2500000000
Ni      4.9145975240     7.0936155120    11.2500000000
Ni      3.6859497520     0.7093615510    11.2500000000
Ni      4.9145990100     2.8374462050    11.2500000000
Ni      6.1432482670     4.9655308580    11.2500000000
Ni      7.3718975240     7.0936155120    11.2500000000
Ni      6.1432497520     0.7093615510    11.2500000000
Ni      7.3718990100     2.8374462050    11.2500000000
Ni      8.6005482670     4.9655308580    11.2500000000
Ni      9.8291975240     7.0936155120    11.2500000000
Ni      8.6005497520     0.7093615510    11.2500000000
Ni      9.8291990100     2.8374462050    11.2500000000
Ni     11.0578482670     4.9655308580    11.2500000000
Ni     12.2864975240     7.0936155120    11.2500000000
Ni      4.9099156437     8.5053429943    13.3011714153
Ni     11.0531329444     2.1206495289    13.3008022987
Ni     12.2817169742     4.2489790338    13.3006009374
Ni     13.5101985337     6.3773433495    13.3009431249
Ni      7.3672568657     8.5047181049    13.3011773704
Ni      3.6813642393     2.1207834059    13.3007249916
Ni      4.9098915811     4.2493198243    13.3009122649
Ni      6.1382079689     6.3774560515    13.3011135672
Ni      9.8241033231     8.5046823230    13.3010832757
Ni      6.1383369811     2.1207818053    13.3007715317
Ni      7.3668809572     4.2490234566    13.3008058444
Ni      8.5953896190     6.3767159329    13.3009510356
Ni     12.2816608155     8.5051500050    13.3006064561
Ni      8.5958456854     2.1206091639    13.3010363913
Ni      9.8244550653     4.2487038258    13.3007275536
Ni     11.0528529681     6.3769409810    13.3006612510
Cu      2.4478273934     1.4024593494    15.3768195279
Cu      3.6763308064     3.5307008763    15.3768060769
Cu      4.9041378635     5.6597275327    15.3773446705
Cu      6.1330260753     7.7878909917    15.3784795762
Cu      4.9046987935     1.4026027494    15.3777978376
Cu      6.1325026874     3.5313494179    15.3777258642
Cu      7.3610720821     5.6598451508    15.3779275454
Cu      8.5906751573     7.7868955285    15.3785352684
Cu      7.3621786350     1.4037478132    15.3762149869
Cu      8.5904727219     3.5321453649    15.3780682333
Cu      9.8190628607     5.6596863340    15.3769316566
Cu     11.0487962789     7.7874997913    15.3777155251
Cu      9.8196454140     1.4041813301    15.3774701118
Cu     11.0479045226     3.5315147301    15.3771972946
Cu     12.2765483612     5.6595853029    15.3771297580
Cu     13.5054403737     7.7883030906    15.3772812510
Cu      1.2140125069     0.6836802978    17.5697066843
Cu      2.4431554841     2.8116125733    17.5665701774
Cu      3.6705110992     4.9384343223    17.5687388932
Cu      4.8988742137     7.0688538724    17.5715927895
Cu      3.6716454968     0.6829118358    17.5713988441
Cu      4.8981418591     2.8112416660    17.5722076345
Cu      6.1274353446     4.9410331950    17.5708266735
Cu      7.3554752239     7.0698227976    17.5713298575
Cu      6.1297077273     0.6833063413    17.5689100863
Cu      7.3567237634     2.8135682210    17.5698798542
Cu      8.5851063566     4.9421568871    17.5702369002
Cu      9.8152975501     7.0699596346    17.5700617894
Cu      8.5865082002     0.6855772246    17.5667967617
Cu      9.8144914731     2.8135456226    17.5749497456
Cu     11.0427692105     4.9416447890    17.5690865385
Cu     12.2728600097     7.0692517504    17.5719745895
O       9.1099445594     3.7189217812    21.8137221633
O       8.5768122032     4.9873068527    19.4431572873
O       9.0180547606     5.3410814119    24.2393697523
C       8.7417814051     5.0965841151    21.8529857104
C       9.0233737453     5.7957326217    20.4956352584
C       9.4334081110     5.8649878925    22.9740929058
H       7.6687580347     5.0781318424    22.0642956318
H      10.1193022605     5.9929516813    20.4617144901
H       8.5463029924     6.8030221770    20.4932839490
H       9.1705213256     6.9332019348    22.8645439523
H      10.5253897443     5.7754622844    22.8250754241
H      10.0802094392     3.6621676968    21.7846747167
H       6.2044883891     3.5798542990    19.8231528905
H       9.4771448952     5.8409868922    24.9335448387
O       6.1435890324     2.7737183477    19.2712330690
H       6.1682927017     1.7920446228    19.5700004533
