80
Step 1 | ATOMIC_POSITIONS (angstrom) | Cartesian Angstrom
Ni      1.2286497520     0.7093615510    11.2500000000
Ni      2.4572990100     2.8374462050    11.2500000000
Ni      3.6859482670     4.9655308580    11.2500000000
Ni      4.9145975240     7.0936155120    11.2500000000
Ni      3.6859497520     0.7093615510    11.2500000000
Ni      4.9145990100     2.8374462050    11.2500000000
Ni      6.1432482670     4.9655308580    11.2500000000
Ni      7.3718975240     7.0936155120    11.2500000000
Ni      6.1432497520     0.7093615510    11.2500000000
Ni      7.3718990100     2.8374462050    11.2500000000
Ni      8.6005482670     4.9655308580    11.2500000000
Ni      9.8291975240     7.0936155120    11.2500000000
Ni      8.6005497520     0.7093615510    11.2500000000
Ni      9.8291990100     2.8374462050    11.2500000000
Ni     11.0578482670     4.9655308580    11.2500000000
Ni     12.2864975240     7.0936155120    11.2500000000
Ni      4.9109552666     8.5021645841    13.3029933795
Ni     11.0474754738     2.1232650830    13.2962372401
Ni     12.2741295701     4.2545262435    13.2927687372
Ni     13.5051460539     6.3718907124    13.2973490691
Ni      7.3608386862     8.5070814923    13.3123624457
Ni      3.6735599044     2.1195942148    13.2926665972
Ni      4.9104792169     4.2487505410    13.2930010364
Ni      6.1386777805     6.3785447509    13.3128373609
Ni      9.8147742376     8.5081370631    13.3037183191
Ni      6.1314416923     2.1211242290    13.2957799356
Ni      7.3646680631     4.2594568534    13.3140144926
Ni      8.5849944350     6.3865310421    13.3208885258
Ni     12.2722680204     8.5052334649    13.3052307161
Ni      8.5907088556     2.1318077000    13.2961480372
Ni      9.8200268866     4.2577102786    13.3005394069
Ni     11.0434313469     6.3835769638    13.2977842398
Cu      2.4353723094     1.4091014009    15.3688480051
Cu      3.6699026819     3.5333231622    15.3574170156
Cu      4.9044650684     5.6510465629    15.3696526866
Cu      6.1440067543     7.7796293998    15.4100680736
Cu      4.8981538238     1.4091560634    15.3620625296
Cu      6.1346647570     3.5356865297    15.3661734524
Cu      7.3737953569     5.6721072342    15.4387597950
Cu      8.5763522774     7.7883822353    15.3978905769
Cu      7.3607302622     1.4024283036    15.3599149516
Cu      8.5917409430     3.5510108397    15.3857534273
Cu      9.8114167666     5.6654208371    15.3759685566
Cu     11.0364527019     7.7863058431    15.3842349330
Cu      9.8095072342     1.3954527897    15.3622507354
Cu     11.0374150194     3.5319930308    15.3598066088
Cu     12.2701339700     5.6585454606    15.3730767083
Cu     13.5042236927     7.7842340588    15.3567713746
Cu      1.1947007554     0.6890201691    17.5759044624
Cu      2.3659088269     2.8718299920    17.4494715258
Cu      3.6793244370     4.9383557424    17.5858085657
Cu      4.8872316756     7.0682722984    17.5275268779
Cu      3.6688830629     0.6900926699    17.5061953752
Cu      4.9501037885     2.8613611930    17.4688807775
Cu      6.1345245565     4.9236711479    17.5383489619
Cu      7.2921601296     7.0925794813    17.7468557561
Cu      6.1446915995     0.6944807782    17.5543814993
Cu      7.3612894411     2.8073883135    17.5125917721
Cu      8.5993021628     4.7613662439    18.1999816447
Cu      9.8589880384     7.0803717782    17.5106484943
Cu      8.5798913274     0.6796325546    17.5491887288
Cu      9.8018794898     2.7975801523    17.5076117728
Cu     11.0488017552     4.9143987867    17.5205724421
Cu     12.2842245330     7.0622754408    17.5424813690
O       9.1765857537     4.3805127561    20.7414889977
O       8.7167066284     6.5365895094    19.0803855640
O       8.6256354518     4.5473564033    23.4561546996
C       8.5505435466     5.5530566828    21.2860708940
C       9.0240240751     6.7397050155    20.4631103793
C       8.9240302796     5.7589750421    22.7454805726
H       7.4534833891     5.4546607651    21.1968642402
H      10.1172715372     6.8382258731    20.5632602828
H       8.5488653657     7.6725655436    20.8137803055
H       8.3339100120     6.6000747396    23.1522082179
H       9.9988451994     5.9960035889    22.8188065958
H       9.0151169636     3.6478914619    21.3633218159
H       2.9351433780     2.2753464160    18.7474361869
H       9.1753445476     4.5292729143    24.2524270847
O       3.6690931372     2.0883671443    19.4124646512
H       4.4823797317     2.1578696371    18.7783146692
80
Step 2 | ATOMIC_POSITIONS (angstrom) | Cartesian Angstrom
Ni      1.2286497520     0.7093615510    11.2500000000
Ni      2.4572990100     2.8374462050    11.2500000000
Ni      3.6859482670     4.9655308580    11.2500000000
Ni      4.9145975240     7.0936155120    11.2500000000
Ni      3.6859497520     0.7093615510    11.2500000000
Ni      4.9145990100     2.8374462050    11.2500000000
Ni      6.1432482670     4.9655308580    11.2500000000
Ni      7.3718975240     7.0936155120    11.2500000000
Ni      6.1432497520     0.7093615510    11.2500000000
Ni      7.3718990100     2.8374462050    11.2500000000
Ni      8.6005482670     4.9655308580    11.2500000000
Ni      9.8291975240     7.0936155120    11.2500000000
Ni      8.6005497520     0.7093615510    11.2500000000
Ni      9.8291990100     2.8374462050    11.2500000000
Ni     11.0578482670     4.9655308580    11.2500000000
Ni     12.2864975240     7.0936155120    11.2500000000
Ni      4.9114022186     8.5025514598    13.3029186317
Ni     11.0475887943     2.1233826917    13.2955408902
Ni     12.2742409968     4.2539713394    13.2932306904
Ni     13.5054352787     6.3725733655    13.2968259228
Ni      7.3602184622     8.5065539549    13.3112027997
Ni      3.6737546939     2.1200834695    13.2920429693
Ni      4.9102480250     4.2493388463    13.2929932512
Ni      6.1380268002     6.3791098810    13.3127383847
Ni      9.8158527371     8.5075519448    13.3025284873
Ni      6.1321760095     2.1220159971    13.2955835256
Ni      7.3650739876     4.2590667586    13.3141745349
Ni      8.5854515776     6.3848166521    13.3203193804
Ni     12.2721082266     8.5050607295    13.3042311692
Ni      8.5910631635     2.1303467321    13.2954568461
Ni      9.8190219281     4.2568716113    13.3010609100
Ni     11.0455007325     6.3837154126    13.2970544523
Cu      2.4360715021     1.4074151616    15.3673637560
Cu      3.6706295074     3.5350633219    15.3537111809
Cu      4.9045124210     5.6526374471    15.3703145353
Cu      6.1439614180     7.7796114726    15.4119093850
Cu      4.8988055027     1.4078987528    15.3619680127
Cu      6.1374764610     3.5372213520    15.3586417681
Cu      7.3747599412     5.6703526275    15.4374923447
Cu      8.5778959079     7.7888241707    15.3977263759
Cu      7.3608266501     1.4028409837    15.3599529613
Cu      8.5904266180     3.5514502243    15.3873590255
Cu      9.8101641948     5.6642773222    15.3766540732
Cu     11.0353718869     7.7863834646    15.3855713277
Cu      9.8099083035     1.3963291041    15.3621802944
Cu     11.0344377777     3.5343433399    15.3503689870
Cu     12.2712342650     5.6590239138    15.3726377852
Cu     13.5040939955     7.7838154444    15.3576625565
Cu      1.1917174826     0.6887385445    17.5720794105
Cu      2.3408837972     2.8931741970    17.3708174303
Cu      3.6776748298     4.9440303475    17.5855067328
Cu      4.8889676212     7.0683002195    17.5274201802
Cu      3.6669945147     0.6775462704    17.4890388733
Cu      4.9745236398     2.8875592095    17.3972375040
Cu      6.1397769302     4.9306644335    17.5396100994
Cu      7.2909581961     7.0912183211    17.7445469755
Cu      6.1471630450     0.6930480467    17.5510899792
Cu      7.3671263870     2.8084710543    17.5139251055
Cu      8.5988666241     4.7626059116    18.2014215688
Cu      9.8611819190     7.0791113461    17.5124414443
Cu      8.5801721540     0.6785265609    17.5486449244
Cu      9.7956186145     2.7968845017    17.5083811834
Cu     11.0422681588     4.9254561542    17.5219879739
Cu     12.2844451265     7.0638483902    17.5419020790
O       9.1784662990     4.3871341824    20.7403385497
O       8.7136709509     6.5357445107    19.0794807278
O       8.6237602553     4.5461154232    23.4530671652
C       8.5505188794     5.5539455191    21.2866516360
C       9.0228051812     6.7400896671    20.4643716377
C       8.9235380298     5.7587586002    22.7471345413
H       7.4523343432     5.4550315182    21.1964885922
H      10.1169585820     6.8387074610    20.5625289207
H       8.5495309956     7.6701467297    20.8112462985
H       8.3365137520     6.6007466489    23.1521119680
H       9.9985606389     5.9964812537    22.8189684210
H       9.0134700530     3.6466640188    21.3638527547
H       2.9286850943     2.2596396628    18.8136392235
H       9.1756792732     4.5267365186    24.2561412749
O       3.6865245322     2.0689957693    19.4734027077
H       4.4791967059     2.1355948647    18.8498797627
80
Step 3 | ATOMIC_POSITIONS (angstrom) | Cartesian Angstrom
Ni      1.2286497520     0.7093615510    11.2500000000
Ni      2.4572990100     2.8374462050    11.2500000000
Ni      3.6859482670     4.9655308580    11.2500000000
Ni      4.9145975240     7.0936155120    11.2500000000
Ni      3.6859497520     0.7093615510    11.2500000000
Ni      4.9145990100     2.8374462050    11.2500000000
Ni      6.1432482670     4.9655308580    11.2500000000
Ni      7.3718975240     7.0936155120    11.2500000000
Ni      6.1432497520     0.7093615510    11.2500000000
Ni      7.3718990100     2.8374462050    11.2500000000
Ni      8.6005482670     4.9655308580    11.2500000000
Ni      9.8291975240     7.0936155120    11.2500000000
Ni      8.6005497520     0.7093615510    11.2500000000
Ni      9.8291990100     2.8374462050    11.2500000000
Ni     11.0578482670     4.9655308580    11.2500000000
Ni     12.2864975240     7.0936155120    11.2500000000
Ni      4.9119520398     8.5029881916    13.3030793848
Ni     11.0478827341     2.1231117304    13.2937902368
Ni     12.2745234921     4.2535236880    13.2929935552
Ni     13.5060242105     6.3735908856    13.2962055325
Ni      7.3596603289     8.5055852530    13.3096749371
Ni      3.6742508922     2.1204571282    13.2908406013
Ni      4.9099092407     4.2505075144    13.2924192500
Ni      6.1373212826     6.3798097638    13.3126887522
Ni      9.8172186296     8.5066972675    13.3009456588
Ni      6.1330835556     2.1229215316    13.2946671746
Ni      7.3660238686     4.2586900006    13.3136133961
Ni      8.5862417306     6.3825017330    13.3193843427
Ni     12.2720770924     8.5048736162    13.3032058125
Ni      8.5915678878     2.1283987519    13.2947057449
Ni      9.8171901275     4.2559641721    13.3009379262
Ni     11.0481065756     6.3835515252    13.2962535092
Cu      2.4366999147     1.4033161760    15.3613316938
Cu      3.6719389444     3.5394829389    15.3420503104
Cu      4.9049771334     5.6548777266    15.3713075628
Cu      6.1443342805     7.7794884597    15.4144304081
Cu      4.9002167884     1.4049788421    15.3589439732
Cu      6.1448173063     3.5414664049    15.3420433491
Cu      7.3760193949     5.6687158110    15.4353470197
Cu      8.5798779972     7.7879641080    15.3958725690
Cu      7.3611671177     1.4033188708    15.3598518871
Cu      8.5887366723     3.5516810487    15.3894800269
Cu      9.8085499973     5.6632092108    15.3775391662
Cu     11.0340524928     7.7861876472    15.3871894679
Cu      9.8104928466     1.3976224882    15.3619708630
Cu     11.0260137037     3.5401720904    15.3297990295
Cu     12.2724081929     5.6597747220    15.3721532559
Cu     13.5037809183     7.7837496292    15.3586530099
Cu      1.1889030845     0.6902156872    17.5664835535
Cu      2.3307590861     2.9023626959    17.2914485977
Cu      3.6749020106     4.9508580493    17.5862524986
Cu      4.8909251601     7.0687578648    17.5273410178
Cu      3.6640861859     0.6698652456    17.4664502633
Cu      4.9888693688     2.9040414346    17.3213628936
Cu      6.1491795907     4.9436993507    17.5421423794
Cu      7.2895542066     7.0894684334    17.7409855926
Cu      6.1492873885     0.6929110700    17.5460747481
Cu      7.3767936163     2.8099587563    17.5164133205
Cu      8.5982468992     4.7645632649    18.2042664528
Cu      9.8639460553     7.0776279875    17.5157484502
Cu      8.5804495612     0.6766052200    17.5480065372
Cu      9.7852509532     2.7965845783    17.5100633592
Cu     11.0311354976     4.9434910624    17.5248287772
Cu     12.2853838361     7.0667885604    17.5409264075
O       9.1803027786     4.3845010047    20.7462823375
O       8.7093509584     6.5352055723    19.0796155907
O       8.6278737491     4.5433513594    23.4594786237
C       8.5485109168     5.5576432125    21.2880147980
C       9.0230070141     6.7383463706    20.4635026556
C       8.9240965956     5.7584718741    22.7470701747
H       7.4515629348     5.4557451531    21.1962028821
H      10.1154719268     6.8393095447    20.5610525247
H       8.5486553963     7.6703252370    20.8084185727
H       8.3394317022     6.6028131838    23.1531027315
H       9.9980005392     5.9967282052    22.8194312766
H       9.0131677437     3.6544928543    21.3561946549
H       2.9340340865     2.2418305683    18.9108420463
H       9.1689037378     4.5225540968    24.2518676492
O       3.6843394884     2.0441803753    19.5445637158
H       4.4839338664     2.1149870891    18.9353065006
80
Step 4 | ATOMIC_POSITIONS (angstrom) | Cartesian Angstrom
Ni      1.2286497520     0.7093615510    11.2500000000
Ni      2.4572990100     2.8374462050    11.2500000000
Ni      3.6859482670     4.9655308580    11.2500000000
Ni      4.9145975240     7.0936155120    11.2500000000
Ni      3.6859497520     0.7093615510    11.2500000000
Ni      4.9145990100     2.8374462050    11.2500000000
Ni      6.1432482670     4.9655308580    11.2500000000
Ni      7.3718975240     7.0936155120    11.2500000000
Ni      6.1432497520     0.7093615510    11.2500000000
Ni      7.3718990100     2.8374462050    11.2500000000
Ni      8.6005482670     4.9655308580    11.2500000000
Ni      9.8291975240     7.0936155120    11.2500000000
Ni      8.6005497520     0.7093615510    11.2500000000
Ni      9.8291990100     2.8374462050    11.2500000000
Ni     11.0578482670     4.9655308580    11.2500000000
Ni     12.2864975240     7.0936155120    11.2500000000
Ni      4.9125171400     8.5032757264    13.3035946938
Ni     11.0482828855     2.1220398503    13.2904078762
Ni     12.2749400685     4.2537907913    13.2908275527
Ni     13.5068254385     6.3747631030    13.2957428841
Ni      7.3594517321     8.5040147173    13.3077674967
Ni      3.6750559818     2.1202800432    13.2884936699
Ni      4.9096371403     4.2524740480    13.2902824447
Ni      6.1368893056     6.3804971092    13.3127476564
Ni      9.8185697013     8.5054863805    13.2991039064
Ni      6.1339963359     2.1231634107    13.2924637388
Ni      7.3678345024     4.2587672150    13.3113958864
Ni      8.5872772652     6.3802762647    13.3181224082
Ni     12.2722056817     8.5046535468    13.3025073788
Ni      8.5921372713     2.1264254195    13.2941757018
Ni      9.8143700064     4.2556230340    13.2990476948
Ni     11.0504821140     6.3830366554    13.2957120889
Cu      2.4369374783     1.3973105588    15.3495235682
Cu      3.6735108911     3.5462693920    15.3214331515
Cu      4.9059312407     5.6574264515    15.3725466562
Cu      6.1450675077     7.7790684736    15.4167779101
Cu      4.9022839961     1.4006412812    15.3513158891
Cu      6.1563113231     3.5482359401    15.3175877997
Cu      7.3774731627     5.6681596685    15.4324202520
Cu      8.5818705556     7.7851669365    15.3917646561
Cu      7.3617450272     1.4036866520    15.3595338916
Cu      8.5870420569     3.5517017007    15.3914619627
Cu      9.8067530878     5.6630712072    15.3782386028
Cu     11.0330345257     7.7854120187    15.3884002093
Cu      9.8112126364     1.3990691737    15.3615680047
Cu     11.0131942014     3.5486295992    15.3008591952
Cu     12.2731787524     5.6608020458    15.3717844127
Cu     13.5033798938     7.7842595093    15.3592377046
Cu      1.1872718976     0.6937783969    17.5601327859
Cu      2.3340847918     2.9016810307    17.2272053229
Cu      3.6715559542     4.9557930551    17.5880948952
Cu      4.8924110070     7.0699152273    17.5274353427
Cu      3.6613066124     0.6697925216    17.4432107965
Cu      4.9909965172     2.9089921258    17.2580398629
Cu      6.1594917776     4.9573487639    17.5453965089
Cu      7.2889121466     7.0891438290    17.7367121789
Cu      6.1498578240     0.6951414550    17.5404074622
Cu      7.3855048200     2.8118707438    17.5196249748
Cu      8.5975781255     4.7670698255    18.2086031967
Cu      9.8658649872     7.0777581169    17.5201998101
Cu      8.5806909875     0.6741948672    17.5474806695
Cu      9.7764852878     2.7974885277    17.5122787158
Cu     11.0196999494     4.9602483286    17.5283215205
Cu     12.2870295151     7.0709366092    17.5397149230
O       9.1849469664     4.4008250410    20.7392121525
O       8.7047017591     6.5346370484    19.0801686128
O       8.6198394162     4.5437293420    23.4456784687
C       8.5485547409     5.5555987808    21.2900812803
C       9.0206489966     6.7394297362    20.4623893551
C       8.9238275492     5.7572580866    22.7510852250
H       7.4503475095     5.4567643197    21.1958481084
H      10.1147671660     6.8397011471    20.5589418743
H       8.5481125294     7.6702767947    20.8048358697
H       8.3430391702     6.6043904323    23.1548425032
H       9.9981401226     5.9968383919    22.8197174530
H       9.0086792480     3.6477230715    21.3607781646
H       2.9360937151     2.2282091163    19.0122589849
H       9.1732256165     4.5176933504    24.2643365594
O       3.6897375057     2.0126459893    19.6264160516
H       4.4845041246     2.0975832858    19.0301792022
