80
Step 1 | ATOMIC_POSITIONS (angstrom) | Cartesian Angstrom
Ni      1.2286497520     0.7093615510    11.2500000000
Ni      2.4572990100     2.8374462050    11.2500000000
Ni      3.6859482670     4.9655308580    11.2500000000
Ni      4.9145975240     7.0936155120    11.2500000000
Ni      3.6859497520     0.7093615510    11.2500000000
Ni      4.9145990100     2.8374462050    11.2500000000
Ni      6.1432482670     4.9655308580    11.2500000000
Ni      7.3718975240     7.0936155120    11.2500000000
Ni      6.1432497520     0.7093615510    11.2500000000
Ni      7.3718990100     2.8374462050    11.2500000000
Ni      8.6005482670     4.9655308580    11.2500000000
Ni      9.8291975240     7.0936155120    11.2500000000
Ni      8.6005497520     0.7093615510    11.2500000000
Ni      9.8291990100     2.8374462050    11.2500000000
Ni     11.0578482670     4.9655308580    11.2500000000
Ni     12.2864975240     7.0936155120    11.2500000000
Ni     14.7391156440     8.5053429940    13.3011714150
Ni     11.0531329440     2.1206495290    13.3008022990
Ni     12.2817169740     4.2489790340    13.3006009370
Ni     13.5101985340     6.3773433500    13.3009431250
Ni      7.3672568660     8.5047181050    13.3011773700
Ni      3.6813642390     2.1207834060    13.3007249920
Ni      4.9098915810     4.2493198240    13.3009122650
Ni      6.1382079690     6.3774560510    13.3011135670
Ni      9.8241033230     8.5046823230    13.3010832760
Ni      6.1383369810     2.1207818050    13.3007715320
Ni      7.3668809570     4.2490234570    13.3008058440
Ni      8.5953896190     6.3767159330    13.3009510360
Ni     12.2816608160     8.5051500050    13.3006064560
Ni      8.5958456850     2.1206091640    13.3010363910
Ni      9.8244550650     4.2487038260    13.3007275540
Ni     11.0528529680     6.3769409810    13.3006612510
Cu      2.4478273930     1.4024593490    15.3768195280
Cu      3.6763308060     3.5307008760    15.3768060770
Cu      4.9041378630     5.6597275330    15.3773446700
Cu      6.1330260750     7.7878909920    15.3784795760
Cu      4.9046987940     1.4026027490    15.3777978380
Cu      6.1325026870     3.5313494180    15.3777258640
Cu      7.3610720820     5.6598451510    15.3779275450
Cu      8.5906751570     7.7868955290    15.3785352680
Cu      7.3621786350     1.4037478130    15.3762149870
Cu      8.5904727220     3.5321453650    15.3780682330
Cu      9.8190628610     5.6596863340    15.3769316570
Cu     11.0489114770     7.7874997910    15.3777155250
Cu      9.8196454140     1.4041813300    15.3774701120
Cu     11.0479045230     3.5315147300    15.3771972950
Cu     12.2765483610     5.6595853030    15.3771297580
Cu     13.5054403740     7.7883030910    15.3772812510
Cu      1.2140125070     0.6836802980    17.5697066840
Cu      2.4431554840     2.8116125730    17.5665701770
Cu      3.6705110990     4.9384343220    17.5687388930
Cu      4.8988742140     7.0688538720    17.5715927900
Cu      3.6716454970     0.6829118360    17.5713988440
Cu      4.8981418590     2.8112416660    17.5722076350
Cu      6.1274353450     4.9410331950    17.5708266730
Cu      7.3554752240     7.0698227980    17.5713298580
Cu      6.1297077270     0.6833063410    17.5689100860
Cu      7.3567237630     2.8135682210    17.5698798540
Cu      8.5851063570     4.9421568870    17.5702369000
Cu      9.8152975500     7.0699596350    17.5700617890
Cu      8.5865082000     0.6855772250    17.5667967620
Cu      9.8144914730     2.8135456230    17.5749497460
Cu     11.0427692100     4.9416447890    17.5690865390
Cu     12.2728600100     7.0692517500    17.5719745900
O       6.0521358354     3.6369123620    21.6844749297
O       7.3654020449     4.2347154906    19.2788859332
O       7.3517701690     4.2405671099    24.1268502126
C       7.3512361470     4.2282828272    21.7103395067
C       8.0994541217     3.8384778304    20.4430539333
C       8.0865446868     3.8219082801    22.9752807408
H       7.1739839569     5.3341964130    21.7093379132
H       8.2228619480     2.7290100217    20.4049357315
H       9.1029084075     4.2876102668    20.4075356610
H       9.0941615591     4.2548088728    23.0082288962
H       8.1723546374     2.7151057387    23.0082441552
H       6.1972887017     2.6682749380    21.6846462640
H       3.1052608160     1.7334432545    19.6928599893
H       7.8560597200     3.9394466204    24.8978374159
O       2.5194339285     1.3935685153    19.0558048329
H       1.7487375300     0.9389496263    19.4810776041
80
Step 2 | ATOMIC_POSITIONS (angstrom) | Cartesian Angstrom
Ni      1.2286497520     0.7093615510    11.2500000000
Ni      2.4572990100     2.8374462050    11.2500000000
Ni      3.6859482670     4.9655308580    11.2500000000
Ni      4.9145975240     7.0936155120    11.2500000000
Ni      3.6859497520     0.7093615510    11.2500000000
Ni      4.9145990100     2.8374462050    11.2500000000
Ni      6.1432482670     4.9655308580    11.2500000000
Ni      7.3718975240     7.0936155120    11.2500000000
Ni      6.1432497520     0.7093615510    11.2500000000
Ni      7.3718990100     2.8374462050    11.2500000000
Ni      8.6005482670     4.9655308580    11.2500000000
Ni      9.8291975240     7.0936155120    11.2500000000
Ni      8.6005497520     0.7093615510    11.2500000000
Ni      9.8291990100     2.8374462050    11.2500000000
Ni     11.0578482670     4.9655308580    11.2500000000
Ni     12.2864975240     7.0936155120    11.2500000000
Ni     14.7391156440     8.5053429940    13.3011714150
Ni     11.0531329440     2.1206495290    13.3008022990
Ni     12.2817169740     4.2489790340    13.3006009370
Ni     13.5101985340     6.3773433500    13.3009431250
Ni      7.3672568660     8.5047181050    13.3011773700
Ni      3.6813642390     2.1207834060    13.3007249920
Ni      4.9098915810     4.2493198240    13.3009122650
Ni      6.1382079690     6.3774560510    13.3011135670
Ni      9.8241033230     8.5046823230    13.3010832760
Ni      6.1383369810     2.1207818050    13.3007715320
Ni      7.3668809570     4.2490234570    13.3008058440
Ni      8.5953896190     6.3767159330    13.3009510360
Ni     12.2816608160     8.5051500050    13.3006064560
Ni      8.5958456850     2.1206091640    13.3010363910
Ni      9.8244550650     4.2487038260    13.3007275540
Ni     11.0528529680     6.3769409810    13.3006612510
Cu      2.4478273930     1.4024593490    15.3768195280
Cu      3.6763308060     3.5307008760    15.3768060770
Cu      4.9041378630     5.6597275330    15.3773446700
Cu      6.1330260750     7.7878909920    15.3784795760
Cu      4.9046987940     1.4026027490    15.3777978380
Cu      6.1325026870     3.5313494180    15.3777258640
Cu      7.3610720820     5.6598451510    15.3779275450
Cu      8.5906751570     7.7868955290    15.3785352680
Cu      7.3621786350     1.4037478130    15.3762149870
Cu      8.5904727220     3.5321453650    15.3780682330
Cu      9.8190628610     5.6596863340    15.3769316570
Cu     11.0489114770     7.7874997910    15.3777155250
Cu      9.8196454140     1.4041813300    15.3774701120
Cu     11.0479045230     3.5315147300    15.3771972950
Cu     12.2765483610     5.6595853030    15.3771297580
Cu     13.5054403740     7.7883030910    15.3772812510
Cu      1.2140125070     0.6836802980    17.5697066840
Cu      2.4431554840     2.8116125730    17.5665701770
Cu      3.6705110990     4.9384343220    17.5687388930
Cu      4.8988742140     7.0688538720    17.5715927900
Cu      3.6716454970     0.6829118360    17.5713988440
Cu      4.8981418590     2.8112416660    17.5722076350
Cu      6.1274353450     4.9410331950    17.5708266730
Cu      7.3554752240     7.0698227980    17.5713298580
Cu      6.1297077270     0.6833063410    17.5689100860
Cu      7.3567237630     2.8135682210    17.5698798540
Cu      8.5851063570     4.9421568870    17.5702369000
Cu      9.8152975500     7.0699596350    17.5700617890
Cu      8.5865082000     0.6855772250    17.5667967620
Cu      9.8144914730     2.8135456230    17.5749497460
Cu     11.0427692100     4.9416447890    17.5690865390
Cu     12.2728600100     7.0692517500    17.5719745900
O       6.0270349888     3.6346628129    21.6893061058
O       7.3774207451     4.2346499572    19.2157590984
O       7.3402078737     4.2538625747    24.1362965035
C       7.3378480864     4.2118872996    21.7130376117
C       8.0929744042     3.8500331287    20.4189224996
C       8.0910000690     3.8232327085    22.9886177435
H       7.1758774288     5.3200314244    21.7098394947
H       8.2292903077     2.7260267370    20.4173594221
H       9.1198438282     4.2892567368    20.4144384641
H       9.1129761300     4.2569755531    22.9952880449
H       8.1810610184     2.7062033547    22.9907636905
H       6.1945518347     2.6743247085    21.6835682113
H       3.1765368736     1.7775287070    19.7707348585
H       7.8515911334     3.9428016209    24.9017215476
O       2.5071991946     1.3944147997    19.1768681886
H       1.7105140497     0.9149126746    19.5131205820
80
Step 3 | ATOMIC_POSITIONS (angstrom) | Cartesian Angstrom
Ni      1.2286497520     0.7093615510    11.2500000000
Ni      2.4572990100     2.8374462050    11.2500000000
Ni      3.6859482670     4.9655308580    11.2500000000
Ni      4.9145975240     7.0936155120    11.2500000000
Ni      3.6859497520     0.7093615510    11.2500000000
Ni      4.9145990100     2.8374462050    11.2500000000
Ni      6.1432482670     4.9655308580    11.2500000000
Ni      7.3718975240     7.0936155120    11.2500000000
Ni      6.1432497520     0.7093615510    11.2500000000
Ni      7.3718990100     2.8374462050    11.2500000000
Ni      8.6005482670     4.9655308580    11.2500000000
Ni      9.8291975240     7.0936155120    11.2500000000
Ni      8.6005497520     0.7093615510    11.2500000000
Ni      9.8291990100     2.8374462050    11.2500000000
Ni     11.0578482670     4.9655308580    11.2500000000
Ni     12.2864975240     7.0936155120    11.2500000000
Ni     14.7391156440     8.5053429940    13.3011714150
Ni     11.0531329440     2.1206495290    13.3008022990
Ni     12.2817169740     4.2489790340    13.3006009370
Ni     13.5101985340     6.3773433500    13.3009431250
Ni      7.3672568660     8.5047181050    13.3011773700
Ni      3.6813642390     2.1207834060    13.3007249920
Ni      4.9098915810     4.2493198240    13.3009122650
Ni      6.1382079690     6.3774560510    13.3011135670
Ni      9.8241033230     8.5046823230    13.3010832760
Ni      6.1383369810     2.1207818050    13.3007715320
Ni      7.3668809570     4.2490234570    13.3008058440
Ni      8.5953896190     6.3767159330    13.3009510360
Ni     12.2816608160     8.5051500050    13.3006064560
Ni      8.5958456850     2.1206091640    13.3010363910
Ni      9.8244550650     4.2487038260    13.3007275540
Ni     11.0528529680     6.3769409810    13.3006612510
Cu      2.4478273930     1.4024593490    15.3768195280
Cu      3.6763308060     3.5307008760    15.3768060770
Cu      4.9041378630     5.6597275330    15.3773446700
Cu      6.1330260750     7.7878909920    15.3784795760
Cu      4.9046987940     1.4026027490    15.3777978380
Cu      6.1325026870     3.5313494180    15.3777258640
Cu      7.3610720820     5.6598451510    15.3779275450
Cu      8.5906751570     7.7868955290    15.3785352680
Cu      7.3621786350     1.4037478130    15.3762149870
Cu      8.5904727220     3.5321453650    15.3780682330
Cu      9.8190628610     5.6596863340    15.3769316570
Cu     11.0489114770     7.7874997910    15.3777155250
Cu      9.8196454140     1.4041813300    15.3774701120
Cu     11.0479045230     3.5315147300    15.3771972950
Cu     12.2765483610     5.6595853030    15.3771297580
Cu     13.5054403740     7.7883030910    15.3772812510
Cu      1.2140125070     0.6836802980    17.5697066840
Cu      2.4431554840     2.8116125730    17.5665701770
Cu      3.6705110990     4.9384343220    17.5687388930
Cu      4.8988742140     7.0688538720    17.5715927900
Cu      3.6716454970     0.6829118360    17.5713988440
Cu      4.8981418590     2.8112416660    17.5722076350
Cu      6.1274353450     4.9410331950    17.5708266730
Cu      7.3554752240     7.0698227980    17.5713298580
Cu      6.1297077270     0.6833063410    17.5689100860
Cu      7.3567237630     2.8135682210    17.5698798540
Cu      8.5851063570     4.9421568870    17.5702369000
Cu      9.8152975500     7.0699596350    17.5700617890
Cu      8.5865082000     0.6855772250    17.5667967620
Cu      9.8144914730     2.8135456230    17.5749497460
Cu     11.0427692100     4.9416447890    17.5690865390
Cu     12.2728600100     7.0692517500    17.5719745900
O       6.0178017518     3.6313966044    21.6945852829
O       7.3996393209     4.2294495677    19.1799961728
O       7.3425745576     4.2592396756    24.1362899664
C       7.3243778554     4.2269750144    21.7028961587
C       8.0946066899     3.8413528037    20.4041190454
C       8.0925558635     3.8147487204    22.9886922159
H       7.1758660536     5.3000497315    21.7123665685
H       8.2323473077     2.7393229334    20.4212345005
H       9.1193383677     4.2885653537    20.4180686515
H       9.1190058135     4.2565985607    22.9854240989
H       8.1887888445     2.7085859757    22.9816268069
H       6.1858159459     2.6743209013    21.6822921790
H       3.2115317063     1.7999818319    19.8324559271
H       7.8446479874     3.9475925724    24.9071693953
O       2.5198220634     1.4082862219    19.2725995480
H       1.6851094368     0.8980610070    19.5586454045
