80
Step 1 | ATOMIC_POSITIONS {angstrom} | Cartesian Angstrom
NI      1.2286497520     0.7093615510    11.2500000000
NI      2.4572990100     2.8374462050    11.2500000000
NI      3.6859482670     4.9655308580    11.2500000000
NI      4.9145975240     7.0936155120    11.2500000000
NI      3.6859497520     0.7093615510    11.2500000000
NI      4.9145990100     2.8374462050    11.2500000000
NI      6.1432482670     4.9655308580    11.2500000000
NI      7.3718975240     7.0936155120    11.2500000000
NI      6.1432497520     0.7093615510    11.2500000000
NI      7.3718990100     2.8374462050    11.2500000000
NI      8.6005482670     4.9655308580    11.2500000000
NI      9.8291975240     7.0936155120    11.2500000000
NI      8.6005497520     0.7093615510    11.2500000000
NI      9.8291990100     2.8374462050    11.2500000000
NI     11.0578482670     4.9655308580    11.2500000000
NI     12.2864975240     7.0936155120    11.2500000000
NI      0.0000000000     0.0000000000    13.2562857140
NI      1.2286492570     2.1280846540    13.2562857140
NI      2.4572985140     4.2561693070    13.2562857140
NI     13.5151477710     6.3842539610    13.2562857140
NI      2.4573000000     0.0000000000    13.2562857140
NI      3.6859492570     2.1280846540    13.2562857140
NI      4.9145985140     4.2561693070    13.2562857140
NI      6.1432477710     6.3842539610    13.2562857140
NI      4.9146000000     0.0000000000    13.2562857140
NI      6.1432492570     2.1280846540    13.2562857140
NI      7.3718985140     4.2561693070    13.2562857140
NI      8.6005477710     6.3842539610    13.2562857140
NI      7.3719000000     0.0000000000    13.2562857140
NI      8.6005492570     2.1280846540    13.2562857140
NI      9.8291985140     4.2561693070    13.2562857140
NI     11.0578477710     6.3842539610    13.2562857140
CU      2.4572995050     1.4187231020    15.2622857140
CU      3.6859487620     3.5468077560    15.2622857140
CU      4.9145980190     5.6748924100    15.2622857140
CU      6.1432472760     7.8029770630    15.2622857140
CU      4.9145995050     1.4187231020    15.2622857140
CU      6.1432487620     3.5468077560    15.2622857140
CU      7.3718980190     5.6748924100    15.2622857140
CU      8.6005472760     7.8029770630    15.2622857140
CU      7.3718995050     1.4187231020    15.2622857140
CU      8.6005487620     3.5468077560    15.2622857140
CU      9.8291980190     5.6748924100    15.2622857140
CU     11.0578472760     7.8029770630    15.2622857140
CU      9.8291995050     1.4187231020    15.2622857140
CU     11.0578487620     3.5468077560    15.2622857140
CU     12.2864980190     5.6748924100    15.2622857140
CU     13.5151472760     7.8029770630    15.2622857140
CU      1.2286497520     0.7093615510    17.3276190480
CU      2.4572990100     2.8374462050    17.3276190480
CU      3.6859482670     4.9655308580    17.3276190480
CU      4.9145975240     7.0936155120    17.3276190480
CU      3.6859497520     0.7093615510    17.3276190480
CU      4.9145990100     2.8374462050    17.3276190480
CU      6.1432482670     4.9655308580    17.3276190480
CU      7.3718975240     7.0936155120    17.3276190480
CU      6.1432497520     0.7093615510    17.3276190480
CU      7.3718990100     2.8374462050    17.3276190480
CU      8.6005482670     4.9655308580    17.3276190480
CU      9.8291975240     7.0936155120    17.3276190480
CU      8.6005497520     0.7093615510    17.3276190480
CU      9.8291990100     2.8374462050    17.3276190480
CU     11.0578482670     4.9655308580    17.3276190480
CU     12.2864975240     7.0936155120    17.3276190480
O       9.1370395280     3.6242624990    21.7404178160
O       8.6501983680     4.9691696780    19.3651877590
O       8.6486879700     4.9638702620    24.1769655160
C       8.6316584610     4.9611891190    21.7640333950
C       9.1233268640     5.6715651830    20.5095075600
C       9.1318049960     5.6513906870    23.0276740150
H       7.5398432410     4.8769808090    21.7673478620
H      10.2169850720     5.6923140140    20.4564760840
H       8.7484285230     6.6982170670    20.4622764020
H       8.7805336070     6.6871720450    23.0711763970
H      10.2260529840     5.6406012930    23.0740765560
H      10.1084716340     3.6702929700    21.7424893580
H       8.9855095670     4.0580727890    19.4231909350
H       8.9887168280     5.4370072450    24.9558653080
O       3.6859492570     2.1280846540    18.6776190480
H       3.6859492570     2.1280846540    19.6576190480
