80
Step 1 | ATOMIC_POSITIONS (angstrom) | Cartesian Angstrom
Ni      1.2286497520     0.7093615510    11.2500000000
Ni      2.4572990100     2.8374462050    11.2500000000
Ni      3.6859482670     4.9655308580    11.2500000000
Ni      4.9145975240     7.0936155120    11.2500000000
Ni      3.6859497520     0.7093615510    11.2500000000
Ni      4.9145990100     2.8374462050    11.2500000000
Ni      6.1432482670     4.9655308580    11.2500000000
Ni      7.3718975240     7.0936155120    11.2500000000
Ni      6.1432497520     0.7093615510    11.2500000000
Ni      7.3718990100     2.8374462050    11.2500000000
Ni      8.6005482670     4.9655308580    11.2500000000
Ni      9.8291975240     7.0936155120    11.2500000000
Ni      8.6005497520     0.7093615510    11.2500000000
Ni      9.8291990100     2.8374462050    11.2500000000
Ni     11.0578482670     4.9655308580    11.2500000000
Ni     12.2864975240     7.0936155120    11.2500000000
Ni     14.7391156440     8.5053429940    13.3011714150
Ni     11.0531329440     2.1206495290    13.3008022990
Ni     12.2817169740     4.2489790340    13.3006009370
Ni     13.5101985340     6.3773433500    13.3009431250
Ni      7.3672568660     8.5047181050    13.3011773700
Ni      3.6813642390     2.1207834060    13.3007249920
Ni      4.9098915810     4.2493198240    13.3009122650
Ni      6.1382079690     6.3774560510    13.3011135670
Ni      9.8241033230     8.5046823230    13.3010832760
Ni      6.1383369810     2.1207818050    13.3007715320
Ni      7.3668809570     4.2490234570    13.3008058440
Ni      8.5953896190     6.3767159330    13.3009510360
Ni     12.2816608160     8.5051500050    13.3006064560
Ni      8.5958456850     2.1206091640    13.3010363910
Ni      9.8244550650     4.2487038260    13.3007275540
Ni     11.0528529680     6.3769409810    13.3006612510
Cu      2.4478273930     1.4024593490    15.3768195280
Cu      3.6763308060     3.5307008760    15.3768060770
Cu      4.9041378630     5.6597275330    15.3773446700
Cu      6.1330260750     7.7878909920    15.3784795760
Cu      4.9046987940     1.4026027490    15.3777978380
Cu      6.1325026870     3.5313494180    15.3777258640
Cu      7.3610720820     5.6598451510    15.3779275450
Cu      8.5906751570     7.7868955290    15.3785352680
Cu      7.3621786350     1.4037478130    15.3762149870
Cu      8.5904727220     3.5321453650    15.3780682330
Cu      9.8190628610     5.6596863340    15.3769316570
Cu     11.0489114770     7.7874997910    15.3777155250
Cu      9.8196454140     1.4041813300    15.3774701120
Cu     11.0479045230     3.5315147300    15.3771972950
Cu     12.2765483610     5.6595853030    15.3771297580
Cu     13.5054403740     7.7883030910    15.3772812510
Cu      1.2140125070     0.6836802980    17.5697066840
Cu      2.4431554840     2.8116125730    17.5665701770
Cu      3.6705110990     4.9384343220    17.5687388930
Cu      4.8988742140     7.0688538720    17.5715927900
Cu      3.6716454970     0.6829118360    17.5713988440
Cu      4.8981418590     2.8112416660    17.5722076350
Cu      6.1274353450     4.9410331950    17.5708266730
Cu      7.3554752240     7.0698227980    17.5713298580
Cu      6.1297077270     0.6833063410    17.5689100860
Cu      7.3567237630     2.8135682210    17.5698798540
Cu      8.5851063570     4.9421568870    17.5702369000
Cu      9.8152975500     7.0699596350    17.5700617890
Cu      8.5865082000     0.6855772250    17.5667967620
Cu      9.8144914730     2.8135456230    17.5749497460
Cu     11.0427692100     4.9416447890    17.5690865390
Cu     12.2728600100     7.0692517500    17.5719745900
O       5.4886481144     2.5751298988    20.6382935403
O       7.3470192393     4.2218957391    19.0409351873
O       4.5348870771     3.8319998106    22.9339250989
C       5.9375589448     3.8970949145    21.0061058037
C       7.3341583709     4.1964108898    20.4714015821
C       5.8968792231     3.9812172845    22.5234466704
H       5.2352936202     4.6437693609    20.5872068590
H       8.0486093428     3.4303456669    20.8159016616
H       7.6649241432     5.1793579093    20.8423989542
H       6.3012733833     4.9606934664    22.8388123825
H       6.5327722631     3.1811278100    22.9428225084
H       5.9108790031     2.3136490806    19.7872766805
H       3.7025826669     2.5149690362    20.2916628299
H       4.5094053599     3.7139811670    23.8958284270
O       2.7543071283     2.5369608560    19.9890723783
H       2.4285597114     1.6265371889    20.0962790810
80
Step 2 | ATOMIC_POSITIONS (angstrom) | Cartesian Angstrom
Ni      1.2286497520     0.7093615510    11.2500000000
Ni      2.4572990100     2.8374462050    11.2500000000
Ni      3.6859482670     4.9655308580    11.2500000000
Ni      4.9145975240     7.0936155120    11.2500000000
Ni      3.6859497520     0.7093615510    11.2500000000
Ni      4.9145990100     2.8374462050    11.2500000000
Ni      6.1432482670     4.9655308580    11.2500000000
Ni      7.3718975240     7.0936155120    11.2500000000
Ni      6.1432497520     0.7093615510    11.2500000000
Ni      7.3718990100     2.8374462050    11.2500000000
Ni      8.6005482670     4.9655308580    11.2500000000
Ni      9.8291975240     7.0936155120    11.2500000000
Ni      8.6005497520     0.7093615510    11.2500000000
Ni      9.8291990100     2.8374462050    11.2500000000
Ni     11.0578482670     4.9655308580    11.2500000000
Ni     12.2864975240     7.0936155120    11.2500000000
Ni     14.7391156440     8.5053429940    13.3011714150
Ni     11.0531329440     2.1206495290    13.3008022990
Ni     12.2817169740     4.2489790340    13.3006009370
Ni     13.5101985340     6.3773433500    13.3009431250
Ni      7.3672568660     8.5047181050    13.3011773700
Ni      3.6813642390     2.1207834060    13.3007249920
Ni      4.9098915810     4.2493198240    13.3009122650
Ni      6.1382079690     6.3774560510    13.3011135670
Ni      9.8241033230     8.5046823230    13.3010832760
Ni      6.1383369810     2.1207818050    13.3007715320
Ni      7.3668809570     4.2490234570    13.3008058440
Ni      8.5953896190     6.3767159330    13.3009510360
Ni     12.2816608160     8.5051500050    13.3006064560
Ni      8.5958456850     2.1206091640    13.3010363910
Ni      9.8244550650     4.2487038260    13.3007275540
Ni     11.0528529680     6.3769409810    13.3006612510
Cu      2.4478273930     1.4024593490    15.3768195280
Cu      3.6763308060     3.5307008760    15.3768060770
Cu      4.9041378630     5.6597275330    15.3773446700
Cu      6.1330260750     7.7878909920    15.3784795760
Cu      4.9046987940     1.4026027490    15.3777978380
Cu      6.1325026870     3.5313494180    15.3777258640
Cu      7.3610720820     5.6598451510    15.3779275450
Cu      8.5906751570     7.7868955290    15.3785352680
Cu      7.3621786350     1.4037478130    15.3762149870
Cu      8.5904727220     3.5321453650    15.3780682330
Cu      9.8190628610     5.6596863340    15.3769316570
Cu     11.0489114770     7.7874997910    15.3777155250
Cu      9.8196454140     1.4041813300    15.3774701120
Cu     11.0479045230     3.5315147300    15.3771972950
Cu     12.2765483610     5.6595853030    15.3771297580
Cu     13.5054403740     7.7883030910    15.3772812510
Cu      1.2140125070     0.6836802980    17.5697066840
Cu      2.4431554840     2.8116125730    17.5665701770
Cu      3.6705110990     4.9384343220    17.5687388930
Cu      4.8988742140     7.0688538720    17.5715927900
Cu      3.6716454970     0.6829118360    17.5713988440
Cu      4.8981418590     2.8112416660    17.5722076350
Cu      6.1274353450     4.9410331950    17.5708266730
Cu      7.3554752240     7.0698227980    17.5713298580
Cu      6.1297077270     0.6833063410    17.5689100860
Cu      7.3567237630     2.8135682210    17.5698798540
Cu      8.5851063570     4.9421568870    17.5702369000
Cu      9.8152975500     7.0699596350    17.5700617890
Cu      8.5865082000     0.6855772250    17.5667967620
Cu      9.8144914730     2.8135456230    17.5749497460
Cu     11.0427692100     4.9416447890    17.5690865390
Cu     12.2728600100     7.0692517500    17.5719745900
O       5.4931460741     2.5805756479    20.6409959173
O       7.3461279228     4.2196435634    19.0395116753
O       4.5472016898     3.8490560607    22.9419088062
C       5.9466336015     3.9000128631    21.0105045548
C       7.3421731008     4.1956605285    20.4709660614
C       5.9101286532     3.9831773426    22.5281806530
H       5.2453298796     4.6504526437    20.5950009301
H       8.0564978148     3.4276705124    20.8113239980
H       7.6769228395     5.1770705630    20.8408967158
H       6.3265017359     4.9579917057    22.8425315991
H       6.5392902264     3.1766061592    22.9450938735
H       5.9104574300     2.3200006410    19.7867165302
H       3.7036622660     2.5255430647    20.2951149537
H       4.5215192222     3.7239623966    23.9030100425
O       2.7554031263     2.5419130443    19.9936622446
H       2.4395323680     1.6268774355    20.0927101545
80
Step 3 | ATOMIC_POSITIONS (angstrom) | Cartesian Angstrom
Ni      1.2286497520     0.7093615510    11.2500000000
Ni      2.4572990100     2.8374462050    11.2500000000
Ni      3.6859482670     4.9655308580    11.2500000000
Ni      4.9145975240     7.0936155120    11.2500000000
Ni      3.6859497520     0.7093615510    11.2500000000
Ni      4.9145990100     2.8374462050    11.2500000000
Ni      6.1432482670     4.9655308580    11.2500000000
Ni      7.3718975240     7.0936155120    11.2500000000
Ni      6.1432497520     0.7093615510    11.2500000000
Ni      7.3718990100     2.8374462050    11.2500000000
Ni      8.6005482670     4.9655308580    11.2500000000
Ni      9.8291975240     7.0936155120    11.2500000000
Ni      8.6005497520     0.7093615510    11.2500000000
Ni      9.8291990100     2.8374462050    11.2500000000
Ni     11.0578482670     4.9655308580    11.2500000000
Ni     12.2864975240     7.0936155120    11.2500000000
Ni     14.7391156440     8.5053429940    13.3011714150
Ni     11.0531329440     2.1206495290    13.3008022990
Ni     12.2817169740     4.2489790340    13.3006009370
Ni     13.5101985340     6.3773433500    13.3009431250
Ni      7.3672568660     8.5047181050    13.3011773700
Ni      3.6813642390     2.1207834060    13.3007249920
Ni      4.9098915810     4.2493198240    13.3009122650
Ni      6.1382079690     6.3774560510    13.3011135670
Ni      9.8241033230     8.5046823230    13.3010832760
Ni      6.1383369810     2.1207818050    13.3007715320
Ni      7.3668809570     4.2490234570    13.3008058440
Ni      8.5953896190     6.3767159330    13.3009510360
Ni     12.2816608160     8.5051500050    13.3006064560
Ni      8.5958456850     2.1206091640    13.3010363910
Ni      9.8244550650     4.2487038260    13.3007275540
Ni     11.0528529680     6.3769409810    13.3006612510
Cu      2.4478273930     1.4024593490    15.3768195280
Cu      3.6763308060     3.5307008760    15.3768060770
Cu      4.9041378630     5.6597275330    15.3773446700
Cu      6.1330260750     7.7878909920    15.3784795760
Cu      4.9046987940     1.4026027490    15.3777978380
Cu      6.1325026870     3.5313494180    15.3777258640
Cu      7.3610720820     5.6598451510    15.3779275450
Cu      8.5906751570     7.7868955290    15.3785352680
Cu      7.3621786350     1.4037478130    15.3762149870
Cu      8.5904727220     3.5321453650    15.3780682330
Cu      9.8190628610     5.6596863340    15.3769316570
Cu     11.0489114770     7.7874997910    15.3777155250
Cu      9.8196454140     1.4041813300    15.3774701120
Cu     11.0479045230     3.5315147300    15.3771972950
Cu     12.2765483610     5.6595853030    15.3771297580
Cu     13.5054403740     7.7883030910    15.3772812510
Cu      1.2140125070     0.6836802980    17.5697066840
Cu      2.4431554840     2.8116125730    17.5665701770
Cu      3.6705110990     4.9384343220    17.5687388930
Cu      4.8988742140     7.0688538720    17.5715927900
Cu      3.6716454970     0.6829118360    17.5713988440
Cu      4.8981418590     2.8112416660    17.5722076350
Cu      6.1274353450     4.9410331950    17.5708266730
Cu      7.3554752240     7.0698227980    17.5713298580
Cu      6.1297077270     0.6833063410    17.5689100860
Cu      7.3567237630     2.8135682210    17.5698798540
Cu      8.5851063570     4.9421568870    17.5702369000
Cu      9.8152975500     7.0699596350    17.5700617890
Cu      8.5865082000     0.6855772250    17.5667967620
Cu      9.8144914730     2.8135456230    17.5749497460
Cu     11.0427692100     4.9416447890    17.5690865390
Cu     12.2728600100     7.0692517500    17.5719745900
O       5.4954017408     2.5836475844    20.6435338750
O       7.3458695400     4.2156307104    19.0394335118
O       4.5496776529     3.8693460014    22.9440214263
C       5.9511840095     3.9020952542    21.0128533540
C       7.3464527422     4.1940459956    20.4714556015
C       5.9142644178     3.9869681445    22.5302682018
H       5.2522738491     4.6544380160    20.5965694864
H       8.0600114546     3.4246977450    20.8101597435
H       7.6839251650     5.1747118277    20.8402822546
H       6.3415704717     4.9572442125    22.8438024816
H       6.5352533525     3.1744227020    22.9478732746
H       5.9068096993     2.3248397580    19.7856849197
H       3.7016452123     2.5370793759    20.2972602775
H       4.5224646860     3.7374626118    23.9046090380
O       2.7527532243     2.5459629037    19.9983839763
H       2.4495838487     1.6255115197    20.0898544997
80
Step 4 | ATOMIC_POSITIONS (angstrom) | Cartesian Angstrom
Ni      1.2286497520     0.7093615510    11.2500000000
Ni      2.4572990100     2.8374462050    11.2500000000
Ni      3.6859482670     4.9655308580    11.2500000000
Ni      4.9145975240     7.0936155120    11.2500000000
Ni      3.6859497520     0.7093615510    11.2500000000
Ni      4.9145990100     2.8374462050    11.2500000000
Ni      6.1432482670     4.9655308580    11.2500000000
Ni      7.3718975240     7.0936155120    11.2500000000
Ni      6.1432497520     0.7093615510    11.2500000000
Ni      7.3718990100     2.8374462050    11.2500000000
Ni      8.6005482670     4.9655308580    11.2500000000
Ni      9.8291975240     7.0936155120    11.2500000000
Ni      8.6005497520     0.7093615510    11.2500000000
Ni      9.8291990100     2.8374462050    11.2500000000
Ni     11.0578482670     4.9655308580    11.2500000000
Ni     12.2864975240     7.0936155120    11.2500000000
Ni     14.7391156440     8.5053429940    13.3011714150
Ni     11.0531329440     2.1206495290    13.3008022990
Ni     12.2817169740     4.2489790340    13.3006009370
Ni     13.5101985340     6.3773433500    13.3009431250
Ni      7.3672568660     8.5047181050    13.3011773700
Ni      3.6813642390     2.1207834060    13.3007249920
Ni      4.9098915810     4.2493198240    13.3009122650
Ni      6.1382079690     6.3774560510    13.3011135670
Ni      9.8241033230     8.5046823230    13.3010832760
Ni      6.1383369810     2.1207818050    13.3007715320
Ni      7.3668809570     4.2490234570    13.3008058440
Ni      8.5953896190     6.3767159330    13.3009510360
Ni     12.2816608160     8.5051500050    13.3006064560
Ni      8.5958456850     2.1206091640    13.3010363910
Ni      9.8244550650     4.2487038260    13.3007275540
Ni     11.0528529680     6.3769409810    13.3006612510
Cu      2.4478273930     1.4024593490    15.3768195280
Cu      3.6763308060     3.5307008760    15.3768060770
Cu      4.9041378630     5.6597275330    15.3773446700
Cu      6.1330260750     7.7878909920    15.3784795760
Cu      4.9046987940     1.4026027490    15.3777978380
Cu      6.1325026870     3.5313494180    15.3777258640
Cu      7.3610720820     5.6598451510    15.3779275450
Cu      8.5906751570     7.7868955290    15.3785352680
Cu      7.3621786350     1.4037478130    15.3762149870
Cu      8.5904727220     3.5321453650    15.3780682330
Cu      9.8190628610     5.6596863340    15.3769316570
Cu     11.0489114770     7.7874997910    15.3777155250
Cu      9.8196454140     1.4041813300    15.3774701120
Cu     11.0479045230     3.5315147300    15.3771972950
Cu     12.2765483610     5.6595853030    15.3771297580
Cu     13.5054403740     7.7883030910    15.3772812510
Cu      1.2140125070     0.6836802980    17.5697066840
Cu      2.4431554840     2.8116125730    17.5665701770
Cu      3.6705110990     4.9384343220    17.5687388930
Cu      4.8988742140     7.0688538720    17.5715927900
Cu      3.6716454970     0.6829118360    17.5713988440
Cu      4.8981418590     2.8112416660    17.5722076350
Cu      6.1274353450     4.9410331950    17.5708266730
Cu      7.3554752240     7.0698227980    17.5713298580
Cu      6.1297077270     0.6833063410    17.5689100860
Cu      7.3567237630     2.8135682210    17.5698798540
Cu      8.5851063570     4.9421568870    17.5702369000
Cu      9.8152975500     7.0699596350    17.5700617890
Cu      8.5865082000     0.6855772250    17.5667967620
Cu      9.8144914730     2.8135456230    17.5749497460
Cu     11.0427692100     4.9416447890    17.5690865390
Cu     12.2728600100     7.0692517500    17.5719745900
O       5.4954516566     2.5844814693    20.6467823840
O       7.3468223383     4.2117711958    19.0397149828
O       4.5488765752     3.8919352335    22.9438266788
C       5.9531584962     3.9029568441    21.0136090110
C       7.3488731330     4.1915897279    20.4719562278
C       5.9149686004     3.9919445068    22.5302886919
H       5.2568969754     4.6558582396    20.5942763702
H       8.0614121774     3.4214755042    20.8101481388
H       7.6879760719     5.1719800161    20.8398441363
H       6.3532308230     4.9578416079    22.8422472662
H       6.5266131619     3.1735165088    22.9500869400
H       5.9000028242     2.3277817547    19.7847657994
H       3.6971474682     2.5471470503    20.3004015690
H       4.5215077130     3.7523716136    23.9035595321
O       2.7475517124     2.5482074695    20.0038101706
H       2.4569739467     1.6225163200    20.0884326672
80
Step 5 | ATOMIC_POSITIONS (angstrom) | Cartesian Angstrom
Ni      1.2286497520     0.7093615510    11.2500000000
Ni      2.4572990100     2.8374462050    11.2500000000
Ni      3.6859482670     4.9655308580    11.2500000000
Ni      4.9145975240     7.0936155120    11.2500000000
Ni      3.6859497520     0.7093615510    11.2500000000
Ni      4.9145990100     2.8374462050    11.2500000000
Ni      6.1432482670     4.9655308580    11.2500000000
Ni      7.3718975240     7.0936155120    11.2500000000
Ni      6.1432497520     0.7093615510    11.2500000000
Ni      7.3718990100     2.8374462050    11.2500000000
Ni      8.6005482670     4.9655308580    11.2500000000
Ni      9.8291975240     7.0936155120    11.2500000000
Ni      8.6005497520     0.7093615510    11.2500000000
Ni      9.8291990100     2.8374462050    11.2500000000
Ni     11.0578482670     4.9655308580    11.2500000000
Ni     12.2864975240     7.0936155120    11.2500000000
Ni     14.7391156440     8.5053429940    13.3011714150
Ni     11.0531329440     2.1206495290    13.3008022990
Ni     12.2817169740     4.2489790340    13.3006009370
Ni     13.5101985340     6.3773433500    13.3009431250
Ni      7.3672568660     8.5047181050    13.3011773700
Ni      3.6813642390     2.1207834060    13.3007249920
Ni      4.9098915810     4.2493198240    13.3009122650
Ni      6.1382079690     6.3774560510    13.3011135670
Ni      9.8241033230     8.5046823230    13.3010832760
Ni      6.1383369810     2.1207818050    13.3007715320
Ni      7.3668809570     4.2490234570    13.3008058440
Ni      8.5953896190     6.3767159330    13.3009510360
Ni     12.2816608160     8.5051500050    13.3006064560
Ni      8.5958456850     2.1206091640    13.3010363910
Ni      9.8244550650     4.2487038260    13.3007275540
Ni     11.0528529680     6.3769409810    13.3006612510
Cu      2.4478273930     1.4024593490    15.3768195280
Cu      3.6763308060     3.5307008760    15.3768060770
Cu      4.9041378630     5.6597275330    15.3773446700
Cu      6.1330260750     7.7878909920    15.3784795760
Cu      4.9046987940     1.4026027490    15.3777978380
Cu      6.1325026870     3.5313494180    15.3777258640
Cu      7.3610720820     5.6598451510    15.3779275450
Cu      8.5906751570     7.7868955290    15.3785352680
Cu      7.3621786350     1.4037478130    15.3762149870
Cu      8.5904727220     3.5321453650    15.3780682330
Cu      9.8190628610     5.6596863340    15.3769316570
Cu     11.0489114770     7.7874997910    15.3777155250
Cu      9.8196454140     1.4041813300    15.3774701120
Cu     11.0479045230     3.5315147300    15.3771972950
Cu     12.2765483610     5.6595853030    15.3771297580
Cu     13.5054403740     7.7883030910    15.3772812510
Cu      1.2140125070     0.6836802980    17.5697066840
Cu      2.4431554840     2.8116125730    17.5665701770
Cu      3.6705110990     4.9384343220    17.5687388930
Cu      4.8988742140     7.0688538720    17.5715927900
Cu      3.6716454970     0.6829118360    17.5713988440
Cu      4.8981418590     2.8112416660    17.5722076350
Cu      6.1274353450     4.9410331950    17.5708266730
Cu      7.3554752240     7.0698227980    17.5713298580
Cu      6.1297077270     0.6833063410    17.5689100860
Cu      7.3567237630     2.8135682210    17.5698798540
Cu      8.5851063570     4.9421568870    17.5702369000
Cu      9.8152975500     7.0699596350    17.5700617890
Cu      8.5865082000     0.6855772250    17.5667967620
Cu      9.8144914730     2.8135456230    17.5749497460
Cu     11.0427692100     4.9416447890    17.5690865390
Cu     12.2728600100     7.0692517500    17.5719745900
O       5.4944000379     2.5805460763    20.6525591645
O       7.3486210415     4.2073450917    19.0401085160
O       4.5414512318     3.9246802934    22.9391075995
C       5.9513148454     3.9016451698    21.0119940283
C       7.3477105009     4.1885794564    20.4721727109
C       5.9096054417     3.9998602482    22.5271896654
H       5.2575420056     4.6515544919    20.5856078514
H       8.0599053359     3.4195495594    20.8121907305
H       7.6855822843     5.1699912908    20.8384428355
H       6.3627102323     4.9596055420    22.8363708122
H       6.5066135738     3.1738647962    22.9524648502
H       5.8855692738     2.3287603768    19.7828351331
H       3.6857416089     2.5569308190    20.3071074986
H       4.5133301398     3.7748899530    23.8977691875
O       2.7358787425     2.5491294608    20.0123082181
H       2.4595745778     1.6178508948    20.0884993038
80
Step 6 | ATOMIC_POSITIONS (angstrom) | Cartesian Angstrom
Ni      1.2286497520     0.7093615510    11.2500000000
Ni      2.4572990100     2.8374462050    11.2500000000
Ni      3.6859482670     4.9655308580    11.2500000000
Ni      4.9145975240     7.0936155120    11.2500000000
Ni      3.6859497520     0.7093615510    11.2500000000
Ni      4.9145990100     2.8374462050    11.2500000000
Ni      6.1432482670     4.9655308580    11.2500000000
Ni      7.3718975240     7.0936155120    11.2500000000
Ni      6.1432497520     0.7093615510    11.2500000000
Ni      7.3718990100     2.8374462050    11.2500000000
Ni      8.6005482670     4.9655308580    11.2500000000
Ni      9.8291975240     7.0936155120    11.2500000000
Ni      8.6005497520     0.7093615510    11.2500000000
Ni      9.8291990100     2.8374462050    11.2500000000
Ni     11.0578482670     4.9655308580    11.2500000000
Ni     12.2864975240     7.0936155120    11.2500000000
Ni     14.7391156440     8.5053429940    13.3011714150
Ni     11.0531329440     2.1206495290    13.3008022990
Ni     12.2817169740     4.2489790340    13.3006009370
Ni     13.5101985340     6.3773433500    13.3009431250
Ni      7.3672568660     8.5047181050    13.3011773700
Ni      3.6813642390     2.1207834060    13.3007249920
Ni      4.9098915810     4.2493198240    13.3009122650
Ni      6.1382079690     6.3774560510    13.3011135670
Ni      9.8241033230     8.5046823230    13.3010832760
Ni      6.1383369810     2.1207818050    13.3007715320
Ni      7.3668809570     4.2490234570    13.3008058440
Ni      8.5953896190     6.3767159330    13.3009510360
Ni     12.2816608160     8.5051500050    13.3006064560
Ni      8.5958456850     2.1206091640    13.3010363910
Ni      9.8244550650     4.2487038260    13.3007275540
Ni     11.0528529680     6.3769409810    13.3006612510
Cu      2.4478273930     1.4024593490    15.3768195280
Cu      3.6763308060     3.5307008760    15.3768060770
Cu      4.9041378630     5.6597275330    15.3773446700
Cu      6.1330260750     7.7878909920    15.3784795760
Cu      4.9046987940     1.4026027490    15.3777978380
Cu      6.1325026870     3.5313494180    15.3777258640
Cu      7.3610720820     5.6598451510    15.3779275450
Cu      8.5906751570     7.7868955290    15.3785352680
Cu      7.3621786350     1.4037478130    15.3762149870
Cu      8.5904727220     3.5321453650    15.3780682330
Cu      9.8190628610     5.6596863340    15.3769316570
Cu     11.0489114770     7.7874997910    15.3777155250
Cu      9.8196454140     1.4041813300    15.3774701120
Cu     11.0479045230     3.5315147300    15.3771972950
Cu     12.2765483610     5.6595853030    15.3771297580
Cu     13.5054403740     7.7883030910    15.3772812510
Cu      1.2140125070     0.6836802980    17.5697066840
Cu      2.4431554840     2.8116125730    17.5665701770
Cu      3.6705110990     4.9384343220    17.5687388930
Cu      4.8988742140     7.0688538720    17.5715927900
Cu      3.6716454970     0.6829118360    17.5713988440
Cu      4.8981418590     2.8112416660    17.5722076350
Cu      6.1274353450     4.9410331950    17.5708266730
Cu      7.3554752240     7.0698227980    17.5713298580
Cu      6.1297077270     0.6833063410    17.5689100860
Cu      7.3567237630     2.8135682210    17.5698798540
Cu      8.5851063570     4.9421568870    17.5702369000
Cu      9.8152975500     7.0699596350    17.5700617890
Cu      8.5865082000     0.6855772250    17.5667967620
Cu      9.8144914730     2.8135456230    17.5749497460
Cu     11.0427692100     4.9416447890    17.5690865390
Cu     12.2728600100     7.0692517500    17.5719745900
O       5.4886865724     2.5749418549    20.6549690991
O       7.3508152740     4.2066106135    19.0398680688
O       4.5247418489     3.9486727511    22.9266178887
C       5.9436252717     3.8992663573    21.0060202584
C       7.3421762844     4.1861586904    20.4713203162
C       5.8955378271     4.0072237513    22.5198504681
H       5.2513661529     4.6449486557    20.5711353603
H       8.0535628682     3.4181884882    20.8147217913
H       7.6775596316     5.1685747248    20.8378327756
H       6.3573989453     4.9634813054    22.8267263452
H       6.4806886364     3.1769031132    22.9529825743
H       5.8706176450     2.3255501411    19.7805286208
H       3.6719028435     2.5570531101    20.3127650190
H       4.4934004906     3.7955236296    23.8846777782
O       2.7224957967     2.5467661426    20.0176050844
H       2.4520337303     1.6120978647    20.0849146174
80
Step 7 | ATOMIC_POSITIONS (angstrom) | Cartesian Angstrom
Ni      1.2286497520     0.7093615510    11.2500000000
Ni      2.4572990100     2.8374462050    11.2500000000
Ni      3.6859482670     4.9655308580    11.2500000000
Ni      4.9145975240     7.0936155120    11.2500000000
Ni      3.6859497520     0.7093615510    11.2500000000
Ni      4.9145990100     2.8374462050    11.2500000000
Ni      6.1432482670     4.9655308580    11.2500000000
Ni      7.3718975240     7.0936155120    11.2500000000
Ni      6.1432497520     0.7093615510    11.2500000000
Ni      7.3718990100     2.8374462050    11.2500000000
Ni      8.6005482670     4.9655308580    11.2500000000
Ni      9.8291975240     7.0936155120    11.2500000000
Ni      8.6005497520     0.7093615510    11.2500000000
Ni      9.8291990100     2.8374462050    11.2500000000
Ni     11.0578482670     4.9655308580    11.2500000000
Ni     12.2864975240     7.0936155120    11.2500000000
Ni     14.7391156440     8.5053429940    13.3011714150
Ni     11.0531329440     2.1206495290    13.3008022990
Ni     12.2817169740     4.2489790340    13.3006009370
Ni     13.5101985340     6.3773433500    13.3009431250
Ni      7.3672568660     8.5047181050    13.3011773700
Ni      3.6813642390     2.1207834060    13.3007249920
Ni      4.9098915810     4.2493198240    13.3009122650
Ni      6.1382079690     6.3774560510    13.3011135670
Ni      9.8241033230     8.5046823230    13.3010832760
Ni      6.1383369810     2.1207818050    13.3007715320
Ni      7.3668809570     4.2490234570    13.3008058440
Ni      8.5953896190     6.3767159330    13.3009510360
Ni     12.2816608160     8.5051500050    13.3006064560
Ni      8.5958456850     2.1206091640    13.3010363910
Ni      9.8244550650     4.2487038260    13.3007275540
Ni     11.0528529680     6.3769409810    13.3006612510
Cu      2.4478273930     1.4024593490    15.3768195280
Cu      3.6763308060     3.5307008760    15.3768060770
Cu      4.9041378630     5.6597275330    15.3773446700
Cu      6.1330260750     7.7878909920    15.3784795760
Cu      4.9046987940     1.4026027490    15.3777978380
Cu      6.1325026870     3.5313494180    15.3777258640
Cu      7.3610720820     5.6598451510    15.3779275450
Cu      8.5906751570     7.7868955290    15.3785352680
Cu      7.3621786350     1.4037478130    15.3762149870
Cu      8.5904727220     3.5321453650    15.3780682330
Cu      9.8190628610     5.6596863340    15.3769316570
Cu     11.0489114770     7.7874997910    15.3777155250
Cu      9.8196454140     1.4041813300    15.3774701120
Cu     11.0479045230     3.5315147300    15.3771972950
Cu     12.2765483610     5.6595853030    15.3771297580
Cu     13.5054403740     7.7883030910    15.3772812510
Cu      1.2140125070     0.6836802980    17.5697066840
Cu      2.4431554840     2.8116125730    17.5665701770
Cu      3.6705110990     4.9384343220    17.5687388930
Cu      4.8988742140     7.0688538720    17.5715927900
Cu      3.6716454970     0.6829118360    17.5713988440
Cu      4.8981418590     2.8112416660    17.5722076350
Cu      6.1274353450     4.9410331950    17.5708266730
Cu      7.3554752240     7.0698227980    17.5713298580
Cu      6.1297077270     0.6833063410    17.5689100860