80
Step 1 | ATOMIC_POSITIONS (angstrom) | Cartesian Angstrom
Ni      1.2286497520     0.7093615510    11.2500000000
Ni      2.4572990100     2.8374462050    11.2500000000
Ni      3.6859482670     4.9655308580    11.2500000000
Ni      4.9145975240     7.0936155120    11.2500000000
Ni      3.6859497520     0.7093615510    11.2500000000
Ni      4.9145990100     2.8374462050    11.2500000000
Ni      6.1432482670     4.9655308580    11.2500000000
Ni      7.3718975240     7.0936155120    11.2500000000
Ni      6.1432497520     0.7093615510    11.2500000000
Ni      7.3718990100     2.8374462050    11.2500000000
Ni      8.6005482670     4.9655308580    11.2500000000
Ni      9.8291975240     7.0936155120    11.2500000000
Ni      8.6005497520     0.7093615510    11.2500000000
Ni      9.8291990100     2.8374462050    11.2500000000
Ni     11.0578482670     4.9655308580    11.2500000000
Ni     12.2864975240     7.0936155120    11.2500000000
Ni      0.0015275608     0.0019399391    13.2945039827
Ni      1.2332516842     2.1305271893    13.3093655408
Ni      2.4584412262     4.2549698430    13.3088322481
Ni     13.5152534743     6.3857989730    13.2941899230
Ni      2.4603334095     0.0053624792    13.3077779553
Ni      3.6855408567     2.1304316678    13.3215190122
Ni      4.9126588908     4.2560199028    13.3049477676
Ni      6.1454977767     6.3857608976    13.2993755177
Ni      4.9123732306     0.0039389697    13.3069792498
Ni      6.1398416628     2.1303345623    13.3028806734
Ni      7.3684542836     4.2566418778    13.3062442206
Ni      8.6012294394     6.3911421685    13.3110957308
Ni      7.3711673739     0.0005485414    13.2934074738
Ni      8.6016293763     2.1302072776    13.2940586475
Ni      9.8346570353     4.2564282325    13.3075025871
Ni     11.0561190231     6.3852493894    13.2984099669
Cu      2.4662034552     1.4292207704    15.4238050730
Cu      3.6840083479     3.5427921567    15.4173407614
Cu      4.9149412344     5.6819467624    15.3614703423
Cu      6.1425036860     7.8069012092    15.3635313074
Cu      4.9070985861     1.4262582443    15.4122295885
Cu      6.1262770252     3.5428909551    15.3835182215
Cu      7.3804709063     5.6731072267    15.3843015528
Cu      8.6011008199     7.8275509198    15.3959053618
Cu      7.3741038414     1.4182025509    15.3527634948
Cu      8.6021363438     3.5576058519    15.3729088173
Cu      9.8203869499     5.6729572476    15.3844234722
Cu     11.0588555246     7.8045187188    15.3644944429
Cu      9.8278763283     1.4209487389    15.3615951195
Cu     11.0763416531     3.5413587233    15.3969524106
Cu     12.2860224316     5.6804474425    15.3623230967
Cu     13.5157503228     7.8071523012    15.3769840055
Cu      1.2037302439     0.7048943017    17.5332412647
Cu      2.3489967489     2.9118072546    17.7537792060
Cu      3.6813450762     5.0036557806    17.5316889327
Cu      4.9119194926     7.1026589291    17.5871715119
Cu      3.6867030494     0.6078031173    17.6943185628
Cu      5.0037330006     2.8988491173    17.6290690004
Cu      6.1449394433     4.9860203647    17.5140496094
Cu      7.3655882126     7.0900747846    17.5153224742
Cu      6.1692069960     0.6966570978    17.5323456563
Cu      7.3823791464     2.8358879536    17.4823485152
Cu      8.5938546639     4.9686837073    17.7438064203
Cu      9.8326621071     7.0831329777    17.5223926335
Cu      8.6005450647     0.7149465344    17.5958001307
Cu      9.8168117278     2.8444280457    17.5108905436
Cu     11.0456184689     4.9841541055    17.5170915533
Cu     12.2862457231     7.1000317174    17.5820731795
O       9.2276909236     3.5296777392    22.3583728800
O       8.3005559942     4.6414122807    19.9753361241
O       8.8342360760     5.2852648658    24.7175925698
C       8.7139707893     4.8652522583    22.3578801642
C       8.8707397176     5.4785300058    20.9500727906
C       9.3180981712     5.7394817011    23.4508070533
H       7.6379699715     4.7519476707    22.5672803933
H       9.9553087451     5.6586178893    20.7470597310
H       8.3641045923     6.4643164946    20.9001427697
H       9.0350898455     6.7936565999    23.2700488430
H      10.4233962629     5.6760880014    23.3971439520
H      10.1987670817     3.5750744051    22.3604030484
H       2.9471722991     2.0108520858    19.6507523087
H       9.2333987530     5.8299248803    25.4132400270
O       3.7289926516     2.1248077951    19.0926804265
H       4.5114945305     2.2633461698    19.6497250073
