80
Step 1 | ATOMIC_POSITIONS (angstrom) | Cartesian Angstrom
Ni      1.2286497520     0.7093615510    11.2500000000
Ni      2.4572990100     2.8374462050    11.2500000000
Ni      3.6859482670     4.9655308580    11.2500000000
Ni      4.9145975240     7.0936155120    11.2500000000
Ni      3.6859497520     0.7093615510    11.2500000000
Ni      4.9145990100     2.8374462050    11.2500000000
Ni      6.1432482670     4.9655308580    11.2500000000
Ni      7.3718975240     7.0936155120    11.2500000000
Ni      6.1432497520     0.7093615510    11.2500000000
Ni      7.3718990100     2.8374462050    11.2500000000
Ni      8.6005482670     4.9655308580    11.2500000000
Ni      9.8291975240     7.0936155120    11.2500000000
Ni      8.6005497520     0.7093615510    11.2500000000
Ni      9.8291990100     2.8374462050    11.2500000000
Ni     11.0578482670     4.9655308580    11.2500000000
Ni     12.2864975240     7.0936155120    11.2500000000
Ni      4.9104360979     8.5018035901    13.3029430733
Ni     11.0475592756     2.1234023141    13.2963367961
Ni     12.2741632984     4.2542741179    13.2923056294
Ni     13.5054246501     6.3723178078    13.2972175646
Ni      7.3609334001     8.5072606908    13.3122507558
Ni      3.6735680669     2.1198080601    13.2931295330
Ni      4.9106505343     4.2486462166    13.2932604998
Ni      6.1387232950     6.3782539195    13.3136490909
Ni      9.8148929544     8.5082047582    13.3042302158
Ni      6.1312647923     2.1212135251    13.2953562085
Ni      7.3646390440     4.2595064668    13.3127772604
Ni      8.5851766782     6.3861370727    13.3201952966
Ni     12.2727411383     8.5049694270    13.3052132909
Ni      8.5908261918     2.1323257132    13.2972618371
Ni      9.8199217952     4.2577822414    13.2998765703
Ni     11.0430305294     6.3834494011    13.2984230353
Cu      2.4350217379     1.4083178063    15.3681449185
Cu      3.6687440321     3.5336544114    15.3582195274
Cu      4.9031601175     5.6517534629    15.3688207500
Cu      6.1442944905     7.7800521833    15.4089336516
Cu      4.8989234736     1.4088089568    15.3623127741
Cu      6.1343192522     3.5349749198    15.3667204214
Cu      7.3720077622     5.6733182501    15.4374782278
Cu      8.5758665738     7.7882845004    15.3963165350
Cu      7.3603987839     1.4026131719    15.3595067066
Cu      8.5915126305     3.5476581646    15.3792080747
Cu      9.8132469051     5.6667932432    15.3751749027
Cu     11.0364900914     7.7855929668    15.3840056572
Cu      9.8092901274     1.3954309173    15.3624969415
Cu     11.0391398006     3.5315650006    15.3616333163
Cu     12.2708975110     5.6586830800    15.3727305498
Cu     13.5043427260     7.7832606960    15.3580773080
Cu      1.1981017945     0.6908364395    17.5770524425
Cu      2.4338541967     2.8106724481    17.5684651908
Cu      3.7210236749     4.8859168590    17.5137644310
Cu      4.8900061844     7.0694083748    17.5252169533
Cu      3.6690365007     0.7152041299    17.5233341537
Cu      4.9008882608     2.8122368522    17.5607168217
Cu      6.1289188122     4.9249452030    17.5397163975
Cu      7.2960527878     7.0910553639    17.7532280797
Cu      6.1414372410     0.6966349598    17.5555418410
Cu      7.3537418022     2.7965847776    17.5135634065
Cu      8.5992124851     4.7905258862    17.5682100483
Cu      9.8545455148     7.0810420083    17.5149409919
Cu      8.5801895539     0.6805262282    17.5485466775
Cu      9.8088396332     2.7867797770    17.5099879284
Cu     11.0230400942     4.8795466134    17.4732710831
Cu     12.2849998645     7.0971191161    17.5124211997
O       9.1762020490     4.3797137338    20.7429287503
O       8.7152971439     6.5362457966    19.0673181858
O       8.6254636345     4.5473568544    23.4567618845
C       8.5521962426     5.5481556988    21.2826854377
C       9.0231920956     6.7379213026    20.4577848678
C       8.9238452104     5.7595618794    22.7455640066
H       7.4531553537     5.4549903888    21.1968531849
H      10.1173850495     6.8382527717    20.5643062555
H       8.5488703966     7.6727661045    20.8151308923
H       8.3337927007     6.6001869473    23.1526665829
H       9.9989069372     5.9958805466    22.8187302646
H       9.0156306422     3.6498909982    21.3642348658
H      11.5229650965     5.8534362520    18.6882316201
H       9.1753303896     4.5293815372    24.2523031060
O      12.2724947623     5.6208242457    19.4015132839
H      13.1002220774     5.7435204411    18.7628025170
80
Step 2 | ATOMIC_POSITIONS (angstrom) | Cartesian Angstrom
Ni      1.2286497520     0.7093615510    11.2500000000
Ni      2.4572990100     2.8374462050    11.2500000000
Ni      3.6859482670     4.9655308580    11.2500000000
Ni      4.9145975240     7.0936155120    11.2500000000
Ni      3.6859497520     0.7093615510    11.2500000000
Ni      4.9145990100     2.8374462050    11.2500000000
Ni      6.1432482670     4.9655308580    11.2500000000
Ni      7.3718975240     7.0936155120    11.2500000000
Ni      6.1432497520     0.7093615510    11.2500000000
Ni      7.3718990100     2.8374462050    11.2500000000
Ni      8.6005482670     4.9655308580    11.2500000000
Ni      9.8291975240     7.0936155120    11.2500000000
Ni      8.6005497520     0.7093615510    11.2500000000
Ni      9.8291990100     2.8374462050    11.2500000000
Ni     11.0578482670     4.9655308580    11.2500000000
Ni     12.2864975240     7.0936155120    11.2500000000
Ni      4.9102925729     8.5017181889    13.3026138762
Ni     11.0478246347     2.1236691008    13.2962507191
Ni     12.2744112240     4.2533388802    13.2920929457
Ni     13.5060429017     6.3737368793    13.2960519076
Ni      7.3602553903     8.5069699628    13.3103773004
Ni      3.6737186675     2.1207099055    13.2935472708
Ni      4.9104396510     4.2492365124    13.2936147464
Ni      6.1378801761     6.3786625905    13.3146190087
Ni      9.8163255592     8.5076437953    13.3034415762
Ni      6.1317827309     2.1222596044    13.2949144990
Ni      7.3645614317     4.2591869266    13.3111368692
Ni      8.5858994880     6.3839476761    13.3184790226
Ni     12.2732396844     8.5042047160    13.3038447464
Ni      8.5914963270     2.1309247377    13.2976905708
Ni      9.8192390835     4.2569693074    13.2993018979
Ni     11.0450843455     6.3835563350    13.2983231036
Cu      2.4355474120     1.4074602904    15.3678675988
Cu      3.6674006234     3.5318205198    15.3579947189
Cu      4.9023944065     5.6550617745    15.3661029819
Cu      6.1444876990     7.7807930152    15.4093713218
Cu      4.9004595832     1.4083051661    15.3645440659
Cu      6.1335718222     3.5338274485    15.3650937782
Cu      7.3705226755     5.6725418790    15.4343403040
Cu      8.5771277177     7.7898013520    15.3953583459
Cu      7.3598285468     1.4028119438    15.3590028111
Cu      8.5898369956     3.5444044811    15.3737739088
Cu      9.8131757150     5.6677456751    15.3734035068
Cu     11.0343142456     7.7851914599    15.3842916921
Cu      9.8097445624     1.3960005586    15.3629305944
Cu     11.0428221073     3.5288815937    15.3592832408
Cu     12.2735385700     5.6592886197    15.3705271399
Cu     13.5052163950     7.7820045419    15.3599703933
Cu      1.1982221808     0.6893242696    17.5737959880
Cu      2.4363105674     2.8020573091    17.5663908311
Cu      3.7524527126     4.8477215529    17.4365022694
Cu      4.8946416469     7.0689252098    17.5226626095
Cu      3.6675392312     0.7148028466    17.5225724196
Cu      4.9039157248     2.8058709612    17.5621864488
Cu      6.1266380411     4.9267681582    17.5427832508
Cu      7.2986336559     7.0900299382    17.7597393793
Cu      6.1397457121     0.6969708733    17.5532358174
Cu      7.3465454188     2.7863962889    17.5160865534
Cu      8.5955925436     4.8301197428    17.5890654266
Cu      9.8536201502     7.0820905064    17.5226522315
Cu      8.5823617458     0.6824058151    17.5467629402
Cu      9.8146530283     2.7712605817    17.5139821854
Cu     11.0025714872     4.8478654265    17.4192819428
Cu     12.2858887250     7.1293570374    17.4746978490
O       9.1788989230     4.3848897717    20.7418692519
O       8.7113470920     6.5351546483    19.0552609492
O       8.6231376928     4.5464421059    23.4541732058
C       8.5519713236     5.5458983700    21.2788013779
C       9.0212709892     6.7352005073    20.4487067654
C       8.9236235398     5.7591652635    22.7454564189
H       7.4521445420     5.4553354433    21.1962354809
H      10.1154427185     6.8381843401    20.5629930418
H       8.5496415270     7.6675189387    20.8124603401
H       8.3361092778     6.6013638661    23.1530186160
H       9.9985767826     5.9962630217    22.8188057354
H       9.0144025241     3.6498922067    21.3679635751
H      11.5212048775     5.8772088558    18.7551638046
H       9.1756971507     4.5267400915    24.2561021649
O      12.2664258368     5.6177825332    19.4448007024
H      13.0987959474     5.7773450044    18.8418615325
80
Step 3 | ATOMIC_POSITIONS (angstrom) | Cartesian Angstrom
Ni      1.2286497520     0.7093615510    11.2500000000
Ni      2.4572990100     2.8374462050    11.2500000000
Ni      3.6859482670     4.9655308580    11.2500000000
Ni      4.9145975240     7.0936155120    11.2500000000
Ni      3.6859497520     0.7093615510    11.2500000000
Ni      4.9145990100     2.8374462050    11.2500000000
Ni      6.1432482670     4.9655308580    11.2500000000
Ni      7.3718975240     7.0936155120    11.2500000000
Ni      6.1432497520     0.7093615510    11.2500000000
Ni      7.3718990100     2.8374462050    11.2500000000
Ni      8.6005482670     4.9655308580    11.2500000000
Ni      9.8291975240     7.0936155120    11.2500000000
Ni      8.6005497520     0.7093615510    11.2500000000
Ni      9.8291990100     2.8374462050    11.2500000000
Ni     11.0578482670     4.9655308580    11.2500000000
Ni     12.2864975240     7.0936155120    11.2500000000
Ni      4.9103211108     8.5018003512    13.3024114439
Ni     11.0481758520     2.1236240265    13.2959616665
Ni     12.2747984634     4.2523678678    13.2912559352
Ni     13.5068435924     6.3755363641    13.2941336066
Ni      7.3597413235     8.5064813114    13.3078444634
Ni      3.6741860579     2.1213930804    13.2941992915
Ni      4.9100092974     4.2501140175    13.2937765346
Ni      6.1371957944     6.3792759681    13.3155437894
Ni      9.8178735812     8.5071184165    13.3023886661
Ni      6.1323947055     2.1232794423    13.2942933027
Ni      7.3642417538     4.2587204293    13.3086847713
Ni      8.5867871282     6.3814874409    13.3161401301
Ni     12.2739846140     8.5033977744    13.3023853438
Ni      8.5924347725     2.1287859460    13.2978505916
Ni      9.8188299620     4.2558249240    13.2982774778
Ni     11.0476572213     6.3833201753    13.2981085397
Cu      2.4364598195     1.4057453559    15.3669372165
Cu      3.6662568642     3.5253952093    15.3515523582
Cu      4.9043931864     5.6604878744    15.3582620445
Cu      6.1453370707     7.7818018311    15.4097631650
Cu      4.9024197713     1.4076455284    15.3669887105
Cu      6.1323427366     3.5330845196    15.3632753826
Cu      7.3689880281     5.6711199384    15.4301461656
Cu      8.5785641922     7.7911738684    15.3937530682
Cu      7.3594630183     1.4022379867    15.3578423529
Cu      8.5883378705     3.5420120270    15.3704950024
Cu      9.8109770090     5.6693276292    15.3685946647
Cu     11.0302232098     7.7851256801    15.3824694952
Cu      9.8101371048     1.3963346903    15.3629280484
Cu     11.0466268744     3.5226415954    15.3510899356
Cu     12.2762625087     5.6606707434    15.3643790695
Cu     13.5074898354     7.7819484548    15.3596207058
Cu      1.1996224384     0.6848710564    17.5690782968
Cu      2.4401830447     2.7897297282    17.5651859060
Cu      3.7703848788     4.8258221441    17.3590932240
Cu      4.8988048116     7.0664217199    17.5198270521
Cu      3.6656887144     0.7132422125    17.5213417216
Cu      4.9108464310     2.7915103269    17.5657642800
Cu      6.1280539591     4.9279771724    17.5475336615
Cu      7.2975814767     7.0914701483    17.7667483799
Cu      6.1356475839     0.6979935157    17.5503799465
Cu      7.3426157745     2.7802427937    17.5195723678
Cu      8.5889521779     4.8717095131    17.6182870535
Cu      9.8577981218     7.0842929313    17.5310765078
Cu      8.5865886378     0.6859820799    17.5447341265
Cu      9.8145328404     2.7554612987    17.5200904979
Cu     10.9919044657     4.8246446765    17.3624697158
Cu     12.2869339638     7.1558738851    17.4269239681
O       9.1816521594     4.3774260141    20.7473680769
O       8.7079316508     6.5326598255    19.0468758568
O       8.6264670100     4.5447471242    23.4600746039
C       8.5509285724     5.5490070132    21.2741839104
C       9.0191296686     6.7302653519    20.4403279031
C       8.9233384834     5.7601212371    22.7423116801
H       7.4505419846     5.4549943056    21.1949660470
H      10.1111083166     6.8372239835    20.5581636615
H       8.5494114495     7.6604520989    20.8061806690
H       8.3391326696     6.6027649241    23.1533420763
H       9.9981470132     5.9962400329    22.8187047360
H       9.0151563960     3.6588395670    21.3649877424
H      11.5274620207     5.8998903774    18.8468346967
H       9.1692999631     4.5229038422    24.2517046478
O      12.2615827826     5.6182048229    19.4875533533
H      13.0887354699     5.8094983398    18.9414841865
80
Step 4 | ATOMIC_POSITIONS (angstrom) | Cartesian Angstrom
Ni      1.2286497520     0.7093615510    11.2500000000
Ni      2.4572990100     2.8374462050    11.2500000000
Ni      3.6859482670     4.9655308580    11.2500000000
Ni      4.9145975240     7.0936155120    11.2500000000
Ni      3.6859497520     0.7093615510    11.2500000000
Ni      4.9145990100     2.8374462050    11.2500000000
Ni      6.1432482670     4.9655308580    11.2500000000
Ni      7.3718975240     7.0936155120    11.2500000000
Ni      6.1432497520     0.7093615510    11.2500000000
Ni      7.3718990100     2.8374462050    11.2500000000
Ni      8.6005482670     4.9655308580    11.2500000000
Ni      9.8291975240     7.0936155120    11.2500000000
Ni      8.6005497520     0.7093615510    11.2500000000
Ni      9.8291990100     2.8374462050    11.2500000000
Ni     11.0578482670     4.9655308580    11.2500000000
Ni     12.2864975240     7.0936155120    11.2500000000
Ni      4.9107597632     8.5020650410    13.3022429351
Ni     11.0486409238     2.1227743877    13.2950060551
Ni     12.2753434987     4.2517525649    13.2892750860
Ni     13.5076239141     6.3772995711    13.2913710836
Ni      7.3596976170     8.5058897062    13.3052369264
Ni      3.6749910646     2.1211382112    13.2943839675
Ni      4.9095521503     4.2510136094    13.2931778409
Ni      6.1372291298     6.3801346429    13.3156767587
Ni      9.8190178806     8.5068588873    13.3012022664
Ni      6.1329017564     2.1238938618    13.2936755887
Ni      7.3637828299     4.2580900147    13.3061055553
Ni      8.5875159442     6.3796539294    13.3135559334
Ni     12.2747002080     8.5028187745    13.3011157186
Ni      8.5933500794     2.1265421935    13.2976987861
Ni      9.8186968053     4.2545445384    13.2968088127
Ni     11.0499578262     6.3828415044    13.2973890301
Cu      2.4375944161     1.4028335410    15.3653698676
Cu      3.6658255080     3.5147224453    15.3378459938
Cu      4.9095993467     5.6667849258    15.3454907425
Cu      6.1470670948     7.7829565892    15.4097596112
Cu      4.9044020535     1.4068122665    15.3686797957
Cu      6.1308144560     3.5330724605    15.3620627360
Cu      7.3680567938     5.6693447478    15.4259915703
Cu      8.5795466717     7.7918707905    15.3917912276
Cu      7.3594429366     1.4010980639    15.3562843504
Cu      8.5875239399     3.5413778059    15.3709159095
Cu      9.8065887747     5.6710577646    15.3611631159
Cu     11.0247858271     7.7857485803    15.3774559781
Cu      9.8103926639     1.3963067327    15.3623451098
Cu     11.0492908528     3.5136215235    15.3373087140
Cu     12.2781538306     5.6622839869    15.3532679692
Cu     13.5111753720     7.7836745807    15.3554552021
Cu      1.2018721116     0.6784660963    17.5637137231
Cu      2.4444713885     2.7778730414    17.5653708105
Cu      3.7724149466     4.8217947360    17.2982854238
Cu      4.9009455743     7.0623927681    17.5171568260
Cu      3.6639761233     0.7098259759    17.5197847007
Cu      4.9188601416     2.7753565896    17.5710825854
Cu      6.1312643518     4.9275338173    17.5529037747
Cu      7.2925538565     7.0957788647    17.7723875798
Cu      6.1309716861     0.6989818076    17.5477883897
Cu      7.3435622778     2.7803250986    17.5232285107
Cu      8.5825167722     4.9040358034    17.6500673158
Cu      9.8667070618     7.0874715475    17.5379523955
Cu      8.5913524772     0.6895750855    17.5431684071
Cu      9.8091803994     2.7452566677    17.5273134862
Cu     10.9924644626     4.8143344719    17.3161413178
Cu     12.2881289976     7.1693507224    17.3805469860
O       9.1866983773     4.3905289808    20.7379707670
O       8.7059682487     6.5287913564    19.0433372793
O       8.6180520608     4.5468551337    23.4457236042
C       8.5503385732     5.5447275559    21.2715975728
C       9.0172818097     6.7253698235    20.4339854807
C       8.9237701956     5.7596529778    22.7420739825
H       7.4494614214     5.4541773008    21.1927200849
H      10.1067586266     6.8355045377    20.5508616789
H       8.5478046289     7.6535005351    20.7975283680
H       8.3421730505     6.6039309624    23.1534974397
H       9.9977110131     5.9960662680    22.8177760007
H       9.0118045936     3.6511622844    21.3771307029
H      11.5329603846     5.9222121596    18.9378048395
H       9.1734999651     4.5192203311    24.2620809755
O      12.2574321262     5.6147576193    19.5431011940
H      13.0803277747     5.8394495251    19.0379644734
80
Step 5 | ATOMIC_POSITIONS (angstrom) | Cartesian Angstrom
Ni      1.2286497520     0.7093615510    11.2500000000
Ni      2.4572990100     2.8374462050    11.2500000000
Ni      3.6859482670     4.9655308580    11.2500000000
Ni      4.9145975240     7.0936155120    11.2500000000
Ni      3.6859497520     0.7093615510    11.2500000000
Ni      4.9145990100     2.8374462050    11.2500000000
Ni      6.1432482670     4.9655308580    11.2500000000
Ni      7.3718975240     7.0936155120    11.2500000000
Ni      6.1432497520     0.7093615510    11.2500000000
Ni      7.3718990100     2.8374462050    11.2500000000
Ni      8.6005482670     4.9655308580    11.2500000000
Ni      9.8291975240     7.0936155120    11.2500000000
Ni      8.6005497520     0.7093615510    11.2500000000
Ni      9.8291990100     2.8374462050    11.2500000000
Ni     11.0578482670     4.9655308580    11.2500000000
Ni     12.2864975240     7.0936155120    11.2500000000
Ni      4.9116692743     8.5024963979    13.3018575342
Ni     11.0491756563     2.1209961476    13.2930328758
Ni     12.2759389501     4.2516105315    13.2858277830
Ni     13.5082494641     6.3787369955    13.2877527169
Ni      7.3601861809     8.5052814864    13.3029741027
Ni      3.6760175043     2.1196347223    13.2933908037
Ni      4.9093533226     4.2516753443    13.2914065182
Ni      6.1382618218     6.3811851410    13.3144984927
Ni      9.8195323216     8.5069068630    13.2998723905
Ni      6.1332616155     2.1240243497    13.2931664466
Ni      7.3634179961     4.2572766196    13.3040328479
Ni      8.5879001153     6.3788239047    13.3109758907
Ni     12.2751687757     8.5026246292    13.2999813500
Ni      8.5940199988     2.1248561915    13.2973447139
Ni      9.8186062837     4.2533010970    13.2949018745
Ni     11.0513840605     6.3822917103    13.2957622081
Cu      2.4387113090     1.3989081433    15.3635579535
Cu      3.6662707648     3.5025037632    15.3198936490
Cu      4.9167373636     5.6723527614    15.3302725536
Cu      6.1494651599     7.7840183032    15.4093561206
Cu      4.9061620493     1.4058007152    15.3692996429
Cu      6.1292929886     3.5337064987    15.3619690816
Cu      7.3680178827     5.6675727118    15.4228997783
Cu      8.5798089201     7.7916538506    15.3899722636
Cu      7.3597564071     1.3998716199    15.3548613518
Cu      8.5875373157     3.5423965957    15.3747927243
Cu      9.8010707915     5.6723325164    15.3526343024
Cu     11.0190799321     7.7870511365    15.3695953016
Cu      9.8105012912     1.3960623214    15.3614521234
Cu     11.0502677243     3.5039784221    15.3209842082
Cu     12.2788612125     5.6634489841    15.3378666337
Cu     13.5157112350     7.7868682664    15.3477219841
Cu      1.2039339737     0.6722130620    17.5585250612
Cu      2.4481107000     2.7696278375    17.5666482166
Cu      3.7616070169     4.8318450569    17.2637982775
Cu      4.9003370214     7.0576418454    17.5149513914
Cu      3.6628416380     0.7047633391    17.5181555039
Cu      4.9249164244     2.7636750616    17.5769242842
Cu      6.1336574505     4.9253308831    17.5576393049
Cu      7.2855145025     7.1016586988    17.7762081541
Cu      6.1279514743     0.6993242894    17.5458863888
Cu      7.3486104070     2.7857322744    17.5264044967
Cu      8.5788786385     4.9219043201    17.6792976431
Cu      9.8778670953     7.0906282764    17.5426252678
Cu      8.5949767867     0.6915471584    17.5423649401
Cu      9.8017595866     2.7431811670    17.5343238932
Cu     11.0019609581     4.8164540815    17.2880093181
Cu     12.2895551046     7.1679780098    17.3449823458
O       9.1876191908     4.3823421505    20.7430926340
O       8.7052499292     6.5246529595    19.0420658630
O       8.6216154623     4.5461328873    23.4507982707
C       8.5501154071     5.5457383086    21.2695507512
C       9.0142289506     6.7215106226    20.4326421447
C       8.9235612737     5.7613550818    22.7388086599
H       7.4485114152     5.4524825335    21.1903377374
H      10.1040369829     6.8332531301    20.5429649420
H       8.5447958425     7.6485119418    20.7883118367
H       8.3447371860     6.6050511255    23.1531913884
H       9.9980810638     5.9954280884    22.8164268891
H       9.0131006406     3.6584738389    21.3747079402
H      11.5350343412     5.9433103970    19.0141917204
H       9.1653006265     4.5160475194    24.2542956088
O      12.2552971691     5.6054320748    19.6041823072
H      13.0758850233     5.8653722453    19.1186394102
80
Step 6 | ATOMIC_POSITIONS (angstrom) | Cartesian Angstrom
Ni      1.2286497520     0.7093615510    11.2500000000
Ni      2.4572990100     2.8374462050    11.2500000000
Ni      3.6859482670     4.9655308580    11.2500000000
Ni      4.9145975240     7.0936155120    11.2500000000
Ni      3.6859497520     0.7093615510    11.2500000000
Ni      4.9145990100     2.8374462050    11.2500000000
Ni      6.1432482670     4.9655308580    11.2500000000
Ni      7.3718975240     7.0936155120    11.2500000000
Ni      6.1432497520     0.7093615510    11.2500000000
Ni      7.3718990100     2.8374462050    11.2500000000
Ni      8.6005482670     4.9655308580    11.2500000000
Ni      9.8291975240     7.0936155120    11.2500000000
Ni      8.6005497520     0.7093615510    11.2500000000
Ni      9.8291990100     2.8374462050    11.2500000000
Ni     11.0578482670     4.9655308580    11.2500000000
Ni     12.2864975240     7.0936155120    11.2500000000
Ni      4.9140254403     8.5034219636    13.3003612651
Ni     11.0501807345     2.1165533737    13.2877670634
Ni     12.2768753139     4.2518049718    13.2772887344
Ni     13.5092036097     6.3805743578    13.2800582742
Ni      7.3616495845     8.5042098321    13.2998617136
Ni      3.6778162153     2.1150707560    13.2890519655
Ni      4.9098423893     4.2522201793    13.2861912068
Ni      6.1416651288     6.3832312797    13.3099907435
Ni      9.8193366528     8.5073161418    13.2971845484
Ni      6.1337457652     2.1237574523    13.2926215462
Ni      7.3632389280     4.2556483066    13.3019810975
Ni      8.5878634737     6.3789082288    13.3066665194
Ni     12.2755100157     8.5029694711    13.2978387851
Ni      8.5946767008     2.1234639619    13.2968021227
Ni      9.8180356075     4.2513433524    13.2909683383
Ni     11.0519861932     6.3814850908    13.2909797133
Cu      2.4403248583     1.3912300865    15.3605997258
Cu      3.6682921691     3.4850214467    15.2902726968
Cu      4.9286259601     5.6785329524    15.3053822250
Cu      6.1540319688     7.7852905643    15.4080927316
Cu      4.9087024087     1.4038046853    15.3689601692
Cu      6.1271490011     3.5353291613    15.3636587749
Cu      7.3692203648     5.6649567537    15.4200675624
Cu      8.5791880711     7.7898557602    15.3875838577
Cu      7.3606885210     1.3984624105    15.3533366717
Cu      8.5886037922     3.5457565696    15.3850750206
Cu      9.7922013447     5.6729648353    15.3389442508
Cu     11.0107004079     7.7897626952    15.3534813647
Cu      9.8105678913     1.3957024632    15.3600227544
Cu     11.0495052018     3.4904088558    15.2951606788
Cu     12.2785764372     5.6638092337    15.3068827049
Cu     13.5234923723     7.7932474506    15.3309040419
Cu      1.2054749288     0.6649277837    17.5505374838
Cu      2.4523439009     2.7630673335    17.5694188798
Cu      3.7320815711     4.8609478579    17.2440389429
Cu      4.8953452243     7.0495698656    17.5118579831
Cu      3.6622617092     0.6947950045    17.5154525112
Cu      4.9295120955     2.7559311108    17.5858944217
Cu      6.1334246592     4.9197567785    17.5632996868
Cu      7.2737495480     7.1112057064    17.7803576718
Cu      6.1279729061     0.6984364731    17.5436322217
Cu      7.3605860527     2.7996145285    17.5305292144
Cu      8.5788667729     4.9302687452    17.7213719952
Cu      9.8965787108     7.0944707531    17.5475434691
Cu      8.5976921481     0.6908342829    17.5419901350
Cu      9.7910110948     2.7518609799    17.5444972830
Cu     11.0260627290     4.8339410532    17.2683785077
Cu     12.2924456604     7.1474055180    17.3060862063
O       9.1878715326     4.3753366931    20.7473190719
O       8.7047943754     6.5185207939    19.0414390484
O       8.6201957788     4.5472187751    23.4470548522
C       8.5488938360     5.5434795499    21.2694485321
C       9.0128232066     6.7153439047    20.4317538942
C       8.9245134261     5.7615778308    22.7364506805
H       7.4484401542     5.4488217224    21.1863187087
H      10.1007324256     6.8293530464    20.5311140664
H       8.5370185805     7.6454336618    20.7748949654
H       8.3475926341     6.6070497615    23.1521574838
H       9.9990277100     5.9941637874    22.8130957975
H       9.0145684152     3.6637531009    21.3750360903
H      11.5390373198     5.9725469061    19.1219599733
H       9.1583211631     4.5121294787    24.2491582807
O      12.2533436452     5.5874466328    19.6985380666
H      13.0701867481     5.9002944206    19.2304690209
80
Step 7 | ATOMIC_POSITIONS (angstrom) | Cartesian Angstrom
Ni      1.2286497520     0.7093615510    11.2500000000
Ni      2.4572990100     2.8374462050    11.2500000000
Ni      3.6859482670     4.9655308580    11.2500000000
Ni      4.9145975240     7.0936155120    11.2500000000
Ni      3.6859497520     0.7093615510    11.2500000000
Ni      4.9145990100     2.8374462050    11.2500000000
Ni      6.1432482670     4.9655308580    11.2500000000
Ni      7.3718975240     7.0936155120    11.2500000000
Ni      6.1432497520     0.7093615510    11.2500000000
Ni      7.3718990100     2.8374462050    11.2500000000
Ni      8.6005482670     4.9655308580    11.2500000000
Ni      9.8291975240     7.0936155120    11.2500000000
Ni      8.6005497520     0.7093615510    11.2500000000
Ni      9.8291990100     2.8374462050    11.2500000000
Ni     11.0578482670     4.9655308580    11.2500000000
Ni     12.2864975240     7.0936155120    11.2500000000
Ni      4.9174532419     8.5046642776    13.2972201583
Ni     11.0514448865     2.1103782862    13.2798424039
Ni     12.2777383325     4.2516154312    13.2644788324
Ni     13.5105366903     6.3822363004    13.2691970135
Ni      7.3638198628     8.5028765924    13.2970719635
Ni      3.6797528470     2.1081008270    13.2810343176
Ni      4.9116283966     4.2519511967    13.2778790542
Ni      6.1470490666     6.3856772773    13.3022130316
Ni      9.8182139539     8.5079494515    13.2932923226
Ni      6.1343328945     2.1232124875    13.2924523953
Ni      7.3636932463     4.2535503353    13.3017434364
Ni      8.5872352570     6.3801502155    13.3018733558
Ni     12.2753830522     8.5042148434    13.2944348352
Ni      8.5948515998     2.1235749253    13.2966988221
Ni      9.8165326785     4.2492792697    13.2858263502
Ni     11.0504414263     6.3811000369    13.2825562721
Cu      2.4418795638     1.3826518911    15.3577174258
Cu      3.6714151727     3.4738819070    15.2650571083
Cu      4.9382288346     5.6805173088    15.2830281066
Cu      6.1589462590     7.7856265051    15.4061803267
Cu      4.9110838599     1.4013921046    15.3677655790
Cu      6.1255695332     3.5369978569    15.3671496639
Cu      7.3714099699     5.6626728463    15.4197158925
Cu      8.5779358851     7.7864155145    15.3858419984
Cu      7.3619903872     1.3982905949    15.3529524436
Cu      8.5904527864     3.5500539819    15.3986726520
Cu      9.7852262510     5.6715380470    15.3266082989
Cu     11.0045028888     7.7923508785    15.3348291798
Cu      9.8106884716     1.3958452349    15.3591171177
Cu     11.0470633426     3.4813758496    15.2734571338
Cu     12.2775233298     5.6618410171    15.2697198082
Cu     13.5306672073     7.7996472497    15.3108414007
Cu      1.2037023667     0.6626371233    17.5423951214
Cu      2.4547923894     2.7634101426    17.5720853189
Cu      3.6951361751     4.8975956490    17.2522400249
Cu      4.8868949038     7.0415692010    17.5086990409
Cu      3.6634948376     0.6840318414    17.5124418685
Cu      4.9282885856     2.7600802074    17.5939228958
Cu      6.1274389836     4.9132395324    17.5665192692
Cu      7.2631337381     7.1183390842    17.7835649765
Cu      6.1345485345     0.6962926059    17.5415422387