80
Step 1 | ATOMIC_POSITIONS (angstrom) | Cartesian Angstrom
Ni      1.2286497520     0.7093615510    11.2500000000
Ni      2.4572990100     2.8374462050    11.2500000000
Ni      3.6859482670     4.9655308580    11.2500000000
Ni      4.9145975240     7.0936155120    11.2500000000
Ni      3.6859497520     0.7093615510    11.2500000000
Ni      4.9145990100     2.8374462050    11.2500000000
Ni      6.1432482670     4.9655308580    11.2500000000
Ni      7.3718975240     7.0936155120    11.2500000000
Ni      6.1432497520     0.7093615510    11.2500000000
Ni      7.3718990100     2.8374462050    11.2500000000
Ni      8.6005482670     4.9655308580    11.2500000000
Ni      9.8291975240     7.0936155120    11.2500000000
Ni      8.6005497520     0.7093615510    11.2500000000
Ni      9.8291990100     2.8374462050    11.2500000000
Ni     11.0578482670     4.9655308580    11.2500000000
Ni     12.2864975240     7.0936155120    11.2500000000
Ni      4.9104360979     8.5018035901    13.3029430733
Ni     11.0475592756     2.1234023141    13.2963367961
Ni     12.2741632984     4.2542741179    13.2923056294
Ni     13.5054246501     6.3723178078    13.2972175646
Ni      7.3609334001     8.5072606908    13.3122507558
Ni      3.6735680669     2.1198080601    13.2931295330
Ni      4.9106505343     4.2486462166    13.2932604998
Ni      6.1387232950     6.3782539195    13.3136490909
Ni      9.8148929544     8.5082047582    13.3042302158
Ni      6.1312647923     2.1212135251    13.2953562085
Ni      7.3646390440     4.2595064668    13.3127772604
Ni      8.5851766782     6.3861370727    13.3201952966
Ni     12.2727411383     8.5049694270    13.3052132909
Ni      8.5908261918     2.1323257132    13.2972618371
Ni      9.8199217952     4.2577822414    13.2998765703
Ni     11.0430305294     6.3834494011    13.2984230353
Cu      2.4350217379     1.4083178063    15.3681449185
Cu      3.6687440321     3.5336544114    15.3582195274
Cu      4.9031601175     5.6517534629    15.3688207500
Cu      6.1442944905     7.7800521833    15.4089336516
Cu      4.8989234736     1.4088089568    15.3623127741
Cu      6.1343192522     3.5349749198    15.3667204214
Cu      7.3720077622     5.6733182501    15.4374782278
Cu      8.5758665738     7.7882845004    15.3963165350
Cu      7.3603987839     1.4026131719    15.3595067066
Cu      8.5915126305     3.5476581646    15.3792080747
Cu      9.8132469051     5.6667932432    15.3751749027
Cu     11.0364900914     7.7855929668    15.3840056572
Cu      9.8092901274     1.3954309173    15.3624969415
Cu     11.0391398006     3.5315650006    15.3616333163
Cu     12.2708975110     5.6586830800    15.3727305498
Cu     13.5043427260     7.7832606960    15.3580773080
Cu      1.1981017945     0.6908364395    17.5770524425
Cu      2.4338541967     2.8106724481    17.5684651908
Cu      3.7210236749     4.8859168590    17.5137644310
Cu      4.8900061844     7.0694083748    17.5252169533
Cu      3.6690365007     0.7152041299    17.5233341537
Cu      4.9008882608     2.8122368522    17.5607168217
Cu      6.1289188122     4.9249452030    17.5397163975
Cu      7.2960527878     7.0910553639    17.7532280797
Cu      6.1414372410     0.6966349598    17.5555418410
Cu      7.3537418022     2.7965847776    17.5135634065
Cu      8.5992124851     4.7905258862    17.5682100483
Cu      9.8545455148     7.0810420083    17.5149409919
Cu      8.5801895539     0.6805262282    17.5485466775
Cu      9.8088396332     2.7867797770    17.5099879284
Cu     11.0230400942     4.8795466134    17.4732710831
Cu     12.2849998645     7.0971191161    17.5124211997
O       9.1762020490     4.3797137338    20.7429287503
O       8.7152971439     6.5362457966    19.0673181858
O       8.6254636345     4.5473568544    23.4567618845
C       8.5521962426     5.5481556988    21.2826854377
C       9.0231920956     6.7379213026    20.4577848678
C       8.9238452104     5.7595618794    22.7455640066
H       7.4531553537     5.4549903888    21.1968531849
H      10.1173850495     6.8382527717    20.5643062555
H       8.5488703966     7.6727661045    20.8151308923
H       8.3337927007     6.6001869473    23.1526665829
H       9.9989069372     5.9958805466    22.8187302646
H       9.0156306422     3.6498909982    21.3642348658
H      11.5229650965     5.8534362520    18.6882316201
H       9.1753303896     4.5293815372    24.2523031060
O      12.2724947623     5.6208242457    19.4015132839
H      13.1002220774     5.7435204411    18.7628025170
80
Step 2 | ATOMIC_POSITIONS (angstrom) | Cartesian Angstrom
Ni      1.2286497520     0.7093615510    11.2500000000
Ni      2.4572990100     2.8374462050    11.2500000000
Ni      3.6859482670     4.9655308580    11.2500000000
Ni      4.9145975240     7.0936155120    11.2500000000
Ni      3.6859497520     0.7093615510    11.2500000000
Ni      4.9145990100     2.8374462050    11.2500000000
Ni      6.1432482670     4.9655308580    11.2500000000
Ni      7.3718975240     7.0936155120    11.2500000000
Ni      6.1432497520     0.7093615510    11.2500000000
Ni      7.3718990100     2.8374462050    11.2500000000
Ni      8.6005482670     4.9655308580    11.2500000000
Ni      9.8291975240     7.0936155120    11.2500000000
Ni      8.6005497520     0.7093615510    11.2500000000
Ni      9.8291990100     2.8374462050    11.2500000000
Ni     11.0578482670     4.9655308580    11.2500000000
Ni     12.2864975240     7.0936155120    11.2500000000
Ni      4.9102925729     8.5017181889    13.3026138762
Ni     11.0478246347     2.1236691008    13.2962507191
Ni     12.2744112240     4.2533388802    13.2920929457
Ni     13.5060429017     6.3737368793    13.2960519076
Ni      7.3602553903     8.5069699628    13.3103773004
Ni      3.6737186675     2.1207099055    13.2935472708
Ni      4.9104396510     4.2492365124    13.2936147464
Ni      6.1378801761     6.3786625905    13.3146190087
Ni      9.8163255592     8.5076437953    13.3034415762
Ni      6.1317827309     2.1222596044    13.2949144990
Ni      7.3645614317     4.2591869266    13.3111368692
Ni      8.5858994880     6.3839476761    13.3184790226
Ni     12.2732396844     8.5042047160    13.3038447464
Ni      8.5914963270     2.1309247377    13.2976905708
Ni      9.8192390835     4.2569693074    13.2993018979
Ni     11.0450843455     6.3835563350    13.2983231036
Cu      2.4355474120     1.4074602904    15.3678675988
Cu      3.6674006234     3.5318205198    15.3579947189
Cu      4.9023944065     5.6550617745    15.3661029819
Cu      6.1444876990     7.7807930152    15.4093713218
Cu      4.9004595832     1.4083051661    15.3645440659
Cu      6.1335718222     3.5338274485    15.3650937782
Cu      7.3705226755     5.6725418790    15.4343403040
Cu      8.5771277177     7.7898013520    15.3953583459
Cu      7.3598285468     1.4028119438    15.3590028111
Cu      8.5898369956     3.5444044811    15.3737739088
Cu      9.8131757150     5.6677456751    15.3734035068
Cu     11.0343142456     7.7851914599    15.3842916921
Cu      9.8097445624     1.3960005586    15.3629305944
Cu     11.0428221073     3.5288815937    15.3592832408
Cu     12.2735385700     5.6592886197    15.3705271399
Cu     13.5052163950     7.7820045419    15.3599703933
Cu      1.1982221808     0.6893242696    17.5737959880
Cu      2.4363105674     2.8020573091    17.5663908311
Cu      3.7524527126     4.8477215529    17.4365022694
Cu      4.8946416469     7.0689252098    17.5226626095
Cu      3.6675392312     0.7148028466    17.5225724196
Cu      4.9039157248     2.8058709612    17.5621864488
Cu      6.1266380411     4.9267681582    17.5427832508
Cu      7.2986336559     7.0900299382    17.7597393793
Cu      6.1397457121     0.6969708733    17.5532358174
Cu      7.3465454188     2.7863962889    17.5160865534
Cu      8.5955925436     4.8301197428    17.5890654266
Cu      9.8536201502     7.0820905064    17.5226522315
Cu      8.5823617458     0.6824058151    17.5467629402
Cu      9.8146530283     2.7712605817    17.5139821854
Cu     11.0025714872     4.8478654265    17.4192819428
Cu     12.2858887250     7.1293570374    17.4746978490
O       9.1788989230     4.3848897717    20.7418692519
O       8.7113470920     6.5351546483    19.0552609492
O       8.6231376928     4.5464421059    23.4541732058
C       8.5519713236     5.5458983700    21.2788013779
C       9.0212709892     6.7352005073    20.4487067654
C       8.9236235398     5.7591652635    22.7454564189
H       7.4521445420     5.4553354433    21.1962354809
H      10.1154427185     6.8381843401    20.5629930418
H       8.5496415270     7.6675189387    20.8124603401
H       8.3361092778     6.6013638661    23.1530186160
H       9.9985767826     5.9962630217    22.8188057354
H       9.0144025241     3.6498922067    21.3679635751
H      11.5212048775     5.8772088558    18.7551638046
H       9.1756971507     4.5267400915    24.2561021649
O      12.2664258368     5.6177825332    19.4448007024
H      13.0987959474     5.7773450044    18.8418615325
80
Step 3 | ATOMIC_POSITIONS (angstrom) | Cartesian Angstrom
Ni      1.2286497520     0.7093615510    11.2500000000
Ni      2.4572990100     2.8374462050    11.2500000000
Ni      3.6859482670     4.9655308580    11.2500000000
Ni      4.9145975240     7.0936155120    11.2500000000
Ni      3.6859497520     0.7093615510    11.2500000000
Ni      4.9145990100     2.8374462050    11.2500000000
Ni      6.1432482670     4.9655308580    11.2500000000
Ni      7.3718975240     7.0936155120    11.2500000000
Ni      6.1432497520     0.7093615510    11.2500000000
Ni      7.3718990100     2.8374462050    11.2500000000
Ni      8.6005482670     4.9655308580    11.2500000000
Ni      9.8291975240     7.0936155120    11.2500000000
Ni      8.6005497520     0.7093615510    11.2500000000
Ni      9.8291990100     2.8374462050    11.2500000000
Ni     11.0578482670     4.9655308580    11.2500000000
Ni     12.2864975240     7.0936155120    11.2500000000
Ni      4.9103211108     8.5018003512    13.3024114439
Ni     11.0481758520     2.1236240265    13.2959616665
Ni     12.2747984634     4.2523678678    13.2912559352
Ni     13.5068435924     6.3755363641    13.2941336066
Ni      7.3597413235     8.5064813114    13.3078444634
Ni      3.6741860579     2.1213930804    13.2941992915
Ni      4.9100092974     4.2501140175    13.2937765346
Ni      6.1371957944     6.3792759681    13.3155437894
Ni      9.8178735812     8.5071184165    13.3023886661
Ni      6.1323947055     2.1232794423    13.2942933027
Ni      7.3642417538     4.2587204293    13.3086847713
Ni      8.5867871282     6.3814874409    13.3161401301
Ni     12.2739846140     8.5033977744    13.3023853438
Ni      8.5924347725     2.1287859460    13.2978505916
Ni      9.8188299620     4.2558249240    13.2982774778
Ni     11.0476572213     6.3833201753    13.2981085397
Cu      2.4364598195     1.4057453559    15.3669372165
Cu      3.6662568642     3.5253952093    15.3515523582
Cu      4.9043931864     5.6604878744    15.3582620445
Cu      6.1453370707     7.7818018311    15.4097631650
Cu      4.9024197713     1.4076455284    15.3669887105
Cu      6.1323427366     3.5330845196    15.3632753826
Cu      7.3689880281     5.6711199384    15.4301461656
Cu      8.5785641922     7.7911738684    15.3937530682
Cu      7.3594630183     1.4022379867    15.3578423529
Cu      8.5883378705     3.5420120270    15.3704950024
Cu      9.8109770090     5.6693276292    15.3685946647
Cu     11.0302232098     7.7851256801    15.3824694952
Cu      9.8101371048     1.3963346903    15.3629280484
Cu     11.0466268744     3.5226415954    15.3510899356
Cu     12.2762625087     5.6606707434    15.3643790695
Cu     13.5074898354     7.7819484548    15.3596207058
Cu      1.1996224384     0.6848710564    17.5690782968
Cu      2.4401830447     2.7897297282    17.5651859060
Cu      3.7703848788     4.8258221441    17.3590932240
Cu      4.8988048116     7.0664217199    17.5198270521
Cu      3.6656887144     0.7132422125    17.5213417216
Cu      4.9108464310     2.7915103269    17.5657642800
Cu      6.1280539591     4.9279771724    17.5475336615
Cu      7.2975814767     7.0914701483    17.7667483799
Cu      6.1356475839     0.6979935157    17.5503799465
Cu      7.3426157745     2.7802427937    17.5195723678
Cu      8.5889521779     4.8717095131    17.6182870535
Cu      9.8577981218     7.0842929313    17.5310765078
Cu      8.5865886378     0.6859820799    17.5447341265
Cu      9.8145328404     2.7554612987    17.5200904979
Cu     10.9919044657     4.8246446765    17.3624697158
Cu     12.2869339638     7.1558738851    17.4269239681
O       9.1816521594     4.3774260141    20.7473680769
O       8.7079316508     6.5326598255    19.0468758568
O       8.6264670100     4.5447471242    23.4600746039
C       8.5509285724     5.5490070132    21.2741839104
C       9.0191296686     6.7302653519    20.4403279031
C       8.9233384834     5.7601212371    22.7423116801
H       7.4505419846     5.4549943056    21.1949660470
H      10.1111083166     6.8372239835    20.5581636615
H       8.5494114495     7.6604520989    20.8061806690
H       8.3391326696     6.6027649241    23.1533420763
H       9.9981470132     5.9962400329    22.8187047360
H       9.0151563960     3.6588395670    21.3649877424
H      11.5274620207     5.8998903774    18.8468346967
H       9.1692999631     4.5229038422    24.2517046478
O      12.2615827826     5.6182048229    19.4875533533
H      13.0887354699     5.8094983398    18.9414841865
80
Step 4 | ATOMIC_POSITIONS (angstrom) | Cartesian Angstrom
Ni      1.2286497520     0.7093615510    11.2500000000
Ni      2.4572990100     2.8374462050    11.2500000000
Ni      3.6859482670     4.9655308580    11.2500000000
Ni      4.9145975240     7.0936155120    11.2500000000
Ni      3.6859497520     0.7093615510    11.2500000000
Ni      4.9145990100     2.8374462050    11.2500000000
Ni      6.1432482670     4.9655308580    11.2500000000
Ni      7.3718975240     7.0936155120    11.2500000000
Ni      6.1432497520     0.7093615510    11.2500000000
Ni      7.3718990100     2.8374462050    11.2500000000
Ni      8.6005482670     4.9655308580    11.2500000000
Ni      9.8291975240     7.0936155120    11.2500000000
Ni      8.6005497520     0.7093615510    11.2500000000
Ni      9.8291990100     2.8374462050    11.2500000000
Ni     11.0578482670     4.9655308580    11.2500000000
Ni     12.2864975240     7.0936155120    11.2500000000
Ni      4.9107597632     8.5020650410    13.3022429351
Ni     11.0486409238     2.1227743877    13.2950060551
Ni     12.2753434987     4.2517525649    13.2892750860
Ni     13.5076239141     6.3772995711    13.2913710836
Ni      7.3596976170     8.5058897062    13.3052369264
Ni      3.6749910646     2.1211382112    13.2943839675
Ni      4.9095521503     4.2510136094    13.2931778409
Ni      6.1372291298     6.3801346429    13.3156767587
Ni      9.8190178806     8.5068588873    13.3012022664
Ni      6.1329017564     2.1238938618    13.2936755887
Ni      7.3637828299     4.2580900147    13.3061055553
Ni      8.5875159442     6.3796539294    13.3135559334
Ni     12.2747002080     8.5028187745    13.3011157186
Ni      8.5933500794     2.1265421935    13.2976987861
Ni      9.8186968053     4.2545445384    13.2968088127
Ni     11.0499578262     6.3828415044    13.2973890301
Cu      2.4375944161     1.4028335410    15.3653698676
Cu      3.6658255080     3.5147224453    15.3378459938
Cu      4.9095993467     5.6667849258    15.3454907425
Cu      6.1470670948     7.7829565892    15.4097596112
Cu      4.9044020535     1.4068122665    15.3686797957
Cu      6.1308144560     3.5330724605    15.3620627360
Cu      7.3680567938     5.6693447478    15.4259915703
Cu      8.5795466717     7.7918707905    15.3917912276
Cu      7.3594429366     1.4010980639    15.3562843504
Cu      8.5875239399     3.5413778059    15.3709159095
Cu      9.8065887747     5.6710577646    15.3611631159
Cu     11.0247858271     7.7857485803    15.3774559781
Cu      9.8103926639     1.3963067327    15.3623451098
Cu     11.0492908528     3.5136215235    15.3373087140
Cu     12.2781538306     5.6622839869    15.3532679692
Cu     13.5111753720     7.7836745807    15.3554552021
Cu      1.2018721116     0.6784660963    17.5637137231
Cu      2.4444713885     2.7778730414    17.5653708105
Cu      3.7724149466     4.8217947360    17.2982854238
Cu      4.9009455743     7.0623927681    17.5171568260
Cu      3.6639761233     0.7098259759    17.5197847007
Cu      4.9188601416     2.7753565896    17.5710825854
Cu      6.1312643518     4.9275338173    17.5529037747
Cu      7.2925538565     7.0957788647    17.7723875798
Cu      6.1309716861     0.6989818076    17.5477883897
Cu      7.3435622778     2.7803250986    17.5232285107
Cu      8.5825167722     4.9040358034    17.6500673158
Cu      9.8667070618     7.0874715475    17.5379523955
Cu      8.5913524772     0.6895750855    17.5431684071
Cu      9.8091803994     2.7452566677    17.5273134862
Cu     10.9924644626     4.8143344719    17.3161413178
Cu     12.2881289976     7.1693507224    17.3805469860
O       9.1866983773     4.3905289808    20.7379707670
O       8.7059682487     6.5287913564    19.0433372793
O       8.6180520608     4.5468551337    23.4457236042
C       8.5503385732     5.5447275559    21.2715975728
C       9.0172818097     6.7253698235    20.4339854807
C       8.9237701956     5.7596529778    22.7420739825
H       7.4494614214     5.4541773008    21.1927200849
H      10.1067586266     6.8355045377    20.5508616789
H       8.5478046289     7.6535005351    20.7975283680
H       8.3421730505     6.6039309624    23.1534974397
H       9.9977110131     5.9960662680    22.8177760007
H       9.0118045936     3.6511622844    21.3771307029
H      11.5329603846     5.9222121596    18.9378048395
H       9.1734999651     4.5192203311    24.2620809755
O      12.2574321262     5.6147576193    19.5431011940
H      13.0803277747     5.8394495251    19.0379644734
