80
Step 1 | ATOMIC_POSITIONS (angstrom) | Cartesian Angstrom
Ni      1.2286497520     0.7093615510    11.2500000000
Ni      2.4572990100     2.8374462050    11.2500000000
Ni      3.6859482670     4.9655308580    11.2500000000
Ni      4.9145975240     7.0936155120    11.2500000000
Ni      3.6859497520     0.7093615510    11.2500000000
Ni      4.9145990100     2.8374462050    11.2500000000
Ni      6.1432482670     4.9655308580    11.2500000000
Ni      7.3718975240     7.0936155120    11.2500000000
Ni      6.1432497520     0.7093615510    11.2500000000
Ni      7.3718990100     2.8374462050    11.2500000000
Ni      8.6005482670     4.9655308580    11.2500000000
Ni      9.8291975240     7.0936155120    11.2500000000
Ni      8.6005497520     0.7093615510    11.2500000000
Ni      9.8291990100     2.8374462050    11.2500000000
Ni     11.0578482670     4.9655308580    11.2500000000
Ni     12.2864975240     7.0936155120    11.2500000000
Ni     14.7391156440     8.5053429940    13.3011714150
Ni     11.0531329440     2.1206495290    13.3008022990
Ni     12.2817169740     4.2489790340    13.3006009370
Ni     13.5101985340     6.3773433500    13.3009431250
Ni      7.3672568660     8.5047181050    13.3011773700
Ni      3.6813642390     2.1207834060    13.3007249920
Ni      4.9098915810     4.2493198240    13.3009122650
Ni      6.1382079690     6.3774560510    13.3011135670
Ni      9.8241033230     8.5046823230    13.3010832760
Ni      6.1383369810     2.1207818050    13.3007715320
Ni      7.3668809570     4.2490234570    13.3008058440
Ni      8.5953896190     6.3767159330    13.3009510360
Ni     12.2816608160     8.5051500050    13.3006064560
Ni      8.5958456850     2.1206091640    13.3010363910
Ni      9.8244550650     4.2487038260    13.3007275540
Ni     11.0528529680     6.3769409810    13.3006612510
Cu      2.4478273930     1.4024593490    15.3768195280
Cu      3.6763308060     3.5307008760    15.3768060770
Cu      4.9041378630     5.6597275330    15.3773446700
Cu      6.1330260750     7.7878909920    15.3784795760
Cu      4.9046987940     1.4026027490    15.3777978380
Cu      6.1325026870     3.5313494180    15.3777258640
Cu      7.3610720820     5.6598451510    15.3779275450
Cu      8.5906751570     7.7868955290    15.3785352680
Cu      7.3621786350     1.4037478130    15.3762149870
Cu      8.5904727220     3.5321453650    15.3780682330
Cu      9.8190628610     5.6596863340    15.3769316570
Cu     11.0489114770     7.7874997910    15.3777155250
Cu      9.8196454140     1.4041813300    15.3774701120
Cu     11.0479045230     3.5315147300    15.3771972950
Cu     12.2765483610     5.6595853030    15.3771297580
Cu     13.5054403740     7.7883030910    15.3772812510
Cu      1.2140125070     0.6836802980    17.5697066840
Cu      2.4431554840     2.8116125730    17.5665701770
Cu      3.6705110990     4.9384343220    17.5687388930
Cu      4.8988742140     7.0688538720    17.5715927900
Cu      3.6716454970     0.6829118360    17.5713988440
Cu      4.8981418590     2.8112416660    17.5722076350
Cu      6.1274353450     4.9410331950    17.5708266730
Cu      7.3554752240     7.0698227980    17.5713298580
Cu      6.1297077270     0.6833063410    17.5689100860
Cu      7.3567237630     2.8135682210    17.5698798540
Cu      8.5851063570     4.9421568870    17.5702369000
Cu      9.8152975500     7.0699596350    17.5700617890
Cu      8.5865082000     0.6855772250    17.5667967620
Cu      9.8144914730     2.8135456230    17.5749497460
Cu     11.0427692100     4.9416447890    17.5690865390
Cu     12.2728600100     7.0692517500    17.5719745900
O       4.8319583227     2.8888756518    21.6825570540
O       6.1460538244     3.4913131617    19.2794064127
O       6.1359550250     3.4954379247    24.1268585999
C       6.1385006501     3.4854501982    21.7096644928
C       6.8842212392     3.0929591165    20.4419434523
C       6.8701612423     3.0763059708    22.9753697651
H       5.9580026832     4.5888854255    21.7092311241
H       7.0071819669     1.9838926678    20.4051581291
H       7.8866591529     3.5425285940    20.4078384433
H       7.8781493864     3.5096435114    23.0078227324
H       6.9568146310     1.9700616390    23.0082697400
H       4.9833446751     1.9227458567    21.6866667531
H       3.1055998976     1.7351954578    19.6940802366
H       6.6403501569     3.1943497237    24.8978724365
O       2.5204478320     1.3936933195    19.0551645740
H       1.7490862725     0.9394472732    19.4811596554
80
Step 2 | ATOMIC_POSITIONS (angstrom) | Cartesian Angstrom
Ni      1.2286497520     0.7093615510    11.2500000000
Ni      2.4572990100     2.8374462050    11.2500000000
Ni      3.6859482670     4.9655308580    11.2500000000
Ni      4.9145975240     7.0936155120    11.2500000000
Ni      3.6859497520     0.7093615510    11.2500000000
Ni      4.9145990100     2.8374462050    11.2500000000
Ni      6.1432482670     4.9655308580    11.2500000000
Ni      7.3718975240     7.0936155120    11.2500000000
Ni      6.1432497520     0.7093615510    11.2500000000
Ni      7.3718990100     2.8374462050    11.2500000000
Ni      8.6005482670     4.9655308580    11.2500000000
Ni      9.8291975240     7.0936155120    11.2500000000
Ni      8.6005497520     0.7093615510    11.2500000000
Ni      9.8291990100     2.8374462050    11.2500000000
Ni     11.0578482670     4.9655308580    11.2500000000
Ni     12.2864975240     7.0936155120    11.2500000000
Ni     14.7391156440     8.5053429940    13.3011714150
Ni     11.0531329440     2.1206495290    13.3008022990
Ni     12.2817169740     4.2489790340    13.3006009370
Ni     13.5101985340     6.3773433500    13.3009431250
Ni      7.3672568660     8.5047181050    13.3011773700
Ni      3.6813642390     2.1207834060    13.3007249920
Ni      4.9098915810     4.2493198240    13.3009122650
Ni      6.1382079690     6.3774560510    13.3011135670
Ni      9.8241033230     8.5046823230    13.3010832760
Ni      6.1383369810     2.1207818050    13.3007715320
Ni      7.3668809570     4.2490234570    13.3008058440
Ni      8.5953896190     6.3767159330    13.3009510360
Ni     12.2816608160     8.5051500050    13.3006064560
Ni      8.5958456850     2.1206091640    13.3010363910
Ni      9.8244550650     4.2487038260    13.3007275540
Ni     11.0528529680     6.3769409810    13.3006612510
Cu      2.4478273930     1.4024593490    15.3768195280
Cu      3.6763308060     3.5307008760    15.3768060770
Cu      4.9041378630     5.6597275330    15.3773446700
Cu      6.1330260750     7.7878909920    15.3784795760
Cu      4.9046987940     1.4026027490    15.3777978380
Cu      6.1325026870     3.5313494180    15.3777258640
Cu      7.3610720820     5.6598451510    15.3779275450
Cu      8.5906751570     7.7868955290    15.3785352680
Cu      7.3621786350     1.4037478130    15.3762149870
Cu      8.5904727220     3.5321453650    15.3780682330
Cu      9.8190628610     5.6596863340    15.3769316570
Cu     11.0489114770     7.7874997910    15.3777155250
Cu      9.8196454140     1.4041813300    15.3774701120
Cu     11.0479045230     3.5315147300    15.3771972950
Cu     12.2765483610     5.6595853030    15.3771297580
Cu     13.5054403740     7.7883030910    15.3772812510
Cu      1.2140125070     0.6836802980    17.5697066840
Cu      2.4431554840     2.8116125730    17.5665701770
Cu      3.6705110990     4.9384343220    17.5687388930
Cu      4.8988742140     7.0688538720    17.5715927900
Cu      3.6716454970     0.6829118360    17.5713988440
Cu      4.8981418590     2.8112416660    17.5722076350
Cu      6.1274353450     4.9410331950    17.5708266730
Cu      7.3554752240     7.0698227980    17.5713298580
Cu      6.1297077270     0.6833063410    17.5689100860
Cu      7.3567237630     2.8135682210    17.5698798540
Cu      8.5851063570     4.9421568870    17.5702369000
Cu      9.8152975500     7.0699596350    17.5700617890
Cu      8.5865082000     0.6855772250    17.5667967620
Cu      9.8144914730     2.8135456230    17.5749497460
Cu     11.0427692100     4.9416447890    17.5690865390
Cu     12.2728600100     7.0692517500    17.5719745900
O       4.8001662501     2.8835510030    21.6823270541
O       6.1494486944     3.4954912999    19.2174639069
O       6.1237526111     3.5088725064    24.1364573656
C       6.1268220357     3.4702230909    21.7107248036
C       6.8768945858     3.1045377092    20.4145582031
C       6.8734335838     3.0771284186    22.9888882075
H       5.9590424407     4.5748975237    21.7093428654
H       7.0136627198     1.9807361139    20.4180475133
H       7.9031108698     3.5445110719    20.4149544583
H       7.8962415862     3.5114313493    22.9937130699
H       6.9659448403     1.9608904237    22.9904134648
H       4.9852930687     1.9255684534    21.6910456088
H       3.1779927654     1.7845970099    19.7757771630
H       6.6357143759     3.1977961695    24.9018580133
O       2.5110530246     1.3947320143    19.1782785685
H       1.7118222017     0.9167668056    19.5136232322
80
Step 3 | ATOMIC_POSITIONS (angstrom) | Cartesian Angstrom
Ni      1.2286497520     0.7093615510    11.2500000000
Ni      2.4572990100     2.8374462050    11.2500000000
Ni      3.6859482670     4.9655308580    11.2500000000
Ni      4.9145975240     7.0936155120    11.2500000000
Ni      3.6859497520     0.7093615510    11.2500000000
Ni      4.9145990100     2.8374462050    11.2500000000
Ni      6.1432482670     4.9655308580    11.2500000000
Ni      7.3718975240     7.0936155120    11.2500000000
Ni      6.1432497520     0.7093615510    11.2500000000
Ni      7.3718990100     2.8374462050    11.2500000000
Ni      8.6005482670     4.9655308580    11.2500000000
Ni      9.8291975240     7.0936155120    11.2500000000
Ni      8.6005497520     0.7093615510    11.2500000000
Ni      9.8291990100     2.8374462050    11.2500000000
Ni     11.0578482670     4.9655308580    11.2500000000
Ni     12.2864975240     7.0936155120    11.2500000000
Ni     14.7391156440     8.5053429940    13.3011714150
Ni     11.0531329440     2.1206495290    13.3008022990
Ni     12.2817169740     4.2489790340    13.3006009370
Ni     13.5101985340     6.3773433500    13.3009431250
Ni      7.3672568660     8.5047181050    13.3011773700
Ni      3.6813642390     2.1207834060    13.3007249920
Ni      4.9098915810     4.2493198240    13.3009122650
Ni      6.1382079690     6.3774560510    13.3011135670
Ni      9.8241033230     8.5046823230    13.3010832760
Ni      6.1383369810     2.1207818050    13.3007715320
Ni      7.3668809570     4.2490234570    13.3008058440
Ni      8.5953896190     6.3767159330    13.3009510360
Ni     12.2816608160     8.5051500050    13.3006064560
Ni      8.5958456850     2.1206091640    13.3010363910
Ni      9.8244550650     4.2487038260    13.3007275540
Ni     11.0528529680     6.3769409810    13.3006612510
Cu      2.4478273930     1.4024593490    15.3768195280
Cu      3.6763308060     3.5307008760    15.3768060770
Cu      4.9041378630     5.6597275330    15.3773446700
Cu      6.1330260750     7.7878909920    15.3784795760
Cu      4.9046987940     1.4026027490    15.3777978380
Cu      6.1325026870     3.5313494180    15.3777258640
Cu      7.3610720820     5.6598451510    15.3779275450
Cu      8.5906751570     7.7868955290    15.3785352680
Cu      7.3621786350     1.4037478130    15.3762149870
Cu      8.5904727220     3.5321453650    15.3780682330
Cu      9.8190628610     5.6596863340    15.3769316570
Cu     11.0489114770     7.7874997910    15.3777155250
Cu      9.8196454140     1.4041813300    15.3774701120
Cu     11.0479045230     3.5315147300    15.3771972950
Cu     12.2765483610     5.6595853030    15.3771297580
Cu     13.5054403740     7.7883030910    15.3772812510
Cu      1.2140125070     0.6836802980    17.5697066840
Cu      2.4431554840     2.8116125730    17.5665701770
Cu      3.6705110990     4.9384343220    17.5687388930
Cu      4.8988742140     7.0688538720    17.5715927900
Cu      3.6716454970     0.6829118360    17.5713988440
Cu      4.8981418590     2.8112416660    17.5722076350
Cu      6.1274353450     4.9410331950    17.5708266730
Cu      7.3554752240     7.0698227980    17.5713298580
Cu      6.1297077270     0.6833063410    17.5689100860
Cu      7.3567237630     2.8135682210    17.5698798540
Cu      8.5851063570     4.9421568870    17.5702369000
Cu      9.8152975500     7.0699596350    17.5700617890
Cu      8.5865082000     0.6855772250    17.5667967620
Cu      9.8144914730     2.8135456230    17.5749497460
Cu     11.0427692100     4.9416447890    17.5690865390
Cu     12.2728600100     7.0692517500    17.5719745900
O       4.7936951843     2.8777965024    21.6826872896
O       6.1643777308     3.4937272741    19.1885478611
O       6.1260728706     3.5134149590    24.1360849508
C       6.1097805463     3.4832888063    21.6993542619
C       6.8760027157     3.0968965655    20.3995905133
C       6.8737268707     3.0688707802    22.9876376620
H       5.9580755063     4.5566768820    21.7112084014
H       7.0160702468     1.9939344248    20.4206657330
H       7.9013994483     3.5441891459    20.4171619062
H       7.9003208340     3.5105065728    22.9838208606
H       6.9731749185     1.9632437234    22.9820237032
H       4.9801827600     1.9240241438    21.6952071299
H       3.2087423913     1.8094923226    19.8358290334
H       6.6288978587     3.2024665083    24.9069085256
O       2.5266507578     1.4077622991    19.2679293209
H       1.6908011875     0.9035995307    19.5563638164
80
Step 4 | ATOMIC_POSITIONS (angstrom) | Cartesian Angstrom
Ni      1.2286497520     0.7093615510    11.2500000000
Ni      2.4572990100     2.8374462050    11.2500000000
Ni      3.6859482670     4.9655308580    11.2500000000
Ni      4.9145975240     7.0936155120    11.2500000000
Ni      3.6859497520     0.7093615510    11.2500000000
Ni      4.9145990100     2.8374462050    11.2500000000
Ni      6.1432482670     4.9655308580    11.2500000000
Ni      7.3718975240     7.0936155120    11.2500000000
Ni      6.1432497520     0.7093615510    11.2500000000
Ni      7.3718990100     2.8374462050    11.2500000000
Ni      8.6005482670     4.9655308580    11.2500000000
Ni      9.8291975240     7.0936155120    11.2500000000
Ni      8.6005497520     0.7093615510    11.2500000000
Ni      9.8291990100     2.8374462050    11.2500000000
Ni     11.0578482670     4.9655308580    11.2500000000
Ni     12.2864975240     7.0936155120    11.2500000000
Ni     14.7391156440     8.5053429940    13.3011714150
Ni     11.0531329440     2.1206495290    13.3008022990
Ni     12.2817169740     4.2489790340    13.3006009370
Ni     13.5101985340     6.3773433500    13.3009431250
Ni      7.3672568660     8.5047181050    13.3011773700
Ni      3.6813642390     2.1207834060    13.3007249920
Ni      4.9098915810     4.2493198240    13.3009122650
Ni      6.1382079690     6.3774560510    13.3011135670
Ni      9.8241033230     8.5046823230    13.3010832760
Ni      6.1383369810     2.1207818050    13.3007715320
Ni      7.3668809570     4.2490234570    13.3008058440
Ni      8.5953896190     6.3767159330    13.3009510360
Ni     12.2816608160     8.5051500050    13.3006064560
Ni      8.5958456850     2.1206091640    13.3010363910
Ni      9.8244550650     4.2487038260    13.3007275540
Ni     11.0528529680     6.3769409810    13.3006612510
Cu      2.4478273930     1.4024593490    15.3768195280
Cu      3.6763308060     3.5307008760    15.3768060770
Cu      4.9041378630     5.6597275330    15.3773446700
Cu      6.1330260750     7.7878909920    15.3784795760
Cu      4.9046987940     1.4026027490    15.3777978380
Cu      6.1325026870     3.5313494180    15.3777258640
Cu      7.3610720820     5.6598451510    15.3779275450
Cu      8.5906751570     7.7868955290    15.3785352680
Cu      7.3621786350     1.4037478130    15.3762149870
Cu      8.5904727220     3.5321453650    15.3780682330
Cu      9.8190628610     5.6596863340    15.3769316570
Cu     11.0489114770     7.7874997910    15.3777155250
Cu      9.8196454140     1.4041813300    15.3774701120
Cu     11.0479045230     3.5315147300    15.3771972950
Cu     12.2765483610     5.6595853030    15.3771297580
Cu     13.5054403740     7.7883030910    15.3772812510
Cu      1.2140125070     0.6836802980    17.5697066840
Cu      2.4431554840     2.8116125730    17.5665701770
Cu      3.6705110990     4.9384343220    17.5687388930
Cu      4.8988742140     7.0688538720    17.5715927900
Cu      3.6716454970     0.6829118360    17.5713988440
Cu      4.8981418590     2.8112416660    17.5722076350
Cu      6.1274353450     4.9410331950    17.5708266730
Cu      7.3554752240     7.0698227980    17.5713298580
Cu      6.1297077270     0.6833063410    17.5689100860
Cu      7.3567237630     2.8135682210    17.5698798540
Cu      8.5851063570     4.9421568870    17.5702369000
Cu      9.8152975500     7.0699596350    17.5700617890
Cu      8.5865082000     0.6855772250    17.5667967620
Cu      9.8144914730     2.8135456230    17.5749497460
Cu     11.0427692100     4.9416447890    17.5690865390
Cu     12.2728600100     7.0692517500    17.5719745900
O       4.7926780234     2.8771167463    21.6813656385
O       6.1889641470     3.4861549897    19.1706894606
O       6.1358496676     3.5131999253    24.1280343992
C       6.1011970350     3.4741890286    21.6841952693
C       6.8741562352     3.0989422786    20.3931396814
C       6.8719849273     3.0705193229    22.9729941634
H       5.9505285320     4.5555606681    21.7132092495
H       7.0172776124     2.0055930363    20.4177809177
H       7.8899837851     3.5421103319    20.4166426841
H       7.8954954444     3.5063793032    22.9734204618
H       6.9802221321     1.9652311460    22.9759320506
H       4.9726556801     1.9170296234    21.7008220602
H       3.2310995651     1.8316588383    19.9122746534
H       6.6202660549     3.2084084627    24.9140090102
O       2.5315923824     1.4135295412    19.3491621696
H       1.6951109123     0.9054529009    19.6103560002
80
Step 5 | ATOMIC_POSITIONS (angstrom) | Cartesian Angstrom
Ni      1.2286497520     0.7093615510    11.2500000000
Ni      2.4572990100     2.8374462050    11.2500000000
Ni      3.6859482670     4.9655308580    11.2500000000
Ni      4.9145975240     7.0936155120    11.2500000000
Ni      3.6859497520     0.7093615510    11.2500000000
Ni      4.9145990100     2.8374462050    11.2500000000
Ni      6.1432482670     4.9655308580    11.2500000000
Ni      7.3718975240     7.0936155120    11.2500000000
Ni      6.1432497520     0.7093615510    11.2500000000
Ni      7.3718990100     2.8374462050    11.2500000000
Ni      8.6005482670     4.9655308580    11.2500000000
Ni      9.8291975240     7.0936155120    11.2500000000
Ni      8.6005497520     0.7093615510    11.2500000000
Ni      9.8291990100     2.8374462050    11.2500000000
Ni     11.0578482670     4.9655308580    11.2500000000
Ni     12.2864975240     7.0936155120    11.2500000000
Ni     14.7391156440     8.5053429940    13.3011714150
Ni     11.0531329440     2.1206495290    13.3008022990
Ni     12.2817169740     4.2489790340    13.3006009370
Ni     13.5101985340     6.3773433500    13.3009431250
Ni      7.3672568660     8.5047181050    13.3011773700
Ni      3.6813642390     2.1207834060    13.3007249920
Ni      4.9098915810     4.2493198240    13.3009122650
Ni      6.1382079690     6.3774560510    13.3011135670
Ni      9.8241033230     8.5046823230    13.3010832760
Ni      6.1383369810     2.1207818050    13.3007715320
Ni      7.3668809570     4.2490234570    13.3008058440
Ni      8.5953896190     6.3767159330    13.3009510360
Ni     12.2816608160     8.5051500050    13.3006064560
Ni      8.5958456850     2.1206091640    13.3010363910
Ni      9.8244550650     4.2487038260    13.3007275540
Ni     11.0528529680     6.3769409810    13.3006612510
Cu      2.4478273930     1.4024593490    15.3768195280
Cu      3.6763308060     3.5307008760    15.3768060770
Cu      4.9041378630     5.6597275330    15.3773446700
Cu      6.1330260750     7.7878909920    15.3784795760
Cu      4.9046987940     1.4026027490    15.3777978380
Cu      6.1325026870     3.5313494180    15.3777258640
Cu      7.3610720820     5.6598451510    15.3779275450
Cu      8.5906751570     7.7868955290    15.3785352680
Cu      7.3621786350     1.4037478130    15.3762149870
Cu      8.5904727220     3.5321453650    15.3780682330
Cu      9.8190628610     5.6596863340    15.3769316570
Cu     11.0489114770     7.7874997910    15.3777155250
Cu      9.8196454140     1.4041813300    15.3774701120
Cu     11.0479045230     3.5315147300    15.3771972950
Cu     12.2765483610     5.6595853030    15.3771297580
Cu     13.5054403740     7.7883030910    15.3772812510
Cu      1.2140125070     0.6836802980    17.5697066840
Cu      2.4431554840     2.8116125730    17.5665701770
Cu      3.6705110990     4.9384343220    17.5687388930
Cu      4.8988742140     7.0688538720    17.5715927900
Cu      3.6716454970     0.6829118360    17.5713988440
Cu      4.8981418590     2.8112416660    17.5722076350
Cu      6.1274353450     4.9410331950    17.5708266730
Cu      7.3554752240     7.0698227980    17.5713298580
Cu      6.1297077270     0.6833063410    17.5689100860
Cu      7.3567237630     2.8135682210    17.5698798540
Cu      8.5851063570     4.9421568870    17.5702369000
Cu      9.8152975500     7.0699596350    17.5700617890
Cu      8.5865082000     0.6855772250    17.5667967620
Cu      9.8144914730     2.8135456230    17.5749497460
Cu     11.0427692100     4.9416447890    17.5690865390
Cu     12.2728600100     7.0692517500    17.5719745900
O       4.7935437803     2.8677281003    21.6768975910
O       6.2190997364     3.4754401739    19.1591559273
O       6.1472135934     3.5124634771    24.1131919461
C       6.0969657288     3.4737752810    21.6700139979
C       6.8694718202     3.1021012748    20.3905667510
C       6.8705773433     3.0691021066    22.9533375122
H       5.9390295676     4.5546473171    21.7139964093
H       7.0184715927     2.0136273515    20.4101117491
H       7.8765553217     3.5421971884    20.4154729339
H       7.8869185557     3.5021537027    22.9594691955
H       6.9872671976     1.9690839921    22.9702552776
H       4.9603626346     1.9120725891    21.7082981550
H       3.2360315990     1.8464857442    20.0018645286
H       6.6111298983     3.2148829650    24.9193469196
O       2.5440636526     1.4228455667    19.4267671804
H       1.7170649384     0.9178169475    19.6830049387
80
Step 6 | ATOMIC_POSITIONS (angstrom) | Cartesian Angstrom
Ni      1.2286497520     0.7093615510    11.2500000000
Ni      2.4572990100     2.8374462050    11.2500000000
Ni      3.6859482670     4.9655308580    11.2500000000
Ni      4.9145975240     7.0936155120    11.2500000000
Ni      3.6859497520     0.7093615510    11.2500000000
Ni      4.9145990100     2.8374462050    11.2500000000
Ni      6.1432482670     4.9655308580    11.2500000000
Ni      7.3718975240     7.0936155120    11.2500000000
Ni      6.1432497520     0.7093615510    11.2500000000
Ni      7.3718990100     2.8374462050    11.2500000000
Ni      8.6005482670     4.9655308580    11.2500000000
Ni      9.8291975240     7.0936155120    11.2500000000
Ni      8.6005497520     0.7093615510    11.2500000000
Ni      9.8291990100     2.8374462050    11.2500000000
Ni     11.0578482670     4.9655308580    11.2500000000
Ni     12.2864975240     7.0936155120    11.2500000000
Ni     14.7391156440     8.5053429940    13.3011714150
Ni     11.0531329440     2.1206495290    13.3008022990
Ni     12.2817169740     4.2489790340    13.3006009370
Ni     13.5101985340     6.3773433500    13.3009431250
Ni      7.3672568660     8.5047181050    13.3011773700
Ni      3.6813642390     2.1207834060    13.3007249920
Ni      4.9098915810     4.2493198240    13.3009122650
Ni      6.1382079690     6.3774560510    13.3011135670
Ni      9.8241033230     8.5046823230    13.3010832760
Ni      6.1383369810     2.1207818050    13.3007715320
Ni      7.3668809570     4.2490234570    13.3008058440
Ni      8.5953896190     6.3767159330    13.3009510360
Ni     12.2816608160     8.5051500050    13.3006064560
Ni      8.5958456850     2.1206091640    13.3010363910
Ni      9.8244550650     4.2487038260    13.3007275540
Ni     11.0528529680     6.3769409810    13.3006612510
Cu      2.4478273930     1.4024593490    15.3768195280
Cu      3.6763308060     3.5307008760    15.3768060770
Cu      4.9041378630     5.6597275330    15.3773446700
Cu      6.1330260750     7.7878909920    15.3784795760
Cu      4.9046987940     1.4026027490    15.3777978380
Cu      6.1325026870     3.5313494180    15.3777258640
Cu      7.3610720820     5.6598451510    15.3779275450
Cu      8.5906751570     7.7868955290    15.3785352680
Cu      7.3621786350     1.4037478130    15.3762149870
Cu      8.5904727220     3.5321453650    15.3780682330
Cu      9.8190628610     5.6596863340    15.3769316570
Cu     11.0489114770     7.7874997910    15.3777155250
Cu      9.8196454140     1.4041813300    15.3774701120
Cu     11.0479045230     3.5315147300    15.3771972950
Cu     12.2765483610     5.6595853030    15.3771297580
Cu     13.5054403740     7.7883030910    15.3772812510
Cu      1.2140125070     0.6836802980    17.5697066840
Cu      2.4431554840     2.8116125730    17.5665701770
Cu      3.6705110990     4.9384343220    17.5687388930
Cu      4.8988742140     7.0688538720    17.5715927900
Cu      3.6716454970     0.6829118360    17.5713988440
Cu      4.8981418590     2.8112416660    17.5722076350
Cu      6.1274353450     4.9410331950    17.5708266730
Cu      7.3554752240     7.0698227980    17.5713298580
Cu      6.1297077270     0.6833063410    17.5689100860
Cu      7.3567237630     2.8135682210    17.5698798540
Cu      8.5851063570     4.9421568870    17.5702369000
Cu      9.8152975500     7.0699596350    17.5700617890
Cu      8.5865082000     0.6855772250    17.5667967620
Cu      9.8144914730     2.8135456230    17.5749497460
Cu     11.0427692100     4.9416447890    17.5690865390
Cu     12.2728600100     7.0692517500    17.5719745900
O       4.7913865037     2.8625533036    21.6667903188
O       6.2576132328     3.4616722605    19.1438637030
O       6.1610971135     3.5121690557    24.0937342277
C       6.0900539902     3.4721851788    21.6547064020
C       6.8649153880     3.1033572817    20.3881383058
C       6.8696714257     3.0665089661    22.9279383157
H       5.9191220433     4.5557439480    21.7133580966
H       7.0200628801     2.0205539356    20.3979873912
H       7.8619622006     3.5462653638    20.4153207976
H       7.8772263637     3.4983367920    22.9355866797
H       6.9963559182     1.9720492259    22.9604674059
H       4.9445810676     1.8953242521    21.7208289813
H       3.2288251789     1.8616064320    20.1372457495
H       6.5972991063     3.2248214396    24.9172510486
O       2.5692445407     1.4392167774    19.5247165104
H       1.7597102216     0.9425406056    19.8000833006
80
Step 7 | ATOMIC_POSITIONS (angstrom) | Cartesian Angstrom
Ni      1.2286497520     0.7093615510    11.2500000000
Ni      2.4572990100     2.8374462050    11.2500000000
Ni      3.6859482670     4.9655308580    11.2500000000
Ni      4.9145975240     7.0936155120    11.2500000000
Ni      3.6859497520     0.7093615510    11.2500000000
Ni      4.9145990100     2.8374462050    11.2500000000
Ni      6.1432482670     4.9655308580    11.2500000000
Ni      7.3718975240     7.0936155120    11.2500000000
Ni      6.1432497520     0.7093615510    11.2500000000
Ni      7.3718990100     2.8374462050    11.2500000000
Ni      8.6005482670     4.9655308580    11.2500000000
Ni      9.8291975240     7.0936155120    11.2500000000
Ni      8.6005497520     0.7093615510    11.2500000000
Ni      9.8291990100     2.8374462050    11.2500000000
Ni     11.0578482670     4.9655308580    11.2500000000
Ni     12.2864975240     7.0936155120    11.2500000000
Ni     14.7391156440     8.5053429940    13.3011714150
Ni     11.0531329440     2.1206495290    13.3008022990
Ni     12.2817169740     4.2489790340    13.3006009370
Ni     13.5101985340     6.3773433500    13.3009431250
Ni      7.3672568660     8.5047181050    13.3011773700
Ni      3.6813642390     2.1207834060    13.3007249920
Ni      4.9098915810     4.2493198240    13.3009122650
Ni      6.1382079690     6.3774560510    13.3011135670
Ni      9.8241033230     8.5046823230    13.3010832760
Ni      6.1383369810     2.1207818050    13.3007715320
Ni      7.3668809570     4.2490234570    13.3008058440
Ni      8.5953896190     6.3767159330    13.3009510360
Ni     12.2816608160     8.5051500050    13.3006064560
Ni      8.5958456850     2.1206091640    13.3010363910
Ni      9.8244550650     4.2487038260    13.3007275540
Ni     11.0528529680     6.3769409810    13.3006612510
Cu      2.4478273930     1.4024593490    15.3768195280
Cu      3.6763308060     3.5307008760    15.3768060770
Cu      4.9041378630     5.6597275330    15.3773446700
Cu      6.1330260750     7.7878909920    15.3784795760
Cu      4.9046987940     1.4026027490    15.3777978380
Cu      6.1325026870     3.5313494180    15.3777258640
Cu      7.3610720820     5.6598451510    15.3779275450
Cu      8.5906751570     7.7868955290    15.3785352680
Cu      7.3621786350     1.4037478130    15.3762149870
Cu      8.5904727220     3.5321453650    15.3780682330
Cu      9.8190628610     5.6596863340    15.3769316570
Cu     11.0489114770     7.7874997910    15.3777155250
Cu      9.8196454140     1.4041813300    15.3774701120
Cu     11.0479045230     3.5315147300    15.3771972950
Cu     12.2765483610     5.6595853030    15.3771297580
Cu     13.5054403740     7.7883030910    15.3772812510
Cu      1.2140125070     0.6836802980    17.5697066840
Cu      2.4431554840     2.8116125730    17.5665701770
Cu      3.6705110990     4.9384343220    17.5687388930
Cu      4.8988742140     7.0688538720    17.5715927900
Cu      3.6716454970     0.6829118360    17.5713988440
Cu      4.8981418590     2.8112416660    17.5722076350
Cu      6.1274353450     4.9410331950    17.5708266730
Cu      7.3554752240     7.0698227980    17.5713298580
Cu      6.1297077270     0.6833063410    17.5689100860