80
Step 1 | ATOMIC_POSITIONS (angstrom) | Cartesian Angstrom
Ni      1.2286497520     0.7093615510    11.2500000000
Ni      2.4572990100     2.8374462050    11.2500000000
Ni      3.6859482670     4.9655308580    11.2500000000
Ni      4.9145975240     7.0936155120    11.2500000000
Ni      3.6859497520     0.7093615510    11.2500000000
Ni      4.9145990100     2.8374462050    11.2500000000
Ni      6.1432482670     4.9655308580    11.2500000000
Ni      7.3718975240     7.0936155120    11.2500000000
Ni      6.1432497520     0.7093615510    11.2500000000
Ni      7.3718990100     2.8374462050    11.2500000000
Ni      8.6005482670     4.9655308580    11.2500000000
Ni      9.8291975240     7.0936155120    11.2500000000
Ni      8.6005497520     0.7093615510    11.2500000000
Ni      9.8291990100     2.8374462050    11.2500000000
Ni     11.0578482670     4.9655308580    11.2500000000
Ni     12.2864975240     7.0936155120    11.2500000000
Ni      4.9104360979     8.5018035901    13.3029430733
Ni     11.0475592756     2.1234023141    13.2963367961
Ni     12.2741632984     4.2542741179    13.2923056294
Ni     13.5054246501     6.3723178078    13.2972175646
Ni      7.3609334001     8.5072606908    13.3122507558
Ni      3.6735680669     2.1198080601    13.2931295330
Ni      4.9106505343     4.2486462166    13.2932604998
Ni      6.1387232950     6.3782539195    13.3136490909
Ni      9.8148929544     8.5082047582    13.3042302158
Ni      6.1312647923     2.1212135251    13.2953562085
Ni      7.3646390440     4.2595064668    13.3127772604
Ni      8.5851766782     6.3861370727    13.3201952966
Ni     12.2727411383     8.5049694270    13.3052132909
Ni      8.5908261918     2.1323257132    13.2972618371
Ni      9.8199217952     4.2577822414    13.2998765703
Ni     11.0430305294     6.3834494011    13.2984230353
Cu      2.4350217379     1.4083178063    15.3681449185
Cu      3.6687440321     3.5336544114    15.3582195274
Cu      4.9031601175     5.6517534629    15.3688207500
Cu      6.1442944905     7.7800521833    15.4089336516
Cu      4.8989234736     1.4088089568    15.3623127741
Cu      6.1343192522     3.5349749198    15.3667204214
Cu      7.3720077622     5.6733182501    15.4374782278
Cu      8.5758665738     7.7882845004    15.3963165350
Cu      7.3603987839     1.4026131719    15.3595067066
Cu      8.5915126305     3.5476581646    15.3792080747
Cu      9.8132469051     5.6667932432    15.3751749027
Cu     11.0364900914     7.7855929668    15.3840056572
Cu      9.8092901274     1.3954309173    15.3624969415
Cu     11.0391398006     3.5315650006    15.3616333163
Cu     12.2708975110     5.6586830800    15.3727305498
Cu     13.5043427260     7.7832606960    15.3580773080
Cu      1.1981017945     0.6908364395    17.5770524425
Cu      2.4338541967     2.8106724481    17.5684651908
Cu      3.7210236749     4.8859168590    17.5137644310
Cu      4.8900061844     7.0694083748    17.5252169533
Cu      3.6690365007     0.7152041299    17.5233341537
Cu      4.9008882608     2.8122368522    17.5607168217
Cu      6.1289188122     4.9249452030    17.5397163975
Cu      7.2960527878     7.0910553639    17.7532280797
Cu      6.1414372410     0.6966349598    17.5555418410
Cu      7.3537418022     2.7965847776    17.5135634065
Cu      8.5992124851     4.7905258862    17.5682100483
Cu      9.8545455148     7.0810420083    17.5149409919
Cu      8.5801895539     0.6805262282    17.5485466775
Cu      9.8088396332     2.7867797770    17.5099879284
Cu     11.0230400942     4.8795466134    17.4732710831
Cu     12.2849998645     7.0971191161    17.5124211997
O       9.1762020490     4.3797137338    20.7429287503
O       8.7152971439     6.5362457966    19.0673181858
O       8.6254636345     4.5473568544    23.4567618845
C       8.5521962426     5.5481556988    21.2826854377
C       9.0231920956     6.7379213026    20.4577848678
C       8.9238452104     5.7595618794    22.7455640066
H       7.4531553537     5.4549903888    21.1968531849
H      10.1173850495     6.8382527717    20.5643062555
H       8.5488703966     7.6727661045    20.8151308923
H       8.3337927007     6.6001869473    23.1526665829
H       9.9989069372     5.9958805466    22.8187302646
H       9.0156306422     3.6498909982    21.3642348658
H      11.5229650965     5.8534362520    18.6882316201
H       9.1753303896     4.5293815372    24.2523031060
O      12.2724947623     5.6208242457    19.4015132839
H      13.1002220774     5.7435204411    18.7628025170
80
Step 2 | ATOMIC_POSITIONS (angstrom) | Cartesian Angstrom
Ni      1.2286497520     0.7093615510    11.2500000000
Ni      2.4572990100     2.8374462050    11.2500000000
Ni      3.6859482670     4.9655308580    11.2500000000
Ni      4.9145975240     7.0936155120    11.2500000000
Ni      3.6859497520     0.7093615510    11.2500000000
Ni      4.9145990100     2.8374462050    11.2500000000
Ni      6.1432482670     4.9655308580    11.2500000000
Ni      7.3718975240     7.0936155120    11.2500000000
Ni      6.1432497520     0.7093615510    11.2500000000
Ni      7.3718990100     2.8374462050    11.2500000000
Ni      8.6005482670     4.9655308580    11.2500000000
Ni      9.8291975240     7.0936155120    11.2500000000
Ni      8.6005497520     0.7093615510    11.2500000000
Ni      9.8291990100     2.8374462050    11.2500000000
Ni     11.0578482670     4.9655308580    11.2500000000
Ni     12.2864975240     7.0936155120    11.2500000000
Ni      4.9102925729     8.5017181889    13.3026138762
Ni     11.0478246347     2.1236691008    13.2962507191
Ni     12.2744112240     4.2533388802    13.2920929457
Ni     13.5060429017     6.3737368793    13.2960519076
Ni      7.3602553903     8.5069699628    13.3103773004
Ni      3.6737186675     2.1207099055    13.2935472708
Ni      4.9104396510     4.2492365124    13.2936147464
Ni      6.1378801761     6.3786625905    13.3146190087
Ni      9.8163255592     8.5076437953    13.3034415762
Ni      6.1317827309     2.1222596044    13.2949144990
Ni      7.3645614317     4.2591869266    13.3111368692
Ni      8.5858994880     6.3839476761    13.3184790226
Ni     12.2732396844     8.5042047160    13.3038447464
Ni      8.5914963270     2.1309247377    13.2976905708
Ni      9.8192390835     4.2569693074    13.2993018979
Ni     11.0450843455     6.3835563350    13.2983231036
Cu      2.4355474120     1.4074602904    15.3678675988
Cu      3.6674006234     3.5318205198    15.3579947189
Cu      4.9023944065     5.6550617745    15.3661029819
Cu      6.1444876990     7.7807930152    15.4093713218
Cu      4.9004595832     1.4083051661    15.3645440659
Cu      6.1335718222     3.5338274485    15.3650937782
Cu      7.3705226755     5.6725418790    15.4343403040
Cu      8.5771277177     7.7898013520    15.3953583459
Cu      7.3598285468     1.4028119438    15.3590028111
Cu      8.5898369956     3.5444044811    15.3737739088
Cu      9.8131757150     5.6677456751    15.3734035068
Cu     11.0343142456     7.7851914599    15.3842916921
Cu      9.8097445624     1.3960005586    15.3629305944
Cu     11.0428221073     3.5288815937    15.3592832408
Cu     12.2735385700     5.6592886197    15.3705271399
Cu     13.5052163950     7.7820045419    15.3599703933
Cu      1.1982221808     0.6893242696    17.5737959880
Cu      2.4363105674     2.8020573091    17.5663908311
Cu      3.7524527126     4.8477215529    17.4365022694
Cu      4.8946416469     7.0689252098    17.5226626095
Cu      3.6675392312     0.7148028466    17.5225724196
Cu      4.9039157248     2.8058709612    17.5621864488
Cu      6.1266380411     4.9267681582    17.5427832508
Cu      7.2986336559     7.0900299382    17.7597393793
Cu      6.1397457121     0.6969708733    17.5532358174
Cu      7.3465454188     2.7863962889    17.5160865534
Cu      8.5955925436     4.8301197428    17.5890654266
Cu      9.8536201502     7.0820905064    17.5226522315
Cu      8.5823617458     0.6824058151    17.5467629402
Cu      9.8146530283     2.7712605817    17.5139821854
Cu     11.0025714872     4.8478654265    17.4192819428
Cu     12.2858887250     7.1293570374    17.4746978490
O       9.1788989230     4.3848897717    20.7418692519
O       8.7113470920     6.5351546483    19.0552609492
O       8.6231376928     4.5464421059    23.4541732058
C       8.5519713236     5.5458983700    21.2788013779
C       9.0212709892     6.7352005073    20.4487067654
C       8.9236235398     5.7591652635    22.7454564189
H       7.4521445420     5.4553354433    21.1962354809
H      10.1154427185     6.8381843401    20.5629930418
H       8.5496415270     7.6675189387    20.8124603401
H       8.3361092778     6.6013638661    23.1530186160
H       9.9985767826     5.9962630217    22.8188057354
H       9.0144025241     3.6498922067    21.3679635751
H      11.5212048775     5.8772088558    18.7551638046
H       9.1756971507     4.5267400915    24.2561021649
O      12.2664258368     5.6177825332    19.4448007024
H      13.0987959474     5.7773450044    18.8418615325
