80
Step 1 | ATOMIC_POSITIONS (angstrom) | Cartesian Angstrom
Ni      1.2286497520     0.7093615510    11.2500000000
Ni      2.4572990100     2.8374462050    11.2500000000
Ni      3.6859482670     4.9655308580    11.2500000000
Ni      4.9145975240     7.0936155120    11.2500000000
Ni      3.6859497520     0.7093615510    11.2500000000
Ni      4.9145990100     2.8374462050    11.2500000000
Ni      6.1432482670     4.9655308580    11.2500000000
Ni      7.3718975240     7.0936155120    11.2500000000
Ni      6.1432497520     0.7093615510    11.2500000000
Ni      7.3718990100     2.8374462050    11.2500000000
Ni      8.6005482670     4.9655308580    11.2500000000
Ni      9.8291975240     7.0936155120    11.2500000000
Ni      8.6005497520     0.7093615510    11.2500000000
Ni      9.8291990100     2.8374462050    11.2500000000
Ni     11.0578482670     4.9655308580    11.2500000000
Ni     12.2864975240     7.0936155120    11.2500000000
Ni      4.9109552666     8.5021645841    13.3029933795
Ni     11.0474754738     2.1232650830    13.2962372401
Ni     12.2741295701     4.2545262435    13.2927687372
Ni     13.5051460539     6.3718907124    13.2973490691
Ni      7.3608386862     8.5070814923    13.3123624457
Ni      3.6735599044     2.1195942148    13.2926665972
Ni      4.9104792169     4.2487505410    13.2930010364
Ni      6.1386777805     6.3785447509    13.3128373609
Ni      9.8147742376     8.5081370631    13.3037183191
Ni      6.1314416923     2.1211242290    13.2957799356
Ni      7.3646680631     4.2594568534    13.3140144926
Ni      8.5849944350     6.3865310421    13.3208885258
Ni     12.2722680204     8.5052334649    13.3052307161
Ni      8.5907088556     2.1318077000    13.2961480372
Ni      9.8200268866     4.2577102786    13.3005394069
Ni     11.0434313469     6.3835769638    13.2977842398
Cu      2.4353723094     1.4091014009    15.3688480051
Cu      3.6699026819     3.5333231622    15.3574170156
Cu      4.9044650684     5.6510465629    15.3696526866
Cu      6.1440067543     7.7796293998    15.4100680736
Cu      4.8981538238     1.4091560634    15.3620625296
Cu      6.1346647570     3.5356865297    15.3661734524
Cu      7.3737953569     5.6721072342    15.4387597950
Cu      8.5763522774     7.7883822353    15.3978905769
Cu      7.3607302622     1.4024283036    15.3599149516
Cu      8.5917409430     3.5510108397    15.3857534273
Cu      9.8114167666     5.6654208371    15.3759685566
Cu     11.0364527019     7.7863058431    15.3842349330
Cu      9.8095072342     1.3954527897    15.3622507354
Cu     11.0374150194     3.5319930308    15.3598066088
Cu     12.2701339700     5.6585454606    15.3730767083
Cu     13.5042236927     7.7842340588    15.3567713746
Cu      1.1947007554     0.6890201691    17.5759044624
Cu      2.3659088269     2.8718299920    17.4494715258
Cu      3.6793244370     4.9383557424    17.5858085657
Cu      4.8872316756     7.0682722984    17.5275268779
Cu      3.6688830629     0.6900926699    17.5061953752
Cu      4.9501037885     2.8613611930    17.4688807775
Cu      6.1345245565     4.9236711479    17.5383489619
Cu      7.2921601296     7.0925794813    17.7468557561
Cu      6.1446915995     0.6944807782    17.5543814993
Cu      7.3612894411     2.8073883135    17.5125917721
Cu      8.5993021628     4.7613662439    18.1999816447
Cu      9.8589880384     7.0803717782    17.5106484943
Cu      8.5798913274     0.6796325546    17.5491887288
Cu      9.8018794898     2.7975801523    17.5076117728
Cu     11.0488017552     4.9143987867    17.5205724421
Cu     12.2842245330     7.0622754408    17.5424813690
O       9.1765857537     4.3805127561    20.7414889977
O       8.7167066284     6.5365895094    19.0803855640
O       8.6256354518     4.5473564033    23.4561546996
C       8.5505435466     5.5530566828    21.2860708940
C       9.0240240751     6.7397050155    20.4631103793
C       8.9240302796     5.7589750421    22.7454805726
H       7.4534833891     5.4546607651    21.1968642402
H      10.1172715372     6.8382258731    20.5632602828
H       8.5488653657     7.6725655436    20.8137803055
H       8.3339100120     6.6000747396    23.1522082179
H       9.9988451994     5.9960035889    22.8188065958
H       9.0151169636     3.6478914619    21.3633218159
H       2.9351433780     2.2753464160    18.7474361869
H       9.1753445476     4.5292729143    24.2524270847
O       3.6690931372     2.0883671443    19.4124646512
H       4.4823797317     2.1578696371    18.7783146692
80
Step 2 | ATOMIC_POSITIONS (angstrom) | Cartesian Angstrom
Ni      1.2286497520     0.7093615510    11.2500000000
Ni      2.4572990100     2.8374462050    11.2500000000
Ni      3.6859482670     4.9655308580    11.2500000000
Ni      4.9145975240     7.0936155120    11.2500000000
Ni      3.6859497520     0.7093615510    11.2500000000
Ni      4.9145990100     2.8374462050    11.2500000000
Ni      6.1432482670     4.9655308580    11.2500000000
Ni      7.3718975240     7.0936155120    11.2500000000
Ni      6.1432497520     0.7093615510    11.2500000000
Ni      7.3718990100     2.8374462050    11.2500000000
Ni      8.6005482670     4.9655308580    11.2500000000
Ni      9.8291975240     7.0936155120    11.2500000000
Ni      8.6005497520     0.7093615510    11.2500000000
Ni      9.8291990100     2.8374462050    11.2500000000
Ni     11.0578482670     4.9655308580    11.2500000000
Ni     12.2864975240     7.0936155120    11.2500000000
Ni      4.9114022186     8.5025514598    13.3029186317
Ni     11.0475887943     2.1233826917    13.2955408902
Ni     12.2742409968     4.2539713394    13.2932306904
Ni     13.5054352787     6.3725733655    13.2968259228
Ni      7.3602184622     8.5065539549    13.3112027997
Ni      3.6737546939     2.1200834695    13.2920429693
Ni      4.9102480250     4.2493388463    13.2929932512
Ni      6.1380268002     6.3791098810    13.3127383847
Ni      9.8158527371     8.5075519448    13.3025284873
Ni      6.1321760095     2.1220159971    13.2955835256
Ni      7.3650739876     4.2590667586    13.3141745349
Ni      8.5854515776     6.3848166521    13.3203193804
Ni     12.2721082266     8.5050607295    13.3042311692
Ni      8.5910631635     2.1303467321    13.2954568461
Ni      9.8190219281     4.2568716113    13.3010609100
Ni     11.0455007325     6.3837154126    13.2970544523
Cu      2.4360715021     1.4074151616    15.3673637560
Cu      3.6706295074     3.5350633219    15.3537111809
Cu      4.9045124210     5.6526374471    15.3703145353
Cu      6.1439614180     7.7796114726    15.4119093850
Cu      4.8988055027     1.4078987528    15.3619680127
Cu      6.1374764610     3.5372213520    15.3586417681
Cu      7.3747599412     5.6703526275    15.4374923447
Cu      8.5778959079     7.7888241707    15.3977263759
Cu      7.3608266501     1.4028409837    15.3599529613
Cu      8.5904266180     3.5514502243    15.3873590255
Cu      9.8101641948     5.6642773222    15.3766540732
Cu     11.0353718869     7.7863834646    15.3855713277
Cu      9.8099083035     1.3963291041    15.3621802944
Cu     11.0344377777     3.5343433399    15.3503689870
Cu     12.2712342650     5.6590239138    15.3726377852
Cu     13.5040939955     7.7838154444    15.3576625565
Cu      1.1917174826     0.6887385445    17.5720794105
Cu      2.3408837972     2.8931741970    17.3708174303
Cu      3.6776748298     4.9440303475    17.5855067328
Cu      4.8889676212     7.0683002195    17.5274201802
Cu      3.6669945147     0.6775462704    17.4890388733
Cu      4.9745236398     2.8875592095    17.3972375040
Cu      6.1397769302     4.9306644335    17.5396100994
Cu      7.2909581961     7.0912183211    17.7445469755
Cu      6.1471630450     0.6930480467    17.5510899792
Cu      7.3671263870     2.8084710543    17.5139251055
Cu      8.5988666241     4.7626059116    18.2014215688
Cu      9.8611819190     7.0791113461    17.5124414443
Cu      8.5801721540     0.6785265609    17.5486449244
Cu      9.7956186145     2.7968845017    17.5083811834
Cu     11.0422681588     4.9254561542    17.5219879739
Cu     12.2844451265     7.0638483902    17.5419020790
O       9.1784662990     4.3871341824    20.7403385497
O       8.7136709509     6.5357445107    19.0794807278
O       8.6237602553     4.5461154232    23.4530671652
C       8.5505188794     5.5539455191    21.2866516360
C       9.0228051812     6.7400896671    20.4643716377
C       8.9235380298     5.7587586002    22.7471345413
H       7.4523343432     5.4550315182    21.1964885922
H      10.1169585820     6.8387074610    20.5625289207
H       8.5495309956     7.6701467297    20.8112462985
H       8.3365137520     6.6007466489    23.1521119680
H       9.9985606389     5.9964812537    22.8189684210
H       9.0134700530     3.6466640188    21.3638527547
H       2.9286850943     2.2596396628    18.8136392235
H       9.1756792732     4.5267365186    24.2561412749
O       3.6865245322     2.0689957693    19.4734027077
H       4.4791967059     2.1355948647    18.8498797627
80
Step 3 | ATOMIC_POSITIONS (angstrom) | Cartesian Angstrom
Ni      1.2286497520     0.7093615510    11.2500000000
Ni      2.4572990100     2.8374462050    11.2500000000
Ni      3.6859482670     4.9655308580    11.2500000000
Ni      4.9145975240     7.0936155120    11.2500000000
Ni      3.6859497520     0.7093615510    11.2500000000
Ni      4.9145990100     2.8374462050    11.2500000000
Ni      6.1432482670     4.9655308580    11.2500000000
Ni      7.3718975240     7.0936155120    11.2500000000
Ni      6.1432497520     0.7093615510    11.2500000000
Ni      7.3718990100     2.8374462050    11.2500000000
Ni      8.6005482670     4.9655308580    11.2500000000
Ni      9.8291975240     7.0936155120    11.2500000000
Ni      8.6005497520     0.7093615510    11.2500000000
Ni      9.8291990100     2.8374462050    11.2500000000
Ni     11.0578482670     4.9655308580    11.2500000000
Ni     12.2864975240     7.0936155120    11.2500000000
Ni      4.9119520398     8.5029881916    13.3030793848
Ni     11.0478827341     2.1231117304    13.2937902368
Ni     12.2745234921     4.2535236880    13.2929935552
Ni     13.5060242105     6.3735908856    13.2962055325
Ni      7.3596603289     8.5055852530    13.3096749371
Ni      3.6742508922     2.1204571282    13.2908406013
Ni      4.9099092407     4.2505075144    13.2924192500
Ni      6.1373212826     6.3798097638    13.3126887522
Ni      9.8172186296     8.5066972675    13.3009456588
Ni      6.1330835556     2.1229215316    13.2946671746
Ni      7.3660238686     4.2586900006    13.3136133961
Ni      8.5862417306     6.3825017330    13.3193843427
Ni     12.2720770924     8.5048736162    13.3032058125
Ni      8.5915678878     2.1283987519    13.2947057449
Ni      9.8171901275     4.2559641721    13.3009379262
Ni     11.0481065756     6.3835515252    13.2962535092
Cu      2.4366999147     1.4033161760    15.3613316938
Cu      3.6719389444     3.5394829389    15.3420503104
Cu      4.9049771334     5.6548777266    15.3713075628
Cu      6.1443342805     7.7794884597    15.4144304081
Cu      4.9002167884     1.4049788421    15.3589439732
Cu      6.1448173063     3.5414664049    15.3420433491
Cu      7.3760193949     5.6687158110    15.4353470197
Cu      8.5798779972     7.7879641080    15.3958725690
Cu      7.3611671177     1.4033188708    15.3598518871
Cu      8.5887366723     3.5516810487    15.3894800269
Cu      9.8085499973     5.6632092108    15.3775391662
Cu     11.0340524928     7.7861876472    15.3871894679
Cu      9.8104928466     1.3976224882    15.3619708630
Cu     11.0260137037     3.5401720904    15.3297990295
Cu     12.2724081929     5.6597747220    15.3721532559
Cu     13.5037809183     7.7837496292    15.3586530099
Cu      1.1889030845     0.6902156872    17.5664835535
Cu      2.3307590861     2.9023626959    17.2914485977
Cu      3.6749020106     4.9508580493    17.5862524986
Cu      4.8909251601     7.0687578648    17.5273410178
Cu      3.6640861859     0.6698652456    17.4664502633
Cu      4.9888693688     2.9040414346    17.3213628936
Cu      6.1491795907     4.9436993507    17.5421423794
Cu      7.2895542066     7.0894684334    17.7409855926
Cu      6.1492873885     0.6929110700    17.5460747481
Cu      7.3767936163     2.8099587563    17.5164133205
Cu      8.5982468992     4.7645632649    18.2042664528
Cu      9.8639460553     7.0776279875    17.5157484502
Cu      8.5804495612     0.6766052200    17.5480065372
Cu      9.7852509532     2.7965845783    17.5100633592
Cu     11.0311354976     4.9434910624    17.5248287772
Cu     12.2853838361     7.0667885604    17.5409264075
O       9.1803027786     4.3845010047    20.7462823375
O       8.7093509584     6.5352055723    19.0796155907
O       8.6278737491     4.5433513594    23.4594786237
C       8.5485109168     5.5576432125    21.2880147980
C       9.0230070141     6.7383463706    20.4635026556
C       8.9240965956     5.7584718741    22.7470701747
H       7.4515629348     5.4557451531    21.1962028821
H      10.1154719268     6.8393095447    20.5610525247
H       8.5486553963     7.6703252370    20.8084185727
H       8.3394317022     6.6028131838    23.1531027315
H       9.9980005392     5.9967282052    22.8194312766
H       9.0131677437     3.6544928543    21.3561946549
H       2.9340340865     2.2418305683    18.9108420463
H       9.1689037378     4.5225540968    24.2518676492
O       3.6843394884     2.0441803753    19.5445637158
H       4.4839338664     2.1149870891    18.9353065006
80
Step 4 | ATOMIC_POSITIONS (angstrom) | Cartesian Angstrom
Ni      1.2286497520     0.7093615510    11.2500000000
Ni      2.4572990100     2.8374462050    11.2500000000
Ni      3.6859482670     4.9655308580    11.2500000000
Ni      4.9145975240     7.0936155120    11.2500000000
Ni      3.6859497520     0.7093615510    11.2500000000
Ni      4.9145990100     2.8374462050    11.2500000000
Ni      6.1432482670     4.9655308580    11.2500000000
Ni      7.3718975240     7.0936155120    11.2500000000
Ni      6.1432497520     0.7093615510    11.2500000000
Ni      7.3718990100     2.8374462050    11.2500000000
Ni      8.6005482670     4.9655308580    11.2500000000
Ni      9.8291975240     7.0936155120    11.2500000000
Ni      8.6005497520     0.7093615510    11.2500000000
Ni      9.8291990100     2.8374462050    11.2500000000
Ni     11.0578482670     4.9655308580    11.2500000000
Ni     12.2864975240     7.0936155120    11.2500000000
Ni      4.9125171400     8.5032757264    13.3035946938
Ni     11.0482828855     2.1220398503    13.2904078762
Ni     12.2749400685     4.2537907913    13.2908275527
Ni     13.5068254385     6.3747631030    13.2957428841
Ni      7.3594517321     8.5040147173    13.3077674967
Ni      3.6750559818     2.1202800432    13.2884936699
Ni      4.9096371403     4.2524740480    13.2902824447
Ni      6.1368893056     6.3804971092    13.3127476564
Ni      9.8185697013     8.5054863805    13.2991039064
Ni      6.1339963359     2.1231634107    13.2924637388
Ni      7.3678345024     4.2587672150    13.3113958864
Ni      8.5872772652     6.3802762647    13.3181224082
Ni     12.2722056817     8.5046535468    13.3025073788
Ni      8.5921372713     2.1264254195    13.2941757018
Ni      9.8143700064     4.2556230340    13.2990476948
Ni     11.0504821140     6.3830366554    13.2957120889
Cu      2.4369374783     1.3973105588    15.3495235682
Cu      3.6735108911     3.5462693920    15.3214331515
Cu      4.9059312407     5.6574264515    15.3725466562
Cu      6.1450675077     7.7790684736    15.4167779101
Cu      4.9022839961     1.4006412812    15.3513158891
Cu      6.1563113231     3.5482359401    15.3175877997
Cu      7.3774731627     5.6681596685    15.4324202520
Cu      8.5818705556     7.7851669365    15.3917646561
Cu      7.3617450272     1.4036866520    15.3595338916
Cu      8.5870420569     3.5517017007    15.3914619627
Cu      9.8067530878     5.6630712072    15.3782386028
Cu     11.0330345257     7.7854120187    15.3884002093
Cu      9.8112126364     1.3990691737    15.3615680047
Cu     11.0131942014     3.5486295992    15.3008591952
Cu     12.2731787524     5.6608020458    15.3717844127
Cu     13.5033798938     7.7842595093    15.3592377046
Cu      1.1872718976     0.6937783969    17.5601327859
Cu      2.3340847918     2.9016810307    17.2272053229
Cu      3.6715559542     4.9557930551    17.5880948952
Cu      4.8924110070     7.0699152273    17.5274353427
Cu      3.6613066124     0.6697925216    17.4432107965
Cu      4.9909965172     2.9089921258    17.2580398629
Cu      6.1594917776     4.9573487639    17.5453965089
Cu      7.2889121466     7.0891438290    17.7367121789
Cu      6.1498578240     0.6951414550    17.5404074622
Cu      7.3855048200     2.8118707438    17.5196249748
Cu      8.5975781255     4.7670698255    18.2086031967
Cu      9.8658649872     7.0777581169    17.5201998101
Cu      8.5806909875     0.6741948672    17.5474806695
Cu      9.7764852878     2.7974885277    17.5122787158
Cu     11.0196999494     4.9602483286    17.5283215205
Cu     12.2870295151     7.0709366092    17.5397149230
O       9.1849469664     4.4008250410    20.7392121525
O       8.7047017591     6.5346370484    19.0801686128
O       8.6198394162     4.5437293420    23.4456784687
C       8.5485547409     5.5555987808    21.2900812803
C       9.0206489966     6.7394297362    20.4623893551
C       8.9238275492     5.7572580866    22.7510852250
H       7.4503475095     5.4567643197    21.1958481084
H      10.1147671660     6.8397011471    20.5589418743
H       8.5481125294     7.6702767947    20.8048358697
H       8.3430391702     6.6043904323    23.1548425032
H       9.9981401226     5.9968383919    22.8197174530
H       9.0086792480     3.6477230715    21.3607781646
H       2.9360937151     2.2282091163    19.0122589849
H       9.1732256165     4.5176933504    24.2643365594
O       3.6897375057     2.0126459893    19.6264160516
H       4.4845041246     2.0975832858    19.0301792022
80
Step 5 | ATOMIC_POSITIONS (angstrom) | Cartesian Angstrom
Ni      1.2286497520     0.7093615510    11.2500000000
Ni      2.4572990100     2.8374462050    11.2500000000
Ni      3.6859482670     4.9655308580    11.2500000000
Ni      4.9145975240     7.0936155120    11.2500000000
Ni      3.6859497520     0.7093615510    11.2500000000
Ni      4.9145990100     2.8374462050    11.2500000000
Ni      6.1432482670     4.9655308580    11.2500000000
Ni      7.3718975240     7.0936155120    11.2500000000
Ni      6.1432497520     0.7093615510    11.2500000000
Ni      7.3718990100     2.8374462050    11.2500000000
Ni      8.6005482670     4.9655308580    11.2500000000
Ni      9.8291975240     7.0936155120    11.2500000000
Ni      8.6005497520     0.7093615510    11.2500000000
Ni      9.8291990100     2.8374462050    11.2500000000
Ni     11.0578482670     4.9655308580    11.2500000000
Ni     12.2864975240     7.0936155120    11.2500000000
Ni      4.9130385180     8.5033347515    13.3044074902
Ni     11.0486226997     2.1200991255    13.2852136855
Ni     12.2753504514     4.2550350622    13.2859454639
Ni     13.5077293876     6.3759264640    13.2955990813
Ni      7.3596714732     8.5018186183    13.3053276276
Ni      3.6761276204     2.1194074296    13.2845952850
Ni      4.9097028571     4.2551601494    13.2859028455
Ni      6.1369251758     6.3810203950    13.3128574273
Ni      9.8197430283     8.5039232538    13.2969913188
Ni      6.1348814603     2.1224545466    13.2886787497
Ni      7.3706414602     4.2595415147    13.3068634240
Ni      8.5883905732     6.3785632032    13.3164776082
Ni     12.2724734901     8.5044602713    13.3022756935
Ni      8.5926459581     2.1248298536    13.2939525977
Ni      9.8105189497     4.2562273004    13.2945518601
Ni     11.0521112909     6.3822485633    13.2955354616
Cu      2.4366566122     1.3906701501    15.3325989602
Cu      3.6750054951     3.5542196592    15.2942048066
Cu      4.9072706370     5.6597671580    15.3741407803
Cu      6.1459543092     7.7783847983    15.4185477555
Cu      4.9047719317     1.3957391671    15.3390436803
Cu      6.1692726762     3.5560018456    15.2901705125
Cu      7.3789556608     5.6690132643    15.4292200831
Cu      8.5835851127     7.7807915168    15.3859202173
Cu      7.3623827544     1.4039884175    15.3591353078
Cu      8.5856622640     3.5515793757    15.3930418527
Cu      9.8049661398     5.6641868933    15.3787618101
Cu     11.0326382541     7.7841148372    15.3890158142
Cu      9.8120833711     1.4005359198    15.3611615569
Cu     10.9995094775     3.5574802216    15.2701663153
Cu     12.2733498251     5.6618357683    15.3719229766
Cu     13.5030415070     7.7853683155    15.3592528293
Cu      1.1871645145     0.6990287105    17.5539211045
Cu      2.3469781764     2.8946151730    17.1876637169
Cu      3.6683708791     4.9574530174    17.5904665501
Cu      4.8931790375     7.0716744866    17.5277676529
Cu      3.6591256929     0.6775363924    17.4233981188
Cu      4.9830917822     2.9050135722    17.2168300108
Cu      6.1675888327     4.9667994149    17.5483134476
Cu      7.2897470124     7.0913203882    17.7322775291
Cu      6.1487229979     0.6995644407    17.5348610579
Cu      7.3898835280     2.8141715906    17.5227017745
Cu      8.5969811198     4.7696595849    18.2141768531
Cu      9.8660928465     7.0805343061    17.5252297982
Cu      8.5808898892     0.6720718169    17.5471624020
Cu      9.7729281773     2.7998031004    17.5141948413
Cu     11.0113412785     4.9702549627    17.5312529905
Cu     12.2888787943     7.0756080846    17.5384498894
O       9.1870245868     4.3968154809    20.7448611636
O       8.7000207955     6.5348111867    19.0801820181
O       8.6253560899     4.5404643925    23.4551865612
C       8.5485226705     5.5603710214    21.2903923748
C       9.0176311768     6.7413401531    20.4633788874
C       8.9236135421     5.7591547452    22.7509281675
H       7.4494046460     5.4574641056    21.1960828601
H      10.1133679496     6.8398549016    20.5563185798
H       8.5470444803     7.6717987598    20.8014154310
H       8.3462936112     6.6060657957    23.1574515055
H       9.9986703278     5.9961743103    22.8203399581
H       9.0080750131     3.6556610491    21.3521137747
H       2.9383483960     2.2187673172    19.1087764113
H       9.1632826316     4.5124987930    24.2570279566
O       3.6963635694     1.9784353747    19.7094361215
H       4.4829414091     2.0847334651    19.1222296812
80
Step 6 | ATOMIC_POSITIONS (angstrom) | Cartesian Angstrom
Ni      1.2286497520     0.7093615510    11.2500000000
Ni      2.4572990100     2.8374462050    11.2500000000
Ni      3.6859482670     4.9655308580    11.2500000000
Ni      4.9145975240     7.0936155120    11.2500000000
Ni      3.6859497520     0.7093615510    11.2500000000
Ni      4.9145990100     2.8374462050    11.2500000000
Ni      6.1432482670     4.9655308580    11.2500000000
Ni      7.3718975240     7.0936155120    11.2500000000
Ni      6.1432497520     0.7093615510    11.2500000000
Ni      7.3718990100     2.8374462050    11.2500000000
Ni      8.6005482670     4.9655308580    11.2500000000
Ni      9.8291975240     7.0936155120    11.2500000000
Ni      8.6005497520     0.7093615510    11.2500000000
Ni      9.8291990100     2.8374462050    11.2500000000
Ni     11.0578482670     4.9655308580    11.2500000000
Ni     12.2864975240     7.0936155120    11.2500000000
Ni      4.9135774151     8.5030167879    13.3056025450
Ni     11.0487327192     2.1168766805    13.2765209736
Ni     12.2755247154     4.2579619871    13.2759265502
Ni     13.5088061467     6.3772291944    13.2959099682
Ni      7.3603568758     8.4982883571    13.3012549365
Ni      3.6776471206     2.1175164305    13.2771698145
Ni      4.9105182958     4.2593259462    13.2770384293
Ni      6.1374913242     6.3813831840    13.3129923852
Ni      9.8209864618     8.5014313276    13.2938024755
Ni      6.1360342002     2.1203709686    13.2818336621
Ni      7.3752937307     4.2615410570    13.2979625185
Ni      8.5897247081     6.3773844506    13.3139156090
Ni     12.2729766547     8.5041492544    13.3025182537
Ni      8.5931609401     2.1235374910    13.2940753843
Ni      9.8047731603     4.2583625876    13.2852708471
Ni     11.0530404681     6.3810831973    13.2957648654
Cu      2.4357719956     1.3838233761    15.3077320961
Cu      3.6763578190     3.5633765326    15.2576641205
Cu      4.9091338415     5.6619360173    15.3765931969
Cu      6.1469013076     7.7773792455    15.4197893441
Cu      4.9079693880     1.3904358803    15.3194246178
Cu      6.1825243569     3.5643418084    15.2600181077
Cu      7.3805921189     5.6717024794    15.4254304680
Cu      8.5852085701     7.7745830920    15.3776689811
Cu      7.3630063705     1.4044096570    15.3587571724
Cu      8.5847065199     3.5514461358    15.3944300065
Cu      9.8030765195     5.6669962767    15.3793193292
Cu     11.0331291413     7.7820847179    15.3890564840
Cu      9.8134255730     1.4023235040    15.3608577831
Cu     10.9868191526     3.5658172360    15.2388153111
Cu     12.2728269853     5.6627704734    15.3729503941
Cu     13.5028901482     7.7872919463    15.3584782967
Cu      1.1889822724     0.7068675447    17.5471494780
Cu      2.3699011690     2.8818346564    17.1716554803
Cu      3.6653479540     4.9551131950    17.5933546335
Cu      4.8933918001     7.0741970824    17.5285533089
Cu      3.6574670165     0.6953130434    17.4058093412
Cu      4.9648525315     2.8930422839    17.1965686848
Cu      6.1723223277     4.9699885006    17.5503831337
Cu      7.2926770729     7.0977995092    17.7268227758
Cu      6.1454009588     0.7070749349    17.5287884598
Cu      7.3882309930     2.8174088863    17.5254655431
Cu      8.5964536603     4.7719982095    18.2220524926
Cu      9.8642493521     7.0876892196    17.5313981312
Cu      8.5811262835     0.6710088567    17.5470874691
Cu      9.7765116342     2.8042779372    17.5154020035
Cu     11.0071184986     4.9715724935    17.5330268896
Cu     12.2905415927     7.0809827004    17.5370088762
O       9.1900246196     4.3979310271    20.7471139900
O       8.6946568977     6.5363914817    19.0809566817
O       8.6239088076     4.5399274300    23.4531326991
C       8.5468484307     5.5635000017    21.2914474014
C       9.0171642180     6.7428472968    20.4631727328
C       8.9253199207     5.7588913523    22.7526303853
H       7.4500522172     5.4581847942    21.1967840807
H      10.1098637220     6.8401670773    20.5528065076
H       8.5443322128     7.6771947138    20.7986890418
H       8.3490104614     6.6082162018    23.1618394159
H       9.9992499662     5.9948956620    22.8210940749
H       9.0060300334     3.6599864733    21.3457792159
H       2.9485652657     2.2101326761    19.2197886063
H       9.1584852860     4.5066512848    24.2582163498
O       3.6919533941     1.9375481861    19.8038470029
H       4.4846723032     2.0757396804    19.2205880540
80
Step 7 | ATOMIC_POSITIONS (angstrom) | Cartesian Angstrom
Ni      1.2286497520     0.7093615510    11.2500000000
Ni      2.4572990100     2.8374462050    11.2500000000
Ni      3.6859482670     4.9655308580    11.2500000000
Ni      4.9145975240     7.0936155120    11.2500000000
Ni      3.6859497520     0.7093615510    11.2500000000
Ni      4.9145990100     2.8374462050    11.2500000000
Ni      6.1432482670     4.9655308580    11.2500000000
Ni      7.3718975240     7.0936155120    11.2500000000
Ni      6.1432497520     0.7093615510    11.2500000000
Ni      7.3718990100     2.8374462050    11.2500000000
Ni      8.6005482670     4.9655308580    11.2500000000
Ni      9.8291975240     7.0936155120    11.2500000000
Ni      8.6005497520     0.7093615510    11.2500000000
Ni      9.8291990100     2.8374462050    11.2500000000
Ni     11.0578482670     4.9655308580    11.2500000000
Ni     12.2864975240     7.0936155120    11.2500000000
Ni      4.9142025355     8.5022082910    13.3071555057
Ni     11.0482076299     2.1126202667    13.2634170342
Ni     12.2748010535     4.2629405421    13.2592094707
Ni     13.5100269223     6.3787263193    13.2969398040
Ni      7.3614889526     8.4928306426    13.2943848795
Ni      3.6796911275     2.1144148499    13.2641583829
Ni      4.9128758520     4.2653086977    13.2619804048
Ni      6.1386870507     6.3815227947    13.3131233157
Ni      9.8225002185     8.4974597656    13.2886606933
Ni      6.1379071366     2.1169315564    13.2709134555
Ni      7.3819277266     4.2649950048    13.2836018742
Ni      8.5912642120     6.3769302917    13.3100153825
Ni     12.2737340985     8.5036169587    13.3031889707
Ni      8.5936773654     2.1226817916    13.2946294725
Ni      9.7972793834     4.2622118797    13.2704042106
Ni     11.0531583242     6.3796360504    13.2964812839
Cu      2.4345335649     1.3789956037    15.2757829020
Cu      3.6773783305     3.5718026369    15.2150453379
Cu      4.9114073325     5.6636405861    15.3801647221
Cu      6.1477256652     7.7762807011    15.4203924474
Cu      4.9117096764     1.3862819831    15.2923421667
Cu      6.1923581378     3.5714062149    15.2316134511
Cu      7.3822123512     5.6760281566    15.4210585876
Cu      8.5867742391     7.7676611098    15.3673893310
Cu      7.3634451348     1.4052765321    15.3584885983
Cu      8.5844843380     3.5516579503    15.3955215077
Cu      9.8013463965     5.6712208543    15.3800571176
Cu     11.0347253908     7.7795138358    15.3886061479
Cu      9.8154386623     1.4046711909    15.3607036376
Cu     10.9791563062     3.5714924309    15.2118063022
Cu     12.2716466635     5.6633024502    15.3751165824
Cu     13.5031538427     7.7900562743    15.3568655746
Cu      1.1929828185     0.7172907477    17.5396322683
Cu      2.4023901889     2.8643970392    17.1792639556
Cu      3.6629044919     4.9485380283    17.5965149674
Cu      4.8934172169     7.0772372447    17.5300167343
Cu      3.6567375380     0.7235262505    17.3907596006
Cu      4.9366045576     2.8739065005    17.1985920698
Cu      6.1721348205     4.9652629071    17.5507091008
Cu      7.2978841883     7.1096421983    17.7198210186
Cu      6.1396130377     0.7178989180    17.5221054755