80
Step 1 | ATOMIC_POSITIONS (angstrom) | Cartesian Angstrom
Ni      1.2286497520     0.7093615510    11.2500000000
Ni      2.4572990100     2.8374462050    11.2500000000
Ni      3.6859482670     4.9655308580    11.2500000000
Ni      4.9145975240     7.0936155120    11.2500000000
Ni      3.6859497520     0.7093615510    11.2500000000
Ni      4.9145990100     2.8374462050    11.2500000000
Ni      6.1432482670     4.9655308580    11.2500000000
Ni      7.3718975240     7.0936155120    11.2500000000
Ni      6.1432497520     0.7093615510    11.2500000000
Ni      7.3718990100     2.8374462050    11.2500000000
Ni      8.6005482670     4.9655308580    11.2500000000
Ni      9.8291975240     7.0936155120    11.2500000000
Ni      8.6005497520     0.7093615510    11.2500000000
Ni      9.8291990100     2.8374462050    11.2500000000
Ni     11.0578482670     4.9655308580    11.2500000000
Ni     12.2864975240     7.0936155120    11.2500000000
Ni      0.0015275608     0.0019399391    13.2945039827
Ni      1.2332516842     2.1305271893    13.3093655408
Ni      2.4584412262     4.2549698430    13.3088322481
Ni     13.5152534743     6.3857989730    13.2941899230
Ni      2.4603334095     0.0053624792    13.3077779553
Ni      3.6855408567     2.1304316678    13.3215190122
Ni      4.9126588908     4.2560199028    13.3049477676
Ni      6.1454977767     6.3857608976    13.2993755177
Ni      4.9123732306     0.0039389697    13.3069792498
Ni      6.1398416628     2.1303345623    13.3028806734
Ni      7.3684542836     4.2566418778    13.3062442206
Ni      8.6012294394     6.3911421685    13.3110957308
Ni      7.3711673739     0.0005485414    13.2934074738
Ni      8.6016293763     2.1302072776    13.2940586475
Ni      9.8346570353     4.2564282325    13.3075025871
Ni     11.0561190231     6.3852493894    13.2984099669
Cu      2.4662034552     1.4292207704    15.4238050730
Cu      3.6840083479     3.5427921567    15.4173407614
Cu      4.9149412344     5.6819467624    15.3614703423
Cu      6.1425036860     7.8069012092    15.3635313074
Cu      4.9070985861     1.4262582443    15.4122295885
Cu      6.1262770252     3.5428909551    15.3835182215
Cu      7.3804709063     5.6731072267    15.3843015528
Cu      8.6011008199     7.8275509198    15.3959053618
Cu      7.3741038414     1.4182025509    15.3527634948
Cu      8.6021363438     3.5576058519    15.3729088173
Cu      9.8203869499     5.6729572476    15.3844234722
Cu     11.0588555246     7.8045187188    15.3644944429
Cu      9.8278763283     1.4209487389    15.3615951195
Cu     11.0763416531     3.5413587233    15.3969524106
Cu     12.2860224316     5.6804474425    15.3623230967
Cu     13.5157503228     7.8071523012    15.3769840055
Cu      1.2037302439     0.7048943017    17.5332412647
Cu      2.3489967489     2.9118072546    17.7537792060
Cu      3.6813450762     5.0036557806    17.5316889327
Cu      4.9119194926     7.1026589291    17.5871715119
Cu      3.6867030494     0.6078031173    17.6943185628
Cu      5.0037330006     2.8988491173    17.6290690004
Cu      6.1449394433     4.9860203647    17.5140496094
Cu      7.3655882126     7.0900747846    17.5153224742
Cu      6.1692069960     0.6966570978    17.5323456563
Cu      7.3823791464     2.8358879536    17.4823485152
Cu      8.5938546639     4.9686837073    17.7438064203
Cu      9.8326621071     7.0831329777    17.5223926335
Cu      8.6005450647     0.7149465344    17.5958001307
Cu      9.8168117278     2.8444280457    17.5108905436
Cu     11.0456184689     4.9841541055    17.5170915533
Cu     12.2862457231     7.1000317174    17.5820731795
O       9.2276909236     3.5296777392    22.3583728800
O       8.3005559942     4.6414122807    19.9753361241
O       8.8342360760     5.2852648658    24.7175925698
C       8.7139707893     4.8652522583    22.3578801642
C       8.8707397176     5.4785300058    20.9500727906
C       9.3180981712     5.7394817011    23.4508070533
H       7.6379699715     4.7519476707    22.5672803933
H       9.9553087451     5.6586178893    20.7470597310
H       8.3641045923     6.4643164946    20.9001427697
H       9.0350898455     6.7936565999    23.2700488430
H      10.4233962629     5.6760880014    23.3971439520
H      10.1987670817     3.5750744051    22.3604030484
H       2.9471722991     2.0108520858    19.6507523087
H       9.2333987530     5.8299248803    25.4132400270
O       3.7289926516     2.1248077951    19.0926804265
H       4.5114945305     2.2633461698    19.6497250073
80
Step 2 | ATOMIC_POSITIONS (angstrom) | Cartesian Angstrom
Ni      1.2286497520     0.7093615510    11.2500000000
Ni      2.4572990100     2.8374462050    11.2500000000
Ni      3.6859482670     4.9655308580    11.2500000000
Ni      4.9145975240     7.0936155120    11.2500000000
Ni      3.6859497520     0.7093615510    11.2500000000
Ni      4.9145990100     2.8374462050    11.2500000000
Ni      6.1432482670     4.9655308580    11.2500000000
Ni      7.3718975240     7.0936155120    11.2500000000
Ni      6.1432497520     0.7093615510    11.2500000000
Ni      7.3718990100     2.8374462050    11.2500000000
Ni      8.6005482670     4.9655308580    11.2500000000
Ni      9.8291975240     7.0936155120    11.2500000000
Ni      8.6005497520     0.7093615510    11.2500000000
Ni      9.8291990100     2.8374462050    11.2500000000
Ni     11.0578482670     4.9655308580    11.2500000000
Ni     12.2864975240     7.0936155120    11.2500000000
Ni      0.0017237678     0.0021278039    13.2949105366
Ni      1.2331789765     2.1305638875    13.3093839146
Ni      2.4583029323     4.2548116948    13.3086358491
Ni     13.5153727671     6.3855044964    13.2943164309
Ni      2.4604888691     0.0054635115    13.3078902170
Ni      3.6854562057     2.1303165819    13.3208461041
Ni      4.9128418276     4.2557295972    13.3049927323
Ni      6.1457777685     6.3856311551    13.2996762302
Ni      4.9120119158     0.0038364958    13.3069430405
Ni      6.1398378338     2.1306344668    13.3033783524
Ni      7.3686339248     4.2566055311    13.3060078500
Ni      8.6011426580     6.3910423413    13.3107359082
Ni      7.3710591665     0.0008200306    13.2935236277
Ni      8.6017216474     2.1306802897    13.2942757901
Ni      9.8345424614     4.2562709496    13.3073866998
Ni     11.0556894198     6.3850344006    13.2990029987
Cu      2.4655367211     1.4289098389    15.4234163894
Cu      3.6838141379     3.5438370073    15.4166814805
Cu      4.9152226359     5.6819717830    15.3615526124
Cu      6.1422274336     7.8063646021    15.3640399196
Cu      4.9075992247     1.4257330196    15.4115361440
Cu      6.1282292624     3.5440719772    15.3798194038
Cu      7.3808989758     5.6725632583    15.3852276566
Cu      8.6010749944     7.8261772715    15.3943134897
Cu      7.3745856282     1.4181878658    15.3524946959
Cu      8.6018605894     3.5583050295    15.3754300929
Cu      9.8198058813     5.6724841754    15.3853639903
Cu     11.0591227463     7.8044597129    15.3645096900
Cu      9.8274277041     1.4210581767    15.3618716701
Cu     11.0752121641     3.5423321429    15.3940560766
Cu     12.2857735866     5.6803343783    15.3622120045
Cu     13.5155996975     7.8071052656    15.3770936933
Cu      1.2066488385     0.7068851469    17.5347767310
Cu      2.3375163177     2.9240786511    17.7076738481
Cu      3.6814334665     5.0020220689    17.5314718302
Cu      4.9108714335     7.1031497758    17.5858908177
Cu      3.6878459080     0.5965057517    17.6631323526
Cu      5.0151680181     2.9104163693    17.5800054236
Cu      6.1447565000     4.9882351541    17.5201447721
Cu      7.3643001978     7.0889560153    17.5179528740
Cu      6.1673411370     0.6983009025    17.5327284924
Cu      7.3821499245     2.8340635758    17.4886330148
Cu      8.5909417912     4.9654209193    17.7882584960
Cu      9.8345195358     7.0834270558    17.5230514288
Cu      8.6005444006     0.7133904426    17.5941708643
Cu      9.8159669062     2.8435729927    17.5164807631
Cu     11.0454794767     4.9868378068    17.5190355335
Cu     12.2865017173     7.1001766913    17.5813333372
O       9.2275677686     3.5273403071    22.3698182468
O       8.3087439840     4.6495591969    19.9369858316
O       8.8340009325     5.2844114897    24.7171959016
C       8.7115338804     4.8586884073    22.3479856091
C       8.8640163007     5.4741081879    20.9241052787
C       9.3179402286     5.7388936656    23.4462293856
H       7.6389312570     4.7513325111    22.5665282521
H       9.9536513127     5.6592099295    20.7498228870
H       8.3677892143     6.4718099887    20.9090537623
H       9.0348240750     6.7936354621    23.2699844135
H      10.4235359718     5.6764991700    23.3972706113
H      10.1992485949     3.5772003418    22.3595980197
H       2.9122263262     2.0051686160    19.6832622076
H       9.2343940437     5.8310060017    25.4148349769
O       3.7309017096     2.1072697189    19.1498828022
H       4.5438990333     2.2696359502    19.6779334367
80
Step 3 | ATOMIC_POSITIONS (angstrom) | Cartesian Angstrom
Ni      1.2286497520     0.7093615510    11.2500000000
Ni      2.4572990100     2.8374462050    11.2500000000
Ni      3.6859482670     4.9655308580    11.2500000000
Ni      4.9145975240     7.0936155120    11.2500000000
Ni      3.6859497520     0.7093615510    11.2500000000
Ni      4.9145990100     2.8374462050    11.2500000000
Ni      6.1432482670     4.9655308580    11.2500000000
Ni      7.3718975240     7.0936155120    11.2500000000
Ni      6.1432497520     0.7093615510    11.2500000000
Ni      7.3718990100     2.8374462050    11.2500000000
Ni      8.6005482670     4.9655308580    11.2500000000
Ni      9.8291975240     7.0936155120    11.2500000000
Ni      8.6005497520     0.7093615510    11.2500000000
Ni      9.8291990100     2.8374462050    11.2500000000
Ni     11.0578482670     4.9655308580    11.2500000000
Ni     12.2864975240     7.0936155120    11.2500000000
Ni      0.0020653064     0.0023733009    13.2954790811
Ni      1.2330649892     2.1304541832    13.3093171695
Ni      2.4581717827     4.2546204708    13.3081677872
Ni     13.5155524108     6.3851420451    13.2945093271
Ni      2.4605951547     0.0055573592    13.3080279030
Ni      3.6852749504     2.1300799322    13.3195893371
Ni      4.9129783969     4.2554365057    13.3049143873
Ni      6.1462889121     6.3855029954    13.3000739255
Ni      4.9115224715     0.0036718293    13.3068027728
Ni      6.1398164042     2.1308525566    13.3038937336
Ni      7.3691960986     4.2567376646    13.3055580475
Ni      8.6009531980     6.3907779905    13.3101988388
Ni      7.3708956281     0.0011517362    13.2936682996
Ni      8.6019163046     2.1314483577    13.2946297093
Ni      9.8341442349     4.2561100013    13.3072340092
Ni     11.0549943468     6.3847486512    13.2997953586
Cu      2.4643174335     1.4283251184    15.4220992909
Cu      3.6832439441     3.5456384182    15.4143970917
Cu      4.9157560754     5.6821623432    15.3617522599
Cu      6.1418842010     7.8055362196    15.3648518615
Cu      4.9084956154     1.4246085681    15.4093500183
Cu      6.1324896116     3.5465138168    15.3725564114
Cu      7.3817081791     5.6717187429    15.3873888350
Cu      8.6009569920     7.8232975419    15.3910441454
Cu      7.3753629597     1.4182775313    15.3522777369
Cu      8.6015099720     3.5594267153    15.3801462485
Cu      9.8186775122     5.6717323260    15.3873322997
Cu     11.0594872379     7.8042733336    15.3645023181
Cu      9.8267280259     1.4212974201    15.3624281318
Cu     11.0725476388     3.5441036909    15.3887668898
Cu     12.2853669837     5.6804249444    15.3620072234
Cu     13.5154231309     7.8070138247    15.3771337597
Cu      1.2108982014     0.7099076075    17.5376898579
Cu      2.3338550879     2.9337491363    17.6424160315
Cu      3.6816645106     4.9997992089    17.5320014223
Cu      4.9092832936     7.1041668840    17.5836375919
Cu      3.6896062644     0.5922082113    17.6208640882
Cu      5.0200261293     2.9199124935    17.5124408921
Cu      6.1453188875     4.9933825114    17.5295988814
Cu      7.3617742842     7.0858894524    17.5217283262
Cu      6.1645084644     0.7010737251    17.5338930019
Cu      7.3835602885     2.8310123944    17.4982166975
Cu      8.5870104938     4.9609473456    17.8626290354
Cu      9.8376710578     7.0819679032    17.5238159269
Cu      8.6006591160     0.7109970881    17.5913964608
Cu      9.8123025136     2.8421951864    17.5249764443
Cu     11.0434728466     4.9931652054    17.5218937314
Cu     12.2870277395     7.1006424547    17.5799551398
O       9.2287282492     3.5226404720    22.3853827464
O       8.3211127891     4.6633558271    19.8752053545
O       8.8354472167     5.2853191385    24.7160624453
C       8.7092545875     4.8525169973    22.3311544077
C       8.8584705731     5.4717343972    20.8987438050
C       9.3159639886     5.7374899290    23.4371567653
H       7.6379755344     4.7492179054    22.5647097061
H       9.9501225098     5.6597180568    20.7511778583
H       8.3735616624     6.4786419452    20.9195780119
H       9.0342957151     6.7934152004    23.2693012283
H      10.4233679817     5.6768106068    23.3966771347
H      10.1985767725     3.5801918639    22.3581098265
H       2.8824520910     2.0007643447    19.7265088601
H       9.2343071057     5.8303464230    25.4132019330
O       3.7297266958     2.0803355499    19.2355314205
H       4.5729637203     2.2761461813    19.7167288473
80
Step 4 | ATOMIC_POSITIONS (angstrom) | Cartesian Angstrom
Ni      1.2286497520     0.7093615510    11.2500000000
Ni      2.4572990100     2.8374462050    11.2500000000
Ni      3.6859482670     4.9655308580    11.2500000000
Ni      4.9145975240     7.0936155120    11.2500000000
Ni      3.6859497520     0.7093615510    11.2500000000
Ni      4.9145990100     2.8374462050    11.2500000000
Ni      6.1432482670     4.9655308580    11.2500000000
Ni      7.3718975240     7.0936155120    11.2500000000
Ni      6.1432497520     0.7093615510    11.2500000000
Ni      7.3718990100     2.8374462050    11.2500000000
Ni      8.6005482670     4.9655308580    11.2500000000
Ni      9.8291975240     7.0936155120    11.2500000000
Ni      8.6005497520     0.7093615510    11.2500000000
Ni      9.8291990100     2.8374462050    11.2500000000
Ni     11.0578482670     4.9655308580    11.2500000000
Ni     12.2864975240     7.0936155120    11.2500000000
Ni      0.0025575535     0.0026815146    13.2962826697
Ni      1.2328703108     2.1301132825    13.3089191727
Ni      2.4581291943     4.2544864042    13.3069512934
Ni     13.5157860343     6.3846351232    13.2947536783
Ni      2.4604728317     0.0056674607    13.3081924430
Ni      3.6849395715     2.1297845869    13.3169809541
Ni      4.9128762450     4.2552699884    13.3043115489
Ni      6.1470804589     6.3852898022    13.3006579212
Ni      4.9110280709     0.0034677855    13.3063944425
Ni      6.1397938185     2.1308082107    13.3039943956
Ni      7.3705992059     4.2571962089    13.3046394583
Ni      8.6006043530     6.3900259862    13.3094905686
Ni      7.3706845471     0.0015172089    13.2938332114
Ni      8.6022452111     2.1327443756    13.2952866434
Ni      9.8331565847     4.2559542811    13.3070457100
Ni     11.0540185781     6.3842799527    13.3008462708
Cu      2.4620354849     1.4271454698    15.4179515358
Cu      3.6818163648     3.5490957510    15.4069748798
Cu      4.9166982938     5.6825732682    15.3622170161
Cu      6.1414929622     7.8043201242    15.3662251649
Cu      4.9102153537     1.4222051275    15.4029179767
Cu      6.1415103674     3.5514986117    15.3580443973
Cu      7.3831410266     5.6704603320    15.3919129488
Cu      8.6006467084     7.8174412898    15.3845241503
Cu      7.3765336621     1.4186480181    15.3523267598
Cu      8.6011532351     3.5611833529    15.3887627571
Cu      9.8166566612     5.6705636363    15.3909923637
Cu     11.0599755032     7.8038620707    15.3644539386
Cu      9.8256891865     1.4218200311    15.3635765501
Cu     11.0664961674     3.5474999833    15.3787345973
Cu     12.2847170877     5.6809347240    15.3616276579
Cu     13.5152345292     7.8068691660    15.3768680957
Cu      1.2168704447     0.7143365669    17.5432318076
Cu      2.3443944932     2.9370997563    17.5469401532
Cu      3.6821400418     4.9970426629    17.5346708532
Cu      4.9068580078     7.1062779668    17.5795507612
Cu      3.6920286342     0.6021293870    17.5631298111
Cu      5.0129569708     2.9242776355    17.4185289850
Cu      6.1464899372     5.0015224500    17.5442687762
Cu      7.3584630121     7.0808237284    17.5271805850
Cu      6.1601913807     0.7056615790    17.5369089748
Cu      7.3858433804     2.8262974700    17.5128276995
Cu      8.5826774198     4.9560208326    17.9851578816
Cu      9.8414330782     7.0784847290    17.5247314722
Cu      8.6010187125     0.7072418440    17.5865103350
Cu      9.8057392033     2.8404082171    17.5379888074
Cu     11.0384763437     5.0035417096    17.5263531332
Cu     12.2881295044     7.1019111220    17.5772942963
O       9.2276907321     3.5170399444    22.4045059464
O       8.3436962828     4.6931998496    19.7909151369
O       8.8346521176     5.2827156828    24.7036609913
C       8.7015629031     4.8422946523    22.3084331785
C       8.8552458212     5.4692891979    20.8698673416
C       9.3138484733     5.7367639100    23.4234104146
H       7.6369149596     4.7445594035    22.5591409125
H       9.9440791632     5.6601934941    20.7485371297
H       8.3817985424     6.4822300250    20.9301680378
H       9.0330274602     6.7931137860    23.2666209466
H      10.4208187914     5.6768402945    23.3934860512
H      10.1997443347     3.5839970945    22.3553676405
H       2.8503503540     1.9981527175    19.8038444468
H       9.2364130645     5.8319772460    25.4105078403
O       3.7377006695     2.0373634338    19.3435305120
H       4.5931153667     2.2832369756    19.7800990428
80
Step 5 | ATOMIC_POSITIONS (angstrom) | Cartesian Angstrom
Ni      1.2286497520     0.7093615510    11.2500000000
Ni      2.4572990100     2.8374462050    11.2500000000
Ni      3.6859482670     4.9655308580    11.2500000000
Ni      4.9145975240     7.0936155120    11.2500000000
Ni      3.6859497520     0.7093615510    11.2500000000
Ni      4.9145990100     2.8374462050    11.2500000000
Ni      6.1432482670     4.9655308580    11.2500000000
Ni      7.3718975240     7.0936155120    11.2500000000
Ni      6.1432497520     0.7093615510    11.2500000000
Ni      7.3718990100     2.8374462050    11.2500000000
Ni      8.6005482670     4.9655308580    11.2500000000
Ni      9.8291975240     7.0936155120    11.2500000000
Ni      8.6005497520     0.7093615510    11.2500000000
Ni      9.8291990100     2.8374462050    11.2500000000
Ni     11.0578482670     4.9655308580    11.2500000000
Ni     12.2864975240     7.0936155120    11.2500000000
Ni      0.0025352818     0.0026344582    13.2963292738
Ni      1.2327869364     2.1299445481    13.3085855945
Ni      2.4581509695     4.2547007204    13.3063671427
Ni     13.5157512185     6.3846799244    13.2947626725
Ni      2.4602570045     0.0055565829    13.3080786274
Ni      3.6849055439     2.1297644354    13.3161294711
Ni      4.9126826212     4.2555408156    13.3037507007
Ni      6.1471803233     6.3852537542    13.3007372304
Ni      4.9112215446     0.0033784621    13.3060937605
Ni      6.1398615924     2.1304619143    13.3032946014
Ni      7.3712619491     4.2575095264    13.3043269377
Ni      8.6005770189     6.3896521784    13.3094953909
Ni      7.3706825328     0.0014379103    13.2938268912
Ni      8.6022498683     2.1329220785    13.2955237306
Ni      9.8326936107     4.2561320380    13.3070318950
Ni     11.0539724431     6.3842403161    13.3007988064
Cu      2.4614897180     1.4266491125    15.4153509970
Cu      3.6811828527     3.5502322714    15.4020617556
Cu      4.9168700533     5.6825992532    15.3625744571
Cu      6.1416054070     7.8043124086    15.3665425060
Cu      4.9107277867     1.4212381287    15.3991832311
Cu      6.1442134764     3.5528690489    15.3541847812
Cu      7.3832725853     5.6705441953    15.3930149153
Cu      8.6005426597     7.8158423588    15.3829198439
Cu      7.3765161749     1.4188885410    15.3528043737
Cu      8.6013227705     3.5612081137    15.3903160957
Cu      9.8164418529     5.6705871272    15.3914857484
Cu     11.0599031227     7.8037458479    15.3645291610
Cu      9.8256721485     1.4219667135    15.3640326766
Cu     11.0642408488     3.5484449322    15.3761976045
Cu     12.2846242747     5.6812373111    15.3617214024
Cu     13.5152797286     7.8068757473    15.3765950624
Cu      1.2168339466     0.7144642840    17.5445822089
Cu      2.3556496701     2.9293876428    17.5439557881
Cu      3.6822254280     4.9974099094    17.5364709536
Cu      4.9068454355     7.1067936615    17.5786956092
Cu      3.6918893545     0.6140814968    17.5643557082
Cu      5.0029367908     2.9176969211    17.4204177436
Cu      6.1464815056     5.0011672984    17.5450567592
Cu      7.3592881242     7.0808459290    17.5271424301
Cu      6.1599924098     0.7061015400    17.5380575432
Cu      7.3851844175     2.8263073341    17.5134743782
Cu      8.5860044460     4.9597314278    17.9816089734
Cu      9.8402098722     7.0780398704    17.5245281891
Cu      8.6011603187     0.7070935723    17.5856016986
Cu      9.8056893022     2.8407936585    17.5386854299
Cu     11.0370895080     5.0034330249    17.5267233700
Cu     12.2883006504     7.1024117334    17.5766038964
O       9.2291788177     3.5167428799    22.4018318821
O       8.3447908650     4.6978210284    19.8123062552
O       8.8361874012     5.2850510947    24.7037167408
C       8.7014883071     4.8431473364    22.3082960928
C       8.8594614236     5.4726645093    20.8781543720
C       9.3124976633     5.7369625565    23.4200007747
H       7.6348474648     4.7428513337    22.5568987419
H       9.9437031403     5.6598277117    20.7448601797
H       8.3820075374     6.4768848226    20.9263656352
H       9.0325187285     6.7935407601    23.2648283822
H      10.4199107152     5.6763813515    23.3909977545
H      10.1978490094     3.5834561255    22.3549354559
H       2.8692397915     2.0024527817    19.8113088121
H       9.2339432450     5.8282536990    25.4030028414
O       3.7311273040     2.0298230234    19.3404752814
H       4.5797819315     2.2829920798    19.7902992853
80
Step 6 | ATOMIC_POSITIONS (angstrom) | Cartesian Angstrom
Ni      1.2286497520     0.7093615510    11.2500000000
Ni      2.4572990100     2.8374462050    11.2500000000
Ni      3.6859482670     4.9655308580    11.2500000000
Ni      4.9145975240     7.0936155120    11.2500000000
Ni      3.6859497520     0.7093615510    11.2500000000
Ni      4.9145990100     2.8374462050    11.2500000000
Ni      6.1432482670     4.9655308580    11.2500000000
Ni      7.3718975240     7.0936155120    11.2500000000
Ni      6.1432497520     0.7093615510    11.2500000000
Ni      7.3718990100     2.8374462050    11.2500000000
Ni      8.6005482670     4.9655308580    11.2500000000
Ni      9.8291975240     7.0936155120    11.2500000000
Ni      8.6005497520     0.7093615510    11.2500000000
Ni      9.8291990100     2.8374462050    11.2500000000
Ni     11.0578482670     4.9655308580    11.2500000000
Ni     12.2864975240     7.0936155120    11.2500000000
Ni      0.0025537685     0.0026057557    13.2964756503
Ni      1.2326341636     2.1297095625    13.3080607374
Ni      2.4580951881     4.2550033764    13.3054262567
Ni     13.5157297856     6.3846931191    13.2947872270
Ni      2.4599933119     0.0053889705    13.3078844765
Ni      3.6848156055     2.1296763284    13.3146528093
Ni      4.9124849707     4.2559002394    13.3028913284
Ni      6.1473800778     6.3851945003    13.3008973422
Ni      4.9113976708     0.0031706810    13.3055898164
Ni      6.1399852611     2.1300401306    13.3023491222
Ni      7.3722369069     4.2579680233    13.3037863930
Ni      8.6005208185     6.3891458891    13.3094024328
Ni      7.3706640221     0.0013701314    13.2938385978
Ni      8.6022904226     2.1332427745    13.2959137622
Ni      9.8320348894     4.2563601676    13.3069463474
Ni     11.0538141480     6.3841478504    13.3008278988
Cu      2.4606382414     1.4259355953    15.4116705823
Cu      3.6804154460     3.5519005278    15.3952594332
Cu      4.9171537808     5.6826528807    15.3631005247
Cu      6.1416967407     7.8042092289    15.3670659455
Cu      4.9115091282     1.4199610325    15.3939615870
Cu      6.1479265640     3.5547862453    15.3486163518
Cu      7.3835376611     5.6705770367    15.3947650570
Cu      8.6003881969     7.8135503910    15.3805429348
Cu      7.3765833009     1.4191855014    15.3534133113
Cu      8.6014954144     3.5613913636    15.3929953725
Cu      9.8160359243     5.6705517506    15.3923617982
Cu     11.0598690878     7.8035785347    15.3646387108
Cu      9.8255691902     1.4221621366    15.3647201473
Cu     11.0611140079     3.5498425079    15.3723687680
Cu     12.2844392038     5.6816453078    15.3618500735
Cu     13.5153117292     7.8068845504    15.3762158886
Cu      1.2172594181     0.7149287986    17.5466593031
Cu      2.3691125064     2.9211692165    17.5307766598
Cu      3.6822988698     4.9975661106    17.5389476166
Cu      4.9066832063     7.1075807213    17.5772215770
Cu      3.6919217651     0.6282341142    17.5599193703
Cu      4.9912769481     2.9109155501    17.4133349298
Cu      6.1463720378     5.0007696262    17.5473986262
Cu      7.3602792618     7.0809862012    17.5276437631
Cu      6.1593671639     0.7069361395    17.5396969426
Cu      7.3840169519     2.8261789273    17.5156561301
Cu      8.5891553291     4.9632554466    17.9909208511
Cu      9.8387950954     7.0779698693    17.5243540092
Cu      8.6013529580     0.7066458164    17.5840034377
Cu      9.8057709805     2.8412384747    17.5408289470
Cu     11.0355577072     5.0033541610    17.5276205927
Cu     12.2885014134     7.1030987277    17.5754626176
O       9.2287195145     3.5161517382    22.4002356253
O       8.3472106716     4.7043381446    19.8258289500
O       8.8354942336     5.2843705639    24.6979711389
C       8.7011608845     4.8431856677    22.3074440261
C       8.8636863390     5.4751004663    20.8852639992
C       9.3108582068     5.7369019575    23.4160331305
H       7.6326472198     4.7403739224    22.5532601796
H       9.9446328012     5.6601133066    20.7408218648
H       8.3825201796     6.4733528015    20.9237329809
H       9.0316713378     6.7941210749    23.2620780433
H      10.4184047742     5.6758649256    23.3873200005
H      10.1974997323     3.5833401071    22.3540409765
H       2.8819702246     2.0071858497    19.8312210066
H       9.2335329173     5.8271107799    25.3974412056
O       3.7323196936     2.0171413793    19.3471390917
H       4.5642148009     2.2829462873    19.8073396225
80
Step 7 | ATOMIC_POSITIONS (angstrom) | Cartesian Angstrom
Ni      1.2286497520     0.7093615510    11.2500000000
Ni      2.4572990100     2.8374462050    11.2500000000
Ni      3.6859482670     4.9655308580    11.2500000000
Ni      4.9145975240     7.0936155120    11.2500000000
Ni      3.6859497520     0.7093615510    11.2500000000
Ni      4.9145990100     2.8374462050    11.2500000000
Ni      6.1432482670     4.9655308580    11.2500000000
Ni      7.3718975240     7.0936155120    11.2500000000
Ni      6.1432497520     0.7093615510    11.2500000000
Ni      7.3718990100     2.8374462050    11.2500000000
Ni      8.6005482670     4.9655308580    11.2500000000
Ni      9.8291975240     7.0936155120    11.2500000000
Ni      8.6005497520     0.7093615510    11.2500000000
Ni      9.8291990100     2.8374462050    11.2500000000
Ni     11.0578482670     4.9655308580    11.2500000000
Ni     12.2864975240     7.0936155120    11.2500000000
Ni      0.0025723437     0.0025854844    13.2966972975
Ni      1.2322876318     2.1293236014    13.3070995566
Ni      2.4578828807     4.2555216031    13.3037770538
Ni     13.5157570111     6.3847482613    13.2948008972
Ni      2.4595540048     0.0050742287    13.3074519932
Ni      3.6846506018     2.1294869865    13.3119976408
Ni      4.9123418059     4.2565064919    13.3013576485
Ni      6.1476741674     6.3850983573    13.3011682747
Ni      4.9116378097     0.0027498223    13.3046436832
Ni      6.1403088735     2.1294740315    13.3007437433
Ni      7.3737570292     4.2586684271    13.3028347099
Ni      8.6003962203     6.3883686237    13.3092054472
Ni      7.3707049410     0.0013218630    13.2938505719
Ni      8.6023513128     2.1337155298    13.2965491887
Ni      9.8309728755     4.2566794605    13.3067130329
Ni     11.0535569805     6.3840050306    13.3009075949
Cu      2.4593651251     1.4248588788    15.4058432845
Cu      3.6794755312     3.5543789771    15.3847747687
Cu      4.9175948735     5.6827258715    15.3639559996
Cu      6.1417591359     7.8040485909    15.3678636000
Cu      4.9126934688     1.4182346015    15.3859457586
Cu      6.1529806090     3.5573938985    15.3407509004
Cu      7.3839198610     5.6706257971    15.3974806785
Cu      8.6001425006     7.8103397417    15.3771220157
Cu      7.3767060120     1.4196095183    15.3543166750
Cu      8.6017139604     3.5616983658    15.3972032732
Cu      9.8154104873     5.6704997841    15.3937319189
Cu     11.0598794593     7.8033712831    15.3648292558
Cu      9.8253869973     1.4224063514    15.3657715339
Cu     11.0566278553     3.5518691773    15.3666664297
Cu     12.2841563836     5.6822471373    15.3621239718
Cu     13.5153647047     7.8069316179    15.3755435433
Cu      1.2180022729     0.7156591308    17.5498515904
Cu      2.3872865408     2.9105180327    17.5072783961
Cu      3.6823334878     4.9976155964    17.5427471686
Cu      4.9065390593     7.1086593446    17.5748342414
Cu      3.6920283224     0.6472387385    17.5505511816
Cu      4.9757757863     2.9024368715    17.3987648136
Cu      6.1459784859     4.9994890643    17.5513357563
Cu      7.3619567866     7.0817874805    17.5286435554
Cu      6.1583942618     0.7081343683    17.5421019112