86
Step 1 | ATOMIC_POSITIONS (angstrom) | Cartesian Angstrom
Ni      1.2286390390     0.7093535490     9.0125970590
Ni      2.4572760100     2.8374169220     9.0125970590
Ni      3.6859498400     4.9655441370     9.0125970590
Ni      3.6859144660     0.7093535490     9.0125970590
Ni      4.9145514370     2.8374169220     9.0125970590
Ni      6.1432252670     4.9655441370     9.0125970590
Ni      6.1432636120     0.7093535490     9.0125970590
Ni      7.3719005830     2.8374169220     9.0125970590
Ni      8.6005744130     4.9655441370     9.0125970590
Ni      0.0000019230    -0.0000011100    11.0191845730
Ni      1.2286511800     2.1280835430    11.0191845730
Ni      2.4573004380     4.2561681970    11.0191845730
Ni      2.4573019230    -0.0000011100    11.0191845730
Ni      3.6859511800     2.1280835430    11.0191845730
Ni      4.9146004380     4.2561681970    11.0191845730
Ni      4.9146019230    -0.0000011100    11.0191845730
Ni      6.1432511800     2.1280835430    11.0191845730
Ni      7.3719004380     4.2561681970    11.0191845730
Ni      9.8291970100     5.6748892401    13.0324849556
Ni      4.9145980198     5.6748893593    13.0324852164
Ni      7.3718991758     1.4187202853    13.0324856500
Ni      8.6005492460     3.5468057814    13.0324864151
Ni      7.3718984520     5.6748900664    13.0324864346
Ni      2.4573016324     1.4187213286    13.0324867123
Ni      3.6859500153     3.5468058594    13.0324876950
Ni      6.1432488122     3.5468055587    13.0324879319
Ni      4.9146003559     1.4187209547    13.0324881305
Ni      4.9146024517     2.8374451427    15.0334585589
Ni      2.4573039655     2.8374470172    15.0334598186
Ni      6.1432518675     4.9655284072    15.0334598528
Ni      7.3719008977     2.8374462771    15.0334599804
Ni      3.6859555058     0.7093603620    15.0334602556
Ni      1.2286550209     0.7093609929    15.0334616076
Ni      3.6859521613     4.9655297045    15.0334616685
Ni      8.6005513471     4.9655301153    15.0334618667
Ni      6.1432529377     0.7093606827    15.0334623189
Ni      7.3718981461     4.2561658701    17.0436126492
Ni      2.4573001516     4.2561668027    17.0436139163
Ni      4.9146014848    -0.0000023770    17.0436145683
Ni      4.9146006221     4.2561672435    17.0436152860
Ni      0.0000023638    -0.0000021113    17.0436153847
Ni      6.1432512178     2.1280823767    17.0436158106
Ni      1.2286541909     2.1280837412    17.0436166733
Ni      2.4573047358    -0.0000005294    17.0436167517
Ni      3.6859557290     2.1280847607    17.0436183569
Ni      7.3720280123     1.4189517515    19.0422261265
Ni      9.8291407577     5.6748138142    19.0425564525
Ni      2.4572826781     1.4186390244    19.0426070642
Ni      4.9148156101     5.6748720944    19.0422611661
Ni      4.9145833248     1.4186210922    19.0428718820
Ni      3.6859241858     3.5470544151    19.0423993803
Ni      7.3718402957     5.6744266927    19.0412191142
Ni      8.6000177083     3.5469308851    19.0411563760
Ni      6.1437928352     3.5470415894    19.0417212440
Ni      4.9135796228     2.8367678574    21.0497695512
Ni      6.1434331211     4.9650605763    21.0544254609
Ni      3.6858892930     4.9653071813    21.0518520496
Ni      3.6859630795     0.7114646272    21.0514267457
Ni      2.4587583230     2.8364082007    21.0506662856
Ni      1.2286502684     0.7094938377    21.0516883397
Ni      7.3719355560     2.8376911698    21.0545047213
Ni      6.1432714343     0.7095115874    21.0521395352
Ni      8.6003322945     4.9648273658    21.0543131028
Ni      3.6871565450     2.1388821181    23.0007999076
Ni      1.2231280400     2.1283601275    23.0149274112
Ni      2.4538543162     4.2620095226    23.0135508288
Ni      6.1491091711     2.1274072187    23.0142328453
Ni     -0.0007444587    -0.0002587268    23.0234479475
Ni      2.4549785620    -0.0060846481    23.0153373558
Ni      7.3718430019     4.2566773559    23.0233969198
Ni      4.9179415798     4.2617701087    23.0133914221
Ni      4.9184034617    -0.0066193825    23.0135169023
O       3.6879045990     2.1330275558    24.8978595118
H       4.0402951067     1.2068513968    24.9275499246
H       5.2763533249     2.8617765967    25.9564476404
H       3.7999457766     3.8672928728    25.9541633375
C       4.1722467574     2.8513277657    26.0132187763
O       4.1826702182     0.7783385142    27.2319702136
H       5.1632294536     0.8364838445    27.2403838722
C       3.7046457501     2.1264782433    27.2670580475
H       2.5897347595     2.0433980689    27.2641614090
C       4.1773146621     2.8225852832    28.5301220443
H       3.8333726597     3.8618372101    28.5626426609
H       5.2865190420     2.8099794532    28.5626749359
O       3.6951331057     2.1248646582    29.6795552799
H       4.0393342377     2.6014186864    30.4518903778
86
Step 2 | ATOMIC_POSITIONS (angstrom) | Cartesian Angstrom
Ni      1.2286390390     0.7093535490     9.0125970590
Ni      2.4572760100     2.8374169220     9.0125970590
Ni      3.6859498400     4.9655441370     9.0125970590
Ni      3.6859144660     0.7093535490     9.0125970590
Ni      4.9145514370     2.8374169220     9.0125970590
Ni      6.1432252670     4.9655441370     9.0125970590
Ni      6.1432636120     0.7093535490     9.0125970590
Ni      7.3719005830     2.8374169220     9.0125970590
Ni      8.6005744130     4.9655441370     9.0125970590
Ni      0.0000019230    -0.0000011100    11.0191845730
Ni      1.2286511800     2.1280835430    11.0191845730
Ni      2.4573004380     4.2561681970    11.0191845730
Ni      2.4573019230    -0.0000011100    11.0191845730
Ni      3.6859511800     2.1280835430    11.0191845730
Ni      4.9146004380     4.2561681970    11.0191845730
Ni      4.9146019230    -0.0000011100    11.0191845730
Ni      6.1432511800     2.1280835430    11.0191845730
Ni      7.3719004380     4.2561681970    11.0191845730
Ni      9.8291970100     5.6748892401    13.0324849556
Ni      4.9145980198     5.6748893593    13.0324852164
Ni      7.3718991758     1.4187202853    13.0324856500
Ni      8.6005492460     3.5468057814    13.0324864151
Ni      7.3718984520     5.6748900664    13.0324864346
Ni      2.4573016324     1.4187213286    13.0324867123
Ni      3.6859500153     3.5468058594    13.0324876950
Ni      6.1432488122     3.5468055587    13.0324879319
Ni      4.9146003559     1.4187209547    13.0324881305
Ni      4.9146024517     2.8374451427    15.0334585589
Ni      2.4573039655     2.8374470172    15.0334598186
Ni      6.1432518675     4.9655284072    15.0334598528
Ni      7.3719008977     2.8374462771    15.0334599804
Ni      3.6859555058     0.7093603620    15.0334602556
Ni      1.2286550209     0.7093609929    15.0334616076
Ni      3.6859521613     4.9655297045    15.0334616685
Ni      8.6005513471     4.9655301153    15.0334618667
Ni      6.1432529377     0.7093606827    15.0334623189
Ni      7.3718981461     4.2561658701    17.0436126492
Ni      2.4573001516     4.2561668027    17.0436139163
Ni      4.9146014848    -0.0000023770    17.0436145683
Ni      4.9146006221     4.2561672435    17.0436152860
Ni      0.0000023638    -0.0000021113    17.0436153847
Ni      6.1432512178     2.1280823767    17.0436158106
Ni      1.2286541909     2.1280837412    17.0436166733
Ni      2.4573047358    -0.0000005294    17.0436167517
Ni      3.6859557290     2.1280847607    17.0436183569
Ni      7.3722715094     1.4194544362    19.0447449503
Ni      9.8289994708     5.6746641389    19.0458777745
Ni      2.4571749545     1.4183774782    19.0454624629
Ni      4.9152880746     5.6748089475    19.0448920140
Ni      4.9146360084     1.4183039321    19.0462701786
Ni      3.6858545297     3.5476822323    19.0448015028
Ni      7.3717366445     5.6733978116    19.0419896330
Ni      8.5988200826     3.5472191948    19.0415348390
Ni      6.1450625127     3.5475879993    19.0431749288
Ni      4.9125169704     2.8358184564    21.0410896073
Ni      6.1445913727     4.9639183337    21.0549910078
Ni      3.6857798715     4.9652356786    21.0481060348
Ni      3.6859462147     0.7152091683    21.0469948494
Ni      2.4607543285     2.8346750625    21.0437195963
Ni      1.2284784789     0.7095606025    21.0477197562
Ni      7.3721156669     2.8389794243    21.0553689810
Ni      6.1435874657     0.7096512670    21.0491154974
Ni      8.5990972397     4.9629489671    21.0544056869
Ni      3.6901766841     2.1613614714    22.9723817286
Ni      1.2121088364     2.1285893759    22.9966039925
Ni      2.4464090560     4.2739455559    22.9924078116
Ni      6.1607400545     2.1255747116    22.9947871558
Ni     -0.0022891354    -0.0001733170    23.0241731734
Ni      2.4507268871    -0.0183899823    22.9980412377
Ni      7.3716439254     4.2583403303    23.0245069698
Ni      4.9252596845     4.2731587015    22.9920531907
Ni      4.9258504733    -0.0197423440    22.9925042848
O       3.6565684045     2.1032447811    24.9434854891
H       4.0382822390     1.1906468167    24.9453693897
H       5.2839186635     2.8711985194    25.9629776483
H       3.7939118561     3.8826383904    25.9449982315
C       4.1853515581     2.8612840762    26.0343020676
O       4.1876634648     0.7626212300    27.2210229351
H       5.1565966183     0.8297619317    27.2429834990
C       3.7106229363     2.1249645416    27.2829069805
H       2.6041361805     2.0451236957    27.2643927371
C       4.1805617662     2.8237510861    28.5444841315
H       3.8328108357     3.8783799383    28.5514611501
H       5.2926098035     2.8175873911    28.5480486280
O       3.6837107763     2.1174493816    29.6856570822
H       4.0356149152     2.5969817106    30.4543468042
86
Step 3 | ATOMIC_POSITIONS (angstrom) | Cartesian Angstrom
Ni      1.2286390390     0.7093535490     9.0125970590
Ni      2.4572760100     2.8374169220     9.0125970590
Ni      3.6859498400     4.9655441370     9.0125970590
Ni      3.6859144660     0.7093535490     9.0125970590
Ni      4.9145514370     2.8374169220     9.0125970590
Ni      6.1432252670     4.9655441370     9.0125970590
Ni      6.1432636120     0.7093535490     9.0125970590
Ni      7.3719005830     2.8374169220     9.0125970590
Ni      8.6005744130     4.9655441370     9.0125970590
Ni      0.0000019230    -0.0000011100    11.0191845730
Ni      1.2286511800     2.1280835430    11.0191845730
Ni      2.4573004380     4.2561681970    11.0191845730
Ni      2.4573019230    -0.0000011100    11.0191845730
Ni      3.6859511800     2.1280835430    11.0191845730
Ni      4.9146004380     4.2561681970    11.0191845730
Ni      4.9146019230    -0.0000011100    11.0191845730
Ni      6.1432511800     2.1280835430    11.0191845730
Ni      7.3719004380     4.2561681970    11.0191845730
Ni      9.8291970100     5.6748892401    13.0324849556
Ni      4.9145980198     5.6748893593    13.0324852164
Ni      7.3718991758     1.4187202853    13.0324856500
Ni      8.6005492460     3.5468057814    13.0324864151
Ni      7.3718984520     5.6748900664    13.0324864346
Ni      2.4573016324     1.4187213286    13.0324867123
Ni      3.6859500153     3.5468058594    13.0324876950
Ni      6.1432488122     3.5468055587    13.0324879319
Ni      4.9146003559     1.4187209547    13.0324881305
Ni      4.9146024517     2.8374451427    15.0334585589
Ni      2.4573039655     2.8374470172    15.0334598186
Ni      6.1432518675     4.9655284072    15.0334598528
Ni      7.3719008977     2.8374462771    15.0334599804
Ni      3.6859555058     0.7093603620    15.0334602556
Ni      1.2286550209     0.7093609929    15.0334616076
Ni      3.6859521613     4.9655297045    15.0334616685
Ni      8.6005513471     4.9655301153    15.0334618667
Ni      6.1432529377     0.7093606827    15.0334623189
Ni      7.3718981461     4.2561658701    17.0436126492
Ni      2.4573001516     4.2561668027    17.0436139163
Ni      4.9146014848    -0.0000023770    17.0436145683
Ni      4.9146006221     4.2561672435    17.0436152860
Ni      0.0000023638    -0.0000021113    17.0436153847
Ni      6.1432512178     2.1280823767    17.0436158106
Ni      1.2286541909     2.1280837412    17.0436166733
Ni      2.4573047358    -0.0000005294    17.0436167517
Ni      3.6859557290     2.1280847607    17.0436183569
Ni      7.3723953050     1.4198696011    19.0461884045
Ni      9.8288300256     5.6745443165    19.0480081021
Ni      2.4569592576     1.4179842191    19.0463818908
Ni      4.9156854625     5.6746725525    19.0464315807
Ni      4.9148642923     1.4178132956    19.0475747123
Ni      3.6857681415     3.5484143008    19.0453277942
Ni      7.3717070675     5.6725774579    19.0425341360
Ni      8.5978180565     3.5474936600    19.0413420107
Ni      6.1462268857     3.5480983473    19.0436409740
Ni      4.9129203559     2.8355066532    21.0322569757
Ni      6.1471610630     4.9627938915    21.0517505394
Ni      3.6857363918     4.9660069354    21.0436888832
Ni      3.6858356612     0.7176895571    21.0428608263
Ni      2.4611290304     2.8337128347    21.0360627612
Ni      1.2279654554     0.7091145726    21.0434329951
Ni      7.3724607312     2.8415880618    21.0527255947
Ni      6.1444495737     0.7093212009    21.0453263737
Ni      8.5964478840     4.9607791100    21.0503051683
Ni      3.6927018307     2.1791301782    22.9684492269
Ni      1.2051616384     2.1281143744    22.9809966315
Ni      2.4407705396     4.2818635675    22.9751710194
Ni      6.1680435571     2.1234939397    22.9788592554
Ni     -0.0032904949     0.0010943982    23.0259201105
Ni      2.4484413051    -0.0267514771    22.9831864986
Ni      7.3713490200     4.2606175242    23.0273479479
Ni      4.9309825780     4.2808144260    22.9748250408
Ni      4.9306907969    -0.0284574612    22.9746839046
O       3.6325506037     2.0831441346    24.9615945457
H       4.0361271432     1.1797125356    24.9647373791
H       5.2920192300     2.8803366836    25.9674227413
H       3.7920816741     3.8876998650    25.9390875715
C       4.1837597778     2.8613109405    26.0463794447
O       4.1817607934     0.7615409849    27.2144724297
H       5.1619597586     0.8211949598    27.2459483553
C       3.7178082063     2.1247352092    27.2960968844
H       2.6166692733     2.0467012548    27.2655935976
C       4.1815349301     2.8248126631    28.5525060903
H       3.8350282082     3.8818183870    28.5436642032
H       5.2943313448     2.8243259273    28.5406490820
O       3.6805688659     2.1202224285    29.6900545557
H       4.0303340221     2.5903253716    30.4590222546
86
Step 4 | ATOMIC_POSITIONS (angstrom) | Cartesian Angstrom
Ni      1.2286390390     0.7093535490     9.0125970590
Ni      2.4572760100     2.8374169220     9.0125970590
Ni      3.6859498400     4.9655441370     9.0125970590
Ni      3.6859144660     0.7093535490     9.0125970590
Ni      4.9145514370     2.8374169220     9.0125970590
Ni      6.1432252670     4.9655441370     9.0125970590
Ni      6.1432636120     0.7093535490     9.0125970590
Ni      7.3719005830     2.8374169220     9.0125970590
Ni      8.6005744130     4.9655441370     9.0125970590
Ni      0.0000019230    -0.0000011100    11.0191845730
Ni      1.2286511800     2.1280835430    11.0191845730
Ni      2.4573004380     4.2561681970    11.0191845730
Ni      2.4573019230    -0.0000011100    11.0191845730
Ni      3.6859511800     2.1280835430    11.0191845730
Ni      4.9146004380     4.2561681970    11.0191845730
Ni      4.9146019230    -0.0000011100    11.0191845730
Ni      6.1432511800     2.1280835430    11.0191845730
Ni      7.3719004380     4.2561681970    11.0191845730
Ni      9.8291970100     5.6748892401    13.0324849556
Ni      4.9145980198     5.6748893593    13.0324852164
Ni      7.3718991758     1.4187202853    13.0324856500
Ni      8.6005492460     3.5468057814    13.0324864151
Ni      7.3718984520     5.6748900664    13.0324864346
Ni      2.4573016324     1.4187213286    13.0324867123
Ni      3.6859500153     3.5468058594    13.0324876950
Ni      6.1432488122     3.5468055587    13.0324879319
Ni      4.9146003559     1.4187209547    13.0324881305
Ni      4.9146024517     2.8374451427    15.0334585589
Ni      2.4573039655     2.8374470172    15.0334598186
Ni      6.1432518675     4.9655284072    15.0334598528
Ni      7.3719008977     2.8374462771    15.0334599804
Ni      3.6859555058     0.7093603620    15.0334602556
Ni      1.2286550209     0.7093609929    15.0334616076
Ni      3.6859521613     4.9655297045    15.0334616685
Ni      8.6005513471     4.9655301153    15.0334618667
Ni      6.1432529377     0.7093606827    15.0334623189
Ni      7.3718981461     4.2561658701    17.0436126492
Ni      2.4573001516     4.2561668027    17.0436139163
Ni      4.9146014848    -0.0000023770    17.0436145683
Ni      4.9146006221     4.2561672435    17.0436152860
Ni      0.0000023638    -0.0000021113    17.0436153847
Ni      6.1432512178     2.1280823767    17.0436158106
Ni      1.2286541909     2.1280837412    17.0436166733
Ni      2.4573047358    -0.0000005294    17.0436167517
Ni      3.6859557290     2.1280847607    17.0436183569
Ni      7.3724732502     1.4204283185    19.0469273976
Ni      9.8285546593     5.6744022354    19.0495562980
Ni      2.4565444527     1.4172190311    19.0457149816
Ni      4.9162194692     5.6743904480    19.0472279620
Ni      4.9153565207     1.4168593689    19.0473349357
Ni      3.6856254731     3.5496394535    19.0441644746
Ni      7.3717249253     5.6717855632    19.0423734756
Ni      8.5966331939     3.5478102801    19.0397749492
Ni      6.1477634657     3.5487829473    19.0427179375
Ni      4.9136335579     2.8349913361    21.0196951057
Ni      6.1524389506     4.9610920671    21.0432941175
Ni      3.6857498927     4.9680869340    21.0365777936
Ni      3.6855976229     0.7217783149    21.0377049090
Ni      2.4614635622     2.8323794972    21.0247231184
Ni      1.2267080195     0.7078010056    21.0366079573
Ni      7.3730927598     2.8468726407    21.0456925036
Ni      6.1464872586     0.7082561687    21.0387249257
Ni      8.5910392173     4.9572244482    21.0402319860
Ni      3.6957889225     2.2019018893    22.9777802508
Ni      1.1992054071     2.1267268375    22.9595758956
Ni      2.4343554065     4.2892617216    22.9526164531
Ni      6.1742695232     2.1201400073    22.9579029738
Ni     -0.0041726450     0.0042011991    23.0298171648
Ni      2.4469514945    -0.0351457462    22.9627103446
Ni      7.3708493075     4.2646217776    23.0333592017
Ni      4.9377454574     4.2882776987    22.9524815281
Ni      4.9352416018    -0.0368921809    22.9506414028
O       3.6072307367     2.0629135721    24.9783329306
H       4.0312866466     1.1668999558    24.9941437723
H       5.2940141512     2.8917649083    25.9718565747
H       3.7916926821     3.8852225789    25.9331608169
C       4.1798825007     2.8585694478    26.0515515758
O       4.1889198225     0.7656158751    27.2104434318
H       5.1583551258     0.8056640309    27.2501341383
C       3.7257500944     2.1268185821    27.3079333438
H       2.6302861312     2.0493397627    27.2697216583
C       4.1846737746     2.8270822422    28.5602993833
H       3.8391950144     3.8802395472    28.5347875834
H       5.2948331302     2.8336183463    28.5359214511
O       3.6776777075     2.1256930599    29.6907772038
H       4.0246382210     2.5833227725    30.4737328504
86
Step 5 | ATOMIC_POSITIONS (angstrom) | Cartesian Angstrom
Ni      1.2286390390     0.7093535490     9.0125970590
Ni      2.4572760100     2.8374169220     9.0125970590
Ni      3.6859498400     4.9655441370     9.0125970590
Ni      3.6859144660     0.7093535490     9.0125970590
Ni      4.9145514370     2.8374169220     9.0125970590
Ni      6.1432252670     4.9655441370     9.0125970590
Ni      6.1432636120     0.7093535490     9.0125970590
Ni      7.3719005830     2.8374169220     9.0125970590
Ni      8.6005744130     4.9655441370     9.0125970590
Ni      0.0000019230    -0.0000011100    11.0191845730
Ni      1.2286511800     2.1280835430    11.0191845730
Ni      2.4573004380     4.2561681970    11.0191845730
Ni      2.4573019230    -0.0000011100    11.0191845730
Ni      3.6859511800     2.1280835430    11.0191845730
Ni      4.9146004380     4.2561681970    11.0191845730
Ni      4.9146019230    -0.0000011100    11.0191845730
Ni      6.1432511800     2.1280835430    11.0191845730
Ni      7.3719004380     4.2561681970    11.0191845730
Ni      9.8291970100     5.6748892401    13.0324849556
Ni      4.9145980198     5.6748893593    13.0324852164
Ni      7.3718991758     1.4187202853    13.0324856500
Ni      8.6005492460     3.5468057814    13.0324864151
Ni      7.3718984520     5.6748900664    13.0324864346
Ni      2.4573016324     1.4187213286    13.0324867123
Ni      3.6859500153     3.5468058594    13.0324876950
Ni      6.1432488122     3.5468055587    13.0324879319
Ni      4.9146003559     1.4187209547    13.0324881305
Ni      4.9146024517     2.8374451427    15.0334585589
Ni      2.4573039655     2.8374470172    15.0334598186
Ni      6.1432518675     4.9655284072    15.0334598528
Ni      7.3719008977     2.8374462771    15.0334599804
Ni      3.6859555058     0.7093603620    15.0334602556
Ni      1.2286550209     0.7093609929    15.0334616076
Ni      3.6859521613     4.9655297045    15.0334616685
Ni      8.6005513471     4.9655301153    15.0334618667
Ni      6.1432529377     0.7093606827    15.0334623189
Ni      7.3718981461     4.2561658701    17.0436126492
Ni      2.4573001516     4.2561668027    17.0436139163
Ni      4.9146014848    -0.0000023770    17.0436145683
Ni      4.9146006221     4.2561672435    17.0436152860
Ni      0.0000023638    -0.0000021113    17.0436153847
Ni      6.1432512178     2.1280823767    17.0436158106
Ni      1.2286541909     2.1280837412    17.0436166733
Ni      2.4573047358    -0.0000005294    17.0436167517
Ni      3.6859557290     2.1280847607    17.0436183569
Ni      7.3724655965     1.4211865014    19.0457329942
Ni      9.8281676730     5.6742549285    19.0490696666
Ni      2.4558900338     1.4158985251    19.0420394333
Ni      4.9168832384     5.6738891118    19.0459105805
Ni      4.9161786806     1.4152323862    19.0440866573
Ni      3.6854253947     3.5515041705    19.0399939480
Ni      7.3718130980     5.6716798427    19.0401142259
Ni      8.5956283808     3.5479569363    19.0351945613
Ni      6.1494229099     3.5495147732    19.0386805497
Ni      4.9133996572     2.8336189040    21.0039393204
Ni      6.1614485130     4.9586094794    21.0273536226
Ni      3.6858701591     4.9723754453    21.0263638297
Ni      3.6852257750     0.7295138302    21.0323655321
Ni      2.4630633581     2.8301084891    21.0099491039
Ni      1.2240384517     0.7049307151    21.0264498530
Ni      7.3739884705     2.8559267838    21.0327386831
Ni      6.1506391680     0.7058622102    21.0281526756
Ni      8.5818779287     4.9519184144    21.0217942594
Ni      3.6990577863     2.2293048429    23.0063178820
Ni      1.1969004933     2.1240061658    22.9314732406
Ni      2.4280492804     4.2935566552    22.9246281652
Ni      6.1766332444     2.1152359321    22.9316971030
Ni     -0.0045449698     0.0100485860    23.0369894090
Ni      2.4472124545    -0.0413950150    22.9358528549
Ni      7.3701593735     4.2709138839    23.0437229588
Ni      4.9448107426     4.2934482025    22.9250076609
Ni      4.9381129747    -0.0425955696    22.9201148725
O       3.5870734936     2.0402506500    24.9896025565
H       4.0196240716     1.1561914387    25.0351518113
H       5.2851843265     2.9040282063    25.9739923308
H       3.7907495171     3.8752696982    25.9272933255
C       4.1760201652     2.8510295412    26.0496891091
O       4.1890694059     0.7736152070    27.2104402957
H       5.1659190833     0.7840192563    27.2570714351
C       3.7344714598     2.1312574641    27.3136586991
H       2.6438416359     2.0523013710    27.2787078775
C       4.1929025122     2.8295396569    28.5646597582
H       3.8442834525     3.8758979299    28.5257861288
H       5.2953387923     2.8457620677    28.5370548999
O       3.6782201683     2.1379924475    29.6976575079
H       4.0152363400     2.5716952218    30.4926469443
