80
Step 1 | ATOMIC_POSITIONS (crystal) | Cartesian Angstrom
Ni      1.2286502138     0.7093620201    11.2500035815
Ni      2.4573004768     2.8374481654    11.2500035815
Ni      3.6859507398     4.9655343107    11.2500035815
Ni      4.9146010028     7.0936204560    11.2500035815
Ni      3.6859507398     0.7093620201    11.2500035815
Ni      4.9146010028     2.8374481654    11.2500035815
Ni      6.1432512658     4.9655343107    11.2500035815
Ni      7.3719015288     7.0936204560    11.2500035815
Ni      6.1432512658     0.7093620201    11.2500035815
Ni      7.3719015288     2.8374481654    11.2500035815
Ni      8.6005517918     4.9655343107    11.2500035815
Ni      9.8292020548     7.0936204560    11.2500035815
Ni      8.6005517918     0.7093620201    11.2500035815
Ni      9.8292020548     2.8374481654    11.2500035815
Ni     11.0578523178     4.9655343107    11.2500035815
Ni     12.2865025808     7.0936204560    11.2500035815
Ni      9.8177501988    -0.0034422219    13.3011149143
Ni     11.0456476924     2.1265640530    13.2994797170
Ni     12.2733856580     4.2542193885    13.3013506672
Ni     13.5042300446     6.3812311908    13.3017603361
Ni      2.4455576765    -0.0038468988    13.3029792943
Ni      3.6741369235     2.1273951983    13.3012215828
Ni      4.9076474321     4.2518807921    13.3029588109
Ni      6.1345357614     6.3791680539    13.3030774603
Ni      4.9028681791    -0.0038427277    13.2970657623
Ni      6.1344328006     2.1273153525    13.3034492541
Ni      7.3632606772     4.2527633520    13.3142378461
Ni      8.5903255391     6.3787952132    13.3079134857
Ni      7.3603171261    -0.0011948778    13.3000725775
Ni      8.5871484461     2.1303543446    13.3088588161
Ni      9.8114101178     4.2516329126    13.3156017343
Ni     11.0445997520     6.3802206904    13.3002186670
Ni      2.4386733525     1.4141465268    15.3320040625
Ni      3.6663722470     3.5425896799    15.3317833824
Ni      4.8979148019     5.6678121873    15.3319534336
Ni      6.1235501046     7.7954103199    15.3346931910
Ni      4.8955791377     1.4141844919    15.3226493117
Ni      6.1334640835     3.5364899891    15.3509616843
Ni      7.3596729693     5.6636058974    15.3445534578
Ni      8.5807531249     7.7959493216    15.3274861102
Ni      7.3532039291     1.4228745742    15.3454895126
Ni      8.5689751360     3.5476895106    15.3903668087
Ni      9.8008990639     5.6596778760    15.3532102255
Ni     11.0405097719     7.7932001748    15.3229461285
Ni      9.8071991893     1.4173056281    15.3244993920
Ni     11.0343371804     3.5413724997    15.3313574813
Ni     12.2640882157     5.6707855493    15.3303499277
Ni     13.4944243834     7.7965769368    15.3254485871
Ni      1.2032025570     0.7046331573    17.3851162029
Ni      2.4297886384     2.8288651683    17.3880955779
Ni      3.6533200496     4.9581202288    17.3859301299
Ni      4.8832816264     7.0894538336    17.3829136528
Ni      3.6552674602     0.7048941458    17.3846663400
Ni      4.8603531449     2.8245243833    17.3665647717
Ni      6.0875533057     4.9736920310    17.3568424783
Ni      7.3350986863     7.1112072153    17.3774666023
Ni      6.1041248982     0.6746804299    17.3567184182
Ni      7.3232355274     2.7730681967    17.5036314845
Ni      8.5919994522     4.9943434046    17.5056094896
Ni      9.8185097013     7.1052557244    17.3591486050
Ni      8.5901760369     0.6770494154    17.3595157611
Ni      9.8254933494     2.8162062053    17.3712330648
Ni     11.0520969268     4.9575480290    17.3772250522
Ni     12.2633858209     7.0824555797    17.3883753895
O       9.0039070576     3.6773751655    21.6730182077
O       8.2104570042     5.0753229559    19.3399545702
O       8.8911972189     5.3962416664    24.0577789690
C       8.7190880866     5.0876781985    21.6873137200
C       9.0098565262     5.7171357763    20.3231267034
C       9.4432067326     5.8207913624    22.8092994561
H       7.6369396728     5.1456189189    21.8820722496
H      10.0837795196     5.6076750266    20.0755417552
H       8.7856428919     6.7987362406    20.3377456996
H       9.3130494212     6.9095425367    22.6639473829
H      10.5264273649     5.5971722405    22.7552274120
H       9.9562576631     3.5671282156    21.5003740694
H       7.6380043229     3.7655696098    19.6193282796
H       9.3950137123     5.8133610219    24.7752444886
O       7.1807836043     2.8291161123    19.4757057048
H       7.7575471280     2.1875355938    19.9284524539
