146
Step 1 | ATOMIC_POSITIONS (angstrom) | Cartesian Angstrom
NI      1.2254504230     0.7101865830     1.4556095020
NI      2.4444040200     2.8214761450     1.4556095020
NI      3.6633576180     4.9327657080     1.4556095020
NI      4.8823112150     7.0440552710     1.4556095020
NI      6.1012648120     9.1553448320     1.4556095020
NI      7.3202184090    11.2666343950     1.4556095020
NI      3.6633576170     0.7101865830     1.4556095020
NI      4.8823112140     2.8214761450     1.4556095020
NI      6.1012648110     4.9327657080     1.4556095020
NI      7.3202184090     7.0440552710     1.4556095020
NI      8.5391720050     9.1553448320     1.4556095020
NI      9.7581256030    11.2666343950     1.4556095020
NI      6.1012648120     0.7101865830     1.4556095020
NI      7.3202184090     2.8214761450     1.4556095020
NI      8.5391720060     4.9327657080     1.4556095020
NI      9.7581256040     7.0440552710     1.4556095020
NI     10.9770792000     9.1553448320     1.4556095020
NI     12.1960327980    11.2666343950     1.4556095020
NI      8.5391720070     0.7101865830     1.4556095020
NI      9.7581256040     2.8214761450     1.4556095020
NI     10.9770792010     4.9327657080     1.4556095020
NI     12.1960327990     7.0440552710     1.4556095020
NI     13.4149863960     9.1553448320     1.4556095020
NI     14.6339399930    11.2666343950     1.4556095020
NI     10.9770792000     0.7101865830     1.4556095020
NI     12.1960327970     2.8214761450     1.4556095020
NI     13.4149863950     4.9327657080     1.4556095020
NI     14.6339399920     7.0440552710     1.4556095020
NI     15.8528935890     9.1553448320     1.4556095020
NI     17.0718471870    11.2666343950     1.4556095020
NI     13.4149863960     0.7101865830     1.4556095020
NI     14.6339399920     2.8214761450     1.4556095020
NI     15.8528935900     4.9327657080     1.4556095020
NI     17.0718471870     7.0440552710     1.4556095020
NI     18.2908007840     9.1553448320     1.4556095020
NI     19.5097543820    11.2666343950     1.4556095020
NI     13.4528090033     7.7635427402     3.4068944676
NI     14.6466363525     9.8310921715     3.3945580328
NI     15.8398013764     7.7656102357     3.3940674242
NI     12.2437479609     9.8363501847     3.4405129612
NI     14.6436412115     5.6886677113     3.4217482670
NI     17.0343944221     9.8320766714     3.4122506484
NI     11.0257645365     7.7544007285     3.4563793593
NI     13.4417892333    11.9225832901     3.4369327056
NI     12.2339443864     5.6736983984     3.4383631776
NI     15.8434974980    11.9185533035     3.4290333586
NI     17.0464911797     5.6818809130     3.4331009322
NI     18.2412477010     7.7583715125     3.4258469270
NI      9.7912082598     9.8435717182     3.4786374765
NI     11.0138684374    11.9456485575     3.4632705268
NI     13.4249941356     3.5690183556     3.4618272619
NI     18.2559379843    11.9331287997     3.4523042294
NI     15.8510775895     3.5731675331     3.4552389031
NI     19.4638900823     9.8389403127     3.4614357375
NI      4.8468195356     5.6612949530     3.4507307359
NI      7.3273085571     1.3738791704     3.4579152526
NI      9.7885301800     5.6543147802     3.4692153445
NI      3.6533350707     3.5545450494     3.4709213478
NI      6.0680261688     7.7476789970     3.4788660102
NI      4.9007019221     1.3924252144     3.4769475763
NI      8.5542229200     7.7464546390     3.4794833053
NI      9.7467453620     1.3834829973     3.4687511222
NI     10.9901265168     3.5422753695     3.4742061403
NI      2.4587652220     1.4212259078     3.4916605712
NI      7.3102766685     9.8459502660     3.4863956864
NI     12.1825216681     1.4108565753     3.4827473649
NI      6.0952180389     3.5243093053     3.4816467671
NI      7.3124725986     5.6457738775     3.4840390953
NI      8.5440196014     3.5175661637     3.4901761106
NI      8.5500078237    11.9583093673     3.4911412122
NI     14.6311298471     1.4300208468     3.4950141119
NI     20.7016676548    11.9552160735     3.4795059143
AG     -0.1012329772    -0.0219941221     5.7893232016
AG      5.7813309117     5.0379100666     5.7721358408
AG      7.2035895160     2.5391414186     5.7747207335
AG      8.6582182248     5.0581493240     5.7695472220
AG      1.3518880580     2.4722361275     5.7796031921
AG      5.8037725204    10.1614259317     5.8219198112
AG      2.7772236871    -0.0205952296     5.7993436118
AG      8.6430711771    10.1523618949     5.8431410272
AG     11.6284669264     0.0202877561     5.8047729595
AG     13.0698381287     2.4890135099     5.7862311180
AG      4.2738976124     2.4968073353     5.7935727951
AG      7.2368532451     7.6184469761     5.8191170621
AG     10.1313116422     2.5402153979     5.7843241439
AG      2.8566080718     4.9914326336     5.8207612856
AG      4.3543703594     7.5752843194     5.8199509292
AG      5.7100291598     0.0176073665     5.8146882156
AG     10.0655341279     7.6134707883     5.8330530764
AG      8.6808178298     0.0425801789     5.8177072878
AG     11.5454198080     5.0387154578     5.8009472716
AG     11.5042405594    10.1655632331     5.8382407474
AG     14.5167866090     4.9863523363     5.8248874577
AG     17.5146574217    10.1473929598     5.8405757734
AG     12.9898871273     7.5816976739     5.8453512095
AG     14.5031190274    10.1390618690     5.8518793631
AG     16.0069097491     7.5502505002     5.8590022703
AG      5.7465729173     3.3573559198     8.0906628068
AG      7.1954276660     5.8883480470     8.0928071961
AG      8.6653230982     3.3602174114     8.0809759851
AG      4.2931830811     5.8871967785     8.1062052414
AG      7.2066869229     0.8318548938     8.1084084739
AG     10.1238960942     5.8939426045     8.0967279499
AG      1.3513261522     0.8488901339     8.1031439879
AG      7.1362258080    11.0321147691     8.1744139792
AG     13.0527485540     0.8635402381     8.1263605135
AG      2.8222906739     3.3455006622     8.1144108419
AG      5.7366443811     8.4418298094     8.1172182024
AG      4.2844025921     0.8372665491     8.1200388754
AG      8.6595855505     8.3895593622     8.1732043546
AG     10.1386762126     0.8491382316     8.1145600720
AG     11.6060160062     3.3631169223     8.0841044998
AG     11.5981634041     8.4338637170     8.1093305743
AG     13.0680059953    10.9662636124     8.1237869403
AG     13.0697934482     5.8834245278     8.1049314423
AG     15.9923797399    10.9702721972     8.1086290341
AG     15.9962178198     5.8692127223     8.1260585073
AG     17.4580481477     8.4273296090     8.1212242604
AG     10.1732605532    11.0135047150     8.1815717460
AG     14.5252217992     3.3534658797     8.1256759695
AG     18.8988438270    10.9905037541     8.1371951122
AG     14.5278560338     8.4151117520     8.1223381226
O      11.5864858089     8.3818047286    10.4095081321
H      13.6305981055     8.4659377703    10.5734046316
C      12.6569333308     8.1372980042    10.9819174557
H      10.7362210742     7.3255621129    11.8998791735
O      11.3333988553     6.8969765013    12.5515437870
C      12.6360669250     7.3912165210    12.2757774742
H      13.3438093554     6.5461724671    12.1973908620
O      14.3993740806     8.8240800014    12.9447492231
C      13.1457205062     8.3377856048    13.4003910461
H      12.3963102741     9.1486333277    13.5025973251
H      14.8884417579     9.1382996855    13.7413570100
H      14.0301859535     6.8280208481    14.6632324399
C      13.2537782016     7.6136788683    14.7582997055
O      12.0055980840     7.0426624823    15.1603316094
O      14.9884080335     9.0643923564    15.5452589989
C      13.6720830864     8.5695016502    15.8893183264
H      11.4842331883     6.8333392762    14.3536824064
H      12.9407632642     9.3971564514    15.9333256304
H      15.2750613577     9.6932014962    16.2306296873
H      14.3408616854     6.9668735984    17.1793453029
C      13.7205515160     7.8808222968    17.2612689047
O      12.4393458863     7.6162131332    17.8091739909
H      14.2285059069     8.5630153828    17.9636178278
H      11.9293349807     7.1715123500    17.1027498252
146
Step 2 | ATOMIC_POSITIONS (angstrom) | Cartesian Angstrom
NI      1.2254504230     0.7101865830     1.4556095020
NI      2.4444040200     2.8214761450     1.4556095020
NI      3.6633576180     4.9327657080     1.4556095020
NI      4.8823112150     7.0440552710     1.4556095020
NI      6.1012648120     9.1553448320     1.4556095020
NI      7.3202184090    11.2666343950     1.4556095020
NI      3.6633576170     0.7101865830     1.4556095020
NI      4.8823112140     2.8214761450     1.4556095020
NI      6.1012648110     4.9327657080     1.4556095020
NI      7.3202184090     7.0440552710     1.4556095020
NI      8.5391720050     9.1553448320     1.4556095020
NI      9.7581256030    11.2666343950     1.4556095020
NI      6.1012648120     0.7101865830     1.4556095020
NI      7.3202184090     2.8214761450     1.4556095020
NI      8.5391720060     4.9327657080     1.4556095020
NI      9.7581256040     7.0440552710     1.4556095020
NI     10.9770792000     9.1553448320     1.4556095020
NI     12.1960327980    11.2666343950     1.4556095020
NI      8.5391720070     0.7101865830     1.4556095020
NI      9.7581256040     2.8214761450     1.4556095020
NI     10.9770792010     4.9327657080     1.4556095020
NI     12.1960327990     7.0440552710     1.4556095020
NI     13.4149863960     9.1553448320     1.4556095020
NI     14.6339399930    11.2666343950     1.4556095020
NI     10.9770792000     0.7101865830     1.4556095020
NI     12.1960327970     2.8214761450     1.4556095020
NI     13.4149863950     4.9327657080     1.4556095020
NI     14.6339399920     7.0440552710     1.4556095020
NI     15.8528935890     9.1553448320     1.4556095020
NI     17.0718471870    11.2666343950     1.4556095020
NI     13.4149863960     0.7101865830     1.4556095020
NI     14.6339399920     2.8214761450     1.4556095020
NI     15.8528935900     4.9327657080     1.4556095020
NI     17.0718471870     7.0440552710     1.4556095020
NI     18.2908007840     9.1553448320     1.4556095020
NI     19.5097543820    11.2666343950     1.4556095020
NI     13.4528427912     7.7636514967     3.4062042773
NI     14.6467004106     9.8310320019     3.3946770031
NI     15.8393487035     7.7658433550     3.3942171955
NI     12.2438318817     9.8358305664     3.4393128353
NI     14.6435981429     5.6888710206     3.4217789585
NI     17.0343441047     9.8321898126     3.4121304603
NI     11.0260737066     7.7543805446     3.4551660911
NI     13.4422092723    11.9228848874     3.4367493245
NI     12.2338641294     5.6737607409     3.4381327746
NI     15.8434517859    11.9185891172     3.4288844407
NI     17.0465990648     5.6817137330     3.4327370487
NI     18.2415612934     7.7586558775     3.4253045569
NI      9.7911668349     9.8438663350     3.4790416683
NI     11.0136851636    11.9452021800     3.4640772450
NI     13.4252004643     3.5689919315     3.4616272525
NI     18.2555631030    11.9333836957     3.4520720446
NI     15.8509416707     3.5730602227     3.4548162153
NI     19.4637530651     9.8388517343     3.4606144069
NI      4.8467473700     5.6612532451     3.4505592837
NI      7.3272751154     1.3737649214     3.4578368636
NI      9.7884944082     5.6539874854     3.4694206481
NI      3.6534189363     3.5545275077     3.4711647228
NI      6.0676115653     7.7477213105     3.4780928727
NI      4.9010354497     1.3929164017     3.4766209244
NI      8.5544001884     7.7462284315     3.4808134404
NI      9.7465244226     1.3830272380     3.4686325969
NI     10.9900951201     3.5424945552     3.4745834331
NI      2.4581314574     1.4215716216     3.4908431903
NI      7.3104584131     9.8458733226     3.4875170045
NI     12.1822415103     1.4109785750     3.4823685665
NI      6.0951397504     3.5243382475     3.4816055250
NI      7.3122774415     5.6455263733     3.4840539323
NI      8.5439161904     3.5173715194     3.4901121911
NI      8.5500144204    11.9587524682     3.4920381857
NI     14.6313337756     1.4304156791     3.4943619303
NI     20.7019334481    11.9551450889     3.4800911533
AG     -0.1012454191    -0.0200575371     5.7875154818
AG      5.7811989510     5.0377919061     5.7723119684
AG      7.2036042997     2.5394692520     5.7744231258
AG      8.6572349394     5.0578202878     5.7688180173
AG      1.3520633357     2.4723504322     5.7799162562
AG      5.8017337778    10.1604656280     5.8202986808
AG      2.7775247619    -0.0184113085     5.7977482718
AG      8.6435960367    10.1519901758     5.8448002163
AG     11.6286882838     0.0202502866     5.8048665542
AG     13.0695833658     2.4892893193     5.7864384916
AG      4.2739908193     2.4970732269     5.7938245952
AG      7.2349400224     7.6167863044     5.8171553226
AG     10.1314151525     2.5398798453     5.7839923793
AG      2.8565622547     4.9915772362     5.8206481474
AG      4.3543085428     7.5749705449     5.8204269901
AG      5.7101826616     0.0182937955     5.8148534115
AG     10.0684273327     7.6136446190     5.8314430420
AG      8.6811652681     0.0424949674     5.8175539873
AG     11.5464506614     5.0384143819     5.8003456817
AG     11.5063340802    10.1629970265     5.8382640505
AG     14.5165437522     4.9862498399     5.8245340252
AG     17.5142181633    10.1476428828     5.8406655772
AG     12.9890357747     7.5819878375     5.8458791477
AG     14.5028124206    10.1394609220     5.8522067918
AG     16.0071448287     7.5501477210     5.8583678494
AG      5.7461207473     3.3575522726     8.0907816591
AG      7.1959279438     5.8883102298     8.0936235142
AG      8.6656809409     3.3610343846     8.0819398001
AG      4.2927783023     5.8870896307     8.1061745302
AG      7.2065545817     0.8321278944     8.1084225067
AG     10.1242073458     5.8915843260     8.0973744572
AG      1.3512380389     0.8468661407     8.1049937337
AG      7.1441810652    11.0274344700     8.1723948664
AG     13.0528137921     0.8628808483     8.1260595185
AG      2.8220318492     3.3455428323     8.1145822675
AG      5.7381849807     8.4430970552     8.1185985282
AG      4.2841326724     0.8375080519     8.1203326186
AG      8.6577061372     8.3971779616     8.1705082493
AG     10.1384717441     0.8487478626     8.1142870861
AG     11.6053685775     3.3642062391     8.0858855190
AG     11.5935542393     8.4362159806     8.0944034195
AG     13.0688162156    10.9679048014     8.1229902640
AG     13.0695806081     5.8813779398     8.1041609340
AG     15.9920244363    10.9701053811     8.1095819835
AG     15.9958569759     5.8696924990     8.1266923028
AG     17.4579590185     8.4273773904     8.1214833201
AG     10.1655040920    11.0111685342     8.1782272656
AG     14.5255465702     3.3534398825     8.1254710408
AG     18.8989822637    10.9903154029     8.1371852822
AG     14.5314390178     8.4156083822     8.1191849186
O      11.5861313178     8.3807394733    10.4247898314
H      13.6304784833     8.4670566529    10.5735288077
C      12.6571719879     8.1365747075    10.9875329413
H      10.7353036925     7.3250310960    11.8999585960
O      11.3339025367     6.8972383714    12.5511821392
C      12.6366952468     7.3900713836    12.2763833362
H      13.3448142251     6.5456236873    12.1970785688
O      14.3989892888     8.8245640858    12.9446590334
C      13.1460060987     8.3385393891    13.4010531950
H      12.3965818124     9.1494189834    13.5026156836
H      14.8887859772     9.1380877710    13.7416341605
H      14.0300779076     6.8281211801    14.6631559503
C      13.2537865762     7.6137157719    14.7586297364
O      12.0058678827     7.0426812371    15.1603386236
O      14.9884671139     9.0638528270    15.5449907878
C      13.6721057379     8.5695116154    15.8893709081
H      11.4839805596     6.8332905923    14.3539758237
H      12.9409851170     9.3971782621    15.9332639433
H      15.2746471039     9.6933051085    16.2300191312
H      14.3406098289     6.9670129330    17.1796716116
C      13.7203590679     7.8807046658    17.2612288337
O      12.4394149423     7.6167351090    17.8089863459
H      14.2285512026     8.5618543553    17.9638541946
H      11.9292141776     7.1717545285    17.1031070398
146
Step 3 | ATOMIC_POSITIONS (angstrom) | Cartesian Angstrom
NI      1.2254504230     0.7101865830     1.4556095020
NI      2.4444040200     2.8214761450     1.4556095020
NI      3.6633576180     4.9327657080     1.4556095020
NI      4.8823112150     7.0440552710     1.4556095020
NI      6.1012648120     9.1553448320     1.4556095020
NI      7.3202184090    11.2666343950     1.4556095020
NI      3.6633576170     0.7101865830     1.4556095020
NI      4.8823112140     2.8214761450     1.4556095020
NI      6.1012648110     4.9327657080     1.4556095020
NI      7.3202184090     7.0440552710     1.4556095020
NI      8.5391720050     9.1553448320     1.4556095020
NI      9.7581256030    11.2666343950     1.4556095020
NI      6.1012648120     0.7101865830     1.4556095020
NI      7.3202184090     2.8214761450     1.4556095020
NI      8.5391720060     4.9327657080     1.4556095020
NI      9.7581256040     7.0440552710     1.4556095020
NI     10.9770792000     9.1553448320     1.4556095020
NI     12.1960327980    11.2666343950     1.4556095020
NI      8.5391720070     0.7101865830     1.4556095020
NI      9.7581256040     2.8214761450     1.4556095020
NI     10.9770792010     4.9327657080     1.4556095020
NI     12.1960327990     7.0440552710     1.4556095020
NI     13.4149863960     9.1553448320     1.4556095020
NI     14.6339399930    11.2666343950     1.4556095020
NI     10.9770792000     0.7101865830     1.4556095020
NI     12.1960327970     2.8214761450     1.4556095020
NI     13.4149863950     4.9327657080     1.4556095020
NI     14.6339399920     7.0440552710     1.4556095020
NI     15.8528935890     9.1553448320     1.4556095020
NI     17.0718471870    11.2666343950     1.4556095020
NI     13.4149863960     0.7101865830     1.4556095020
NI     14.6339399920     2.8214761450     1.4556095020
NI     15.8528935900     4.9327657080     1.4556095020
NI     17.0718471870     7.0440552710     1.4556095020
NI     18.2908007840     9.1553448320     1.4556095020
NI     19.5097543820    11.2666343950     1.4556095020
NI     13.4528425298     7.7637832318     3.4053338596
NI     14.6467829916     9.8310141446     3.3949576102
NI     15.8387034578     7.7662681316     3.3943706182
NI     12.2439944164     9.8351707975     3.4373847607
NI     14.6435029278     5.6892566919     3.4218455250
NI     17.0342185117     9.8323878592     3.4119715370
NI     11.0265173644     7.7542962959     3.4530057847
NI     13.4427872723    11.9232795525     3.4365423982
NI     12.2337245597     5.6738987838     3.4377109620
NI     15.8433295102    11.9185870237     3.4286435806
NI     17.0467185011     5.6815654324     3.4322143184
NI     18.2419526880     7.7591042834     3.4245857233
NI      9.7910858750     9.8442541989     3.4798366808
NI     11.0136159042    11.9444639146     3.4653337189
NI     13.4254299829     3.5689791607     3.4613530607
NI     18.2550295135    11.9337616713     3.4517523135
NI     15.8507171912     3.5729494668     3.4542271683
NI     19.4634646987     9.8388232129     3.4590621076
NI      4.8467056349     5.6611871596     3.4503532432
NI      7.3272511156     1.3735989367     3.4577219352
NI      9.7884191418     5.6534760122     3.4697286563
NI      3.6535731531     3.5544817180     3.4716210219
NI      6.0669994253     7.7477834519     3.4766527077
NI      4.9015099528     1.3936180365     3.4761505562
NI      8.5547534058     7.7458330496     3.4829237692
NI      9.7461332560     1.3823728723     3.4684240316
NI     10.9900035097     3.5428250478     3.4751890424
NI      2.4572328322     1.4221528722     3.4894602537
NI      7.3108027522     9.8457249785     3.4894657357
NI     12.1817855520     1.4111752132     3.4817881989
NI      6.0950936472     3.5244103482     3.4815294525
NI      7.3119852002     5.6451247659     3.4840275841
NI      8.5437651880     3.5170398264     3.4899630473
NI      8.5500373681    11.9593699767     3.4935231006
NI     14.6315291911     1.4311027976     3.4932181683
NI     20.7022276801    11.9550046479     3.4809650509
AG     -0.1013098079    -0.0169153761     5.7846764955
AG      5.7808963902     5.0375611192     5.7726475606
AG      7.2037032374     2.5400230441     5.7739859961
AG      8.6556951757     5.0573557995     5.7676975039
AG      1.3523596042     2.4726316172     5.7805433005
AG      5.7984098323    10.1589781530     5.8177446867
AG      2.7781796390    -0.0147981753     5.7951516846
AG      8.6444203110    10.1513762786     5.8467358731
AG     11.6291152436     0.0201475605     5.8049819073
AG     13.0690303899     2.4898301768     5.7868577697
AG      4.2741903752     2.4975991657     5.7942491562
AG      7.2319231733     7.6138015333     5.8139961821
AG     10.1315899041     2.5393549159     5.7835514997
AG      2.8564295044     4.9918417095     5.8204553833
AG      4.3540968439     7.5744487646     5.8212727439
AG      5.7103902273     0.0194839436     5.8150248729
AG     10.0723865481     7.6132797608     5.8282350963
AG      8.6817342638     0.0423429080     5.8172971729
AG     11.5480962128     5.0377668711     5.7993380241
AG     11.5099728123    10.1596047481     5.8375084717
AG     14.5162044331     4.9860921379     5.8239145581
AG     17.5133239740    10.1480829655     5.8408245407
AG     12.9884397093     7.5819982560     5.8458467919
AG     14.5023448308    10.1402925486     5.8525118293
AG     16.0076954402     7.5498451268     5.8571664442
AG      5.7453789807     3.3579067550     8.0909895556
AG      7.1969625707     5.8885482521     8.0949466830
AG      8.6662480471     3.3623622673     8.0835390154
AG      4.2921192924     5.8869788402     8.1061366803
AG      7.2063897884     0.8327337699     8.1084070872
AG     10.1245138624     5.8879718816     8.0982803238
AG      1.3510315963     0.8434792149     8.1080670559
AG      7.1575655153    11.0194871914     8.1686324592
AG     13.0531366735     0.8613687512     8.1254404713
AG      2.8214970529     3.3455761605     8.1148781948
AG      5.7407529582     8.4452413334     8.1208578568
AG      4.2834526559     0.8376287083     8.1207921487
AG      8.6544485035     8.4099420892     8.1655557709
AG     10.1381262488     0.8481178081     8.1137871667
AG     11.6042449979     3.3658727806     8.0889428107
AG     11.5857490451     8.4402709364     8.0723981784
AG     13.0697569176    10.9706993284     8.1216656789
AG     13.0691680468     5.8781626024     8.1028338073
AG     15.9914922338    10.9699174815     8.1112529831
AG     15.9952174806     5.8704932343     8.1277213755
AG     17.4580260857     8.4274691544     8.1219168279
AG     10.1523863167    11.0073309072     8.1722628011
AG     14.5261509158     3.3532364794     8.1250965969
AG     18.8996997882    10.9899870554     8.1370933562
AG     14.5371708538     8.4164076202     8.1138300199
O      11.5819140961     8.3809840262    10.4454024580
H      13.6289132277     8.4683177935    10.5747272360
C      12.6599337535     8.1369525689    10.9948411811
H      10.7342541674     7.3246398957    11.8995636441
O      11.3349861013     6.8965706919    12.5518712536
C      12.6393219312     7.3865047582    12.2818877969
H      13.3465320421     6.5444814046    12.1971138438
O      14.3996345812     8.8261417808    12.9458355177
C      13.1460837274     8.3384978239    13.4020379516
H      12.3969186952     9.1507502391    13.5026086782
H      14.8888203962     9.1373013304    13.7409685920
H      14.0300049665     6.8282639585    14.6630024707
C      13.2538496237     7.6142549010    14.7589999632
O      12.0060406840     7.0426091751    15.1604350078
O      14.9888529952     9.0633226885    15.5449363323
C      13.6721813555     8.5690786747    15.8895736142
H      11.4837049677     6.8332615586    14.3543859544
H      12.9413059459     9.3973754141    15.9331499797
H      15.2738445665     9.6932016390    16.2284585156
H      14.3402444328     6.9669068503    17.1800926836
C      13.7201086416     7.8806260738    17.2609501122
O      12.4393334983     7.6177662776    17.8091249078
H      14.2288308059     8.5601319567    17.9644967929
H      11.9287788944     7.1720118804    17.1033923984
146
Step 4 | ATOMIC_POSITIONS (angstrom) | Cartesian Angstrom
NI      1.2254504230     0.7101865830     1.4556095020
NI      2.4444040200     2.8214761450     1.4556095020
NI      3.6633576180     4.9327657080     1.4556095020
NI      4.8823112150     7.0440552710     1.4556095020
NI      6.1012648120     9.1553448320     1.4556095020
NI      7.3202184090    11.2666343950     1.4556095020
NI      3.6633576170     0.7101865830     1.4556095020
NI      4.8823112140     2.8214761450     1.4556095020
NI      6.1012648110     4.9327657080     1.4556095020
NI      7.3202184090     7.0440552710     1.4556095020
NI      8.5391720050     9.1553448320     1.4556095020
NI      9.7581256030    11.2666343950     1.4556095020
NI      6.1012648120     0.7101865830     1.4556095020
NI      7.3202184090     2.8214761450     1.4556095020
NI      8.5391720060     4.9327657080     1.4556095020
NI      9.7581256040     7.0440552710     1.4556095020
NI     10.9770792000     9.1553448320     1.4556095020
NI     12.1960327980    11.2666343950     1.4556095020
NI      8.5391720070     0.7101865830     1.4556095020
NI      9.7581256040     2.8214761450     1.4556095020
NI     10.9770792010     4.9327657080     1.4556095020
NI     12.1960327990     7.0440552710     1.4556095020
NI     13.4149863960     9.1553448320     1.4556095020
NI     14.6339399930    11.2666343950     1.4556095020
NI     10.9770792000     0.7101865830     1.4556095020
NI     12.1960327970     2.8214761450     1.4556095020
NI     13.4149863950     4.9327657080     1.4556095020
NI     14.6339399920     7.0440552710     1.4556095020
NI     15.8528935890     9.1553448320     1.4556095020
NI     17.0718471870    11.2666343950     1.4556095020
NI     13.4149863960     0.7101865830     1.4556095020
NI     14.6339399920     2.8214761450     1.4556095020
NI     15.8528935900     4.9327657080     1.4556095020
NI     17.0718471870     7.0440552710     1.4556095020
NI     18.2908007840     9.1553448320     1.4556095020
NI     19.5097543820    11.2666343950     1.4556095020
NI     13.4527928522     7.7639080723     3.4041192646
NI     14.6468862305     9.8310726081     3.3954958862
NI     15.8379011808     7.7669333891     3.3943105482
NI     12.2442428143     9.8344119364     3.4340794360
NI     14.6434105325     5.6899030653     3.4218560138
NI     17.0340237098     9.8326860456     3.4117462350
NI     11.0271370867     7.7541487228     3.4489682554
NI     13.4434722541    11.9237919105     3.4363311481
NI     12.2335532774     5.6741462689     3.4368398760
NI     15.8430912074    11.9185022896     3.4282317483
NI     17.0468300132     5.6815042241     3.4313683022
NI     18.2423881862     7.7597271632     3.4236754914
NI      9.7909294478     9.8447445803     3.4812363625
NI     11.0138362109    11.9432898329     3.4671153427
NI     13.4256829617     3.5690212292     3.4609323506
NI     18.2543481524    11.9343067566     3.4513116968
NI     15.8504049476     3.5729333463     3.4533590250
NI     19.4629155715     9.8389509232     3.4560145350
NI      4.8466311331     5.6611040557     3.4500823335
NI      7.3272158029     1.3733602506     3.4575374646
NI      9.7883026853     5.6526860177     3.4701149722
NI      3.6537552448     3.5544398102     3.4723708165
NI      6.0660339578     7.7479323994     3.4738381087
NI      4.9020403934     1.3946236553     3.4754339641
NI      8.5553954077     7.7452494469     3.4861000629
NI      9.7454996524     1.3814515404     3.4680336098
NI     10.9898542708     3.5432606814     3.4761013875
NI      2.4559916631     1.4231960754     3.4869793664
NI      7.3114159972     9.8454589961     3.4927620262
NI     12.1811001323     1.4114889219     3.4808634382
NI      6.0950288202     3.5245773143     3.4813490655
NI      7.3114515966     5.6445178592     3.4838359904
NI      8.5435564097     3.5164423375     3.4896153576
NI      8.5501115688    11.9602017846     3.4958676315
NI     14.6316337836     1.4323323955     3.4910815781
NI     20.7024886001    11.9547272760     3.4821266439
AG     -0.1014710234    -0.0117876284     5.7802767998
AG      5.7801680976     5.0370836487     5.7733747953
AG      7.2040253046     2.5409792771     5.7734372924
AG      8.6532849417     5.0566721710     5.7660737624
AG      1.3528694160     2.4733035578     5.7818420260
AG      5.7929597452    10.1566710555     5.8137475937
AG      2.7795476297    -0.0086957736     5.7909374788
AG      8.6457169971    10.1503600950     5.8479840836
AG     11.6299472778     0.0198865286     5.8051338142
AG     13.0678197646     2.4909247556     5.7877902123
AG      4.2746205752     2.4987019672     5.7950321326
AG      7.2270760064     7.6083160465     5.8089243192
AG     10.1318933259     2.5385272055     5.7831215881
AG      2.8560779034     4.9923249727     5.8201660204
AG      4.3535061336     7.5735778292     5.8228553095
AG      5.7106608794     0.0216796493     5.8151505263
AG     10.0772817512     7.6112545028     5.8217207428
AG      8.6826831551     0.0420650419     5.8169201185
AG     11.5507392361     5.0363362838     5.7977241722
AG     11.5163909143    10.1558138759     5.8345858718
AG     14.5158131634     4.9858072032     5.8228557057
AG     17.5114490951    10.1488820460     5.8412069387
AG     12.9891022641     7.5809899697     5.8442129447
AG     14.5016648501    10.1420952041     5.8526553288
AG     16.0090530921     7.5490174273     5.8548738083
AG      5.7441409700     3.3585750637     8.0914334572
AG      7.1991245701     5.8896203755     8.0971949113
AG      8.6671333355     3.3645365206     8.0863120930
AG      4.2910490119     5.8869325543     8.1061648275
AG      7.2062193208     0.8340970304     8.1083603161