78
Step 1 | ATOMIC_POSITIONS (angstrom) | Cartesian Angstrom
NI      0.0097201610     0.0011586850     1.9994538050
NI      1.2383701610     2.1292429100     1.9994538050
NI      2.4670201610     4.2573271340     1.9994538050
NI      3.6956701610     6.3854113590     1.9994538050
NI      2.4670201610     0.0011586850     1.9994538050
NI      3.6956701610     2.1292429100     1.9994538050
NI      4.9243201610     4.2573271340     1.9994538050
NI      6.1529701610     6.3854113590     1.9994538050
NI      4.9243201610     0.0011586850     1.9994538050
NI      6.1529701610     2.1292429100     1.9994538050
NI      7.3816201610     4.2573271340     1.9994538050
NI      8.6102701610     6.3854113590     1.9994538050
NI      7.3816201610     0.0011586850     1.9994538050
NI      8.6102701610     2.1292429100     1.9994538050
NI      9.8389201610     4.2573271340     1.9994538050
NI     11.0675701610     6.3854113590     1.9994538050
NI      1.2383435779     0.7109127280     4.0079809595
NI      2.4669560919     2.8387862819     4.0078826033
NI      3.6956700350     4.9663220970     4.0080118432
NI      4.9245709358     7.0947704633     4.0075167789
NI      3.6955106608     0.7105166632     4.0072232224
NI      4.9242182857     2.8385993680     4.0067761747
NI      6.1531937389     4.9669179421     4.0079172570
NI      7.3813974484     7.0953616644     4.0060505127
NI      6.1527184345     0.7109394902     4.0076321305
NI      7.3813748414     2.8388613413     4.0085242405
NI      8.6097977557     4.9665344159     4.0085783055
NI      9.8388577934     7.0946401538     4.0077052030
NI      8.6105312778     0.7106592026     4.0074192452
NI      9.8398024052     2.8381486786     4.0064029982
NI     11.0674971100     4.9667280759     4.0074551712
NI     12.2961382452     7.0949402537     4.0077487696
NI      2.4677386657     1.4205892477     6.0119090797
NI      3.6954706137     3.5467456932     6.0087255850
NI      4.9242453920     5.6752138877     6.0109659540
NI      6.1529359198     7.8024408117     6.0128482035
NI      4.9243981068     1.4197169133     6.0105703093
NI      6.1519382655     3.5473554673     6.0075187614
NI      7.3820121774     5.6759820021     6.0096026645
NI      8.6104803349     7.8034625820     6.0127561044
NI      7.3815623158     1.4200780918     6.0109266595
NI      8.6104687679     3.5476433917     6.0066502672
NI      9.8388843986     5.6755701051     6.0105581696
NI     11.0674858321     7.8043606735     6.0109363200
NI      9.8390128288     1.4205118731     6.0113993629
NI     11.0668971132     3.5484104914     6.0138151673
NI     12.2965896705     5.6759237190     6.0115070470
NI     13.5247766739     7.8041576639     6.0120477142
NI      0.0096057623     0.0019660411     8.0234604507
NI      1.2367309248     2.1282589378     8.0222688246
NI      2.4636305177     4.2593193357     8.0231718023
NI      3.6924100991     6.3890293810     8.0207351407
NI      2.4664438037     0.0006271587     8.0225145349
NI      3.6923176076     2.1249768725     8.0207849328
NI      4.9098061319     4.2522170987     8.0160001582
NI      6.1519365744     6.3928210281     8.0185716682
NI      4.9256811152    -0.0011659809     8.0214319904
NI      6.1537110635     2.1148279218     8.0069134847
NI      7.3768317306     4.2782613930     7.9031218949
NI      8.6121491639     6.3940935405     8.0201191885
NI      7.3810795102     0.0016253020     8.0252981541
NI      8.6145389683     2.1179428696     8.0166380284
NI      9.8486081328     4.2559665820     8.0219909644
NI     11.0688060733     6.3866079396     8.0232047175
C       5.7883566748     3.8333999398    10.2566782184
C       4.4254334176     3.3492782569    10.0050224694
C       7.4205375804     4.0934920172     9.6748869978
O       5.8766237593     5.2970090633    10.0704220665
O       4.2977415664     1.9729010922    10.3606417498
O       8.6622437094     4.5170841586     9.8311387645
H       6.8004128683     5.4891410953    10.4383997024
H       5.2071272928     1.5963125157    10.2208653067
H       3.3622388499     3.8404105059     9.8920700464
H       3.7344827289     3.5812405436    10.9021973072
H       7.8915209514     3.0339255839     9.5469527667
H       6.4183004141     3.3735015536    11.0273696106
H       6.6225803458     3.0398517306     9.3910438112
H       8.7381035531     4.6971811709    10.7416419960
78
Step 2 | ATOMIC_POSITIONS (angstrom) | Cartesian Angstrom
NI      0.0097201610     0.0011586850     1.9994538050
NI      1.2383701610     2.1292429100     1.9994538050
NI      2.4670201610     4.2573271340     1.9994538050
NI      3.6956701610     6.3854113590     1.9994538050
NI      2.4670201610     0.0011586850     1.9994538050
NI      3.6956701610     2.1292429100     1.9994538050
NI      4.9243201610     4.2573271340     1.9994538050
NI      6.1529701610     6.3854113590     1.9994538050
NI      4.9243201610     0.0011586850     1.9994538050
NI      6.1529701610     2.1292429100     1.9994538050
NI      7.3816201610     4.2573271340     1.9994538050
NI      8.6102701610     6.3854113590     1.9994538050
NI      7.3816201610     0.0011586850     1.9994538050
NI      8.6102701610     2.1292429100     1.9994538050
NI      9.8389201610     4.2573271340     1.9994538050
NI     11.0675701610     6.3854113590     1.9994538050
NI      1.2385641741     0.7113012703     4.0113685156
NI      2.4665480975     2.8389827599     4.0108769788
NI      3.6955696255     4.9657544685     4.0109954530
NI      4.9249038701     7.0949782973     4.0098340396
NI      3.6948506729     0.7099367904     4.0087246236
NI      4.9236033445     2.8380668571     4.0065703300
NI      6.1536561243     4.9673079519     4.0104016038
NI      7.3812425215     7.0967956721     4.0054690649
NI      6.1522923737     0.7116735753     4.0102515810
NI      7.3809698848     2.8391273941     4.0116216198
NI      8.6092033194     4.9663912887     4.0119551581
NI      9.8386152187     7.0945150113     4.0100482536
NI      8.6110639172     0.7107201261     4.0091809862
NI      9.8413683399     2.8373685502     4.0066257648
NI     11.0673643928     4.9667781434     4.0096024628
NI     12.2961151226     7.0953043864     4.0101256332
NI      2.4688012370     1.4215716803     6.0113175333
NI      3.6950755183     3.5448885909     6.0038664677
NI      4.9240104759     5.6735418856     6.0087530421
NI      6.1528312378     7.7998017960     6.0140228824
NI      4.9242461608     1.4191680750     6.0070309073
NI      6.1454568009     3.5437302035     5.9916428850
NI      7.3820561236     5.6822075392     5.9962227714
NI      8.6108363692     7.8026400186     6.0137999257
NI      7.3813473125     1.4196643105     6.0075005432
NI      8.6143631845     3.5443212338     5.9915503246
NI      9.8393672200     5.6751245705     6.0077885513
NI     11.0674044803     7.8048389441     6.0094638823
NI      9.8381910671     1.4215967976     6.0113670089
NI     11.0659117878     3.5491561572     6.0169970668
NI     12.2970755922     5.6758884667     6.0102963981
NI     13.5246673604     7.8041393184     6.0121874469
NI      0.0096096475     0.0032176482     8.0294714341
NI      1.2347089195     2.1257770308     8.0268287359
NI      2.4584340882     4.2624806186     8.0308077660
NI      3.6866683735     6.3952702212     8.0228208857
NI      2.4653859422     0.0004699529     8.0273472313
NI      3.6864237153     2.1175094733     8.0251862479
NI      4.8900497251     4.2440679049     8.0173370767
NI      6.1492927514     6.4006978167     8.0240647101
NI      4.9276011719    -0.0060457224     8.0246663651
NI      6.1586028220     2.1013396902     8.0000814969
NI      7.3593141076     4.2903399181     7.8142012529
NI      8.6151082172     6.4069207132     8.0217068607
NI      7.3805809652    -0.0000299503     8.0340913215
NI      8.6179817279     2.1063471139     8.0193330706
NI      9.8610288131     4.2553083995     8.0266588425
NI     11.0710036000     6.3892460983     8.0288300398
C       5.8127378137     3.8514033643    10.2916313692
C       4.3935522369     3.3497153235    10.0591593502
C       7.5534464974     4.0117299473     9.5796501921
O       5.7948685775     5.3784694936    10.1563311474
O       4.2989148615     1.9304351440    10.3470308915
O       8.7952801930     4.6514890025     9.8715234291
H       6.7693693017     5.5132060282    10.4385832212
H       5.2078185980     1.5849622246    10.2104705634
H       3.3459877362     3.8542368448     9.8107990706
H       3.7650124376     3.6162195441    10.9505683224
H       7.8769852634     2.9547423263     9.5629717297
H       6.3621402731     3.3709864822    11.0890261833
H       6.5183755162     2.9343721067     9.3508354867
H       8.7867498226     4.7217598007    10.8291209835
78
Step 3 | ATOMIC_POSITIONS (angstrom) | Cartesian Angstrom
NI      0.0097201610     0.0011586850     1.9994538050
NI      1.2383701610     2.1292429100     1.9994538050
NI      2.4670201610     4.2573271340     1.9994538050
NI      3.6956701610     6.3854113590     1.9994538050
NI      2.4670201610     0.0011586850     1.9994538050
NI      3.6956701610     2.1292429100     1.9994538050
NI      4.9243201610     4.2573271340     1.9994538050
NI      6.1529701610     6.3854113590     1.9994538050
NI      4.9243201610     0.0011586850     1.9994538050
NI      6.1529701610     2.1292429100     1.9994538050
NI      7.3816201610     4.2573271340     1.9994538050
NI      8.6102701610     6.3854113590     1.9994538050
NI      7.3816201610     0.0011586850     1.9994538050
NI      8.6102701610     2.1292429100     1.9994538050
NI      9.8389201610     4.2573271340     1.9994538050
NI     11.0675701610     6.3854113590     1.9994538050
NI      1.2390757135     0.7115248228     4.0172798791
NI      2.4656711672     2.8391699115     4.0154354397
NI      3.6951509249     4.9651952068     4.0147290269
NI      4.9252931389     7.0954461971     4.0137178010
NI      3.6931417196     0.7084387867     4.0103366564
NI      4.9208003644     2.8360668642     4.0028957772
NI      6.1539534388     4.9685035411     4.0119061318
NI      7.3809966057     7.1011166585     4.0019431887
NI      6.1516015398     0.7127588765     4.0141754758
NI      7.3804545093     2.8387070767     4.0133462487
NI      8.6088132333     4.9666664646     4.0144179171
NI      9.8380539752     7.0945497309     4.0133365125
NI      8.6121217507     0.7106305742     4.0110585466
NI      9.8444903278     2.8358079001     4.0059552933
NI     11.0673713432     4.9667782564     4.0128054805
NI     12.2961580479     7.0959338406     4.0134523419
NI      2.4700856092     1.4227167790     6.0120455861
NI      3.6933826050     3.5411058011     5.9984620497
NI      4.9235811276     5.6705195783     6.0083885312
NI      6.1523992923     7.7965881408     6.0174757028
NI      4.9233858662     1.4180490597     6.0017823097
NI      6.1279949459     3.5337659780     5.9556341677
NI      7.3817931927     5.7024506665     5.9619887842
NI      8.6114727569     7.8017476930     6.0169909731
NI      7.3816919788     1.4175939543     6.0020248509
NI      8.6252295265     3.5363082729     5.9624878843
NI      9.8406483073     5.6746179677     6.0056964306
NI     11.0673741457     7.8055128581     6.0091211884
NI      9.8369714071     1.4222679194     6.0130655693
NI     11.0648133066     3.5501041300     6.0235938384
NI     12.2978161853     5.6756657090     6.0099390071
NI     13.5246209395     7.8043547874     6.0138076584
NI      0.0094888429     0.0058790441     8.0396263761
NI      1.2321124695     2.1201609912     8.0340939351
NI      2.4495920897     4.2675754712     8.0434991111
NI      3.6773400020     6.4053902062     8.0260258004
NI      2.4627921609     0.0008826894     8.0348143087
NI      3.6760443890     2.1006660350     8.0326947111
NI      4.8644726264     4.2327843885     8.0259588054
NI      6.1423305327     6.4102109480     8.0383634558
NI      4.9305324008    -0.0136109383     8.0291580302
NI      6.1648901055     2.0823040529     7.9875451064
NI      7.3367867784     4.3072076244     7.7255017725
NI      8.6181206719     6.4234292145     8.0266472662
NI      7.3803963568    -0.0045316269     8.0487006476
NI      8.6249214451     2.0931070385     8.0194157653
NI      9.8786916525     4.2547430514     8.0351278475
NI     11.0759746468     6.3951752644     8.0363476297
C       5.8395306922     3.9174329431    10.2836522393
C       4.3503574482     3.3440649693    10.1962735595
C       7.7819381725     3.9287297455     9.4426289834
O       5.7431205161     5.4223547211    10.3147934693
O       4.2835731667     1.8976836252    10.3148102450
O       8.9054980027     4.8234422664     9.9482733802
H       6.6834555677     5.5601306038    10.4200059065
H       5.2226974722     1.5609235485    10.1862569978
H       3.3388302770     3.8662999786     9.6507007337
H       3.8261827654     3.6761235691    11.0423547963
H       7.8839690525     2.8399965391     9.6212980746
H       6.2814355348     3.3745784336    11.2002927725
H       6.3314478673     2.7807840865     9.2949069324
H       8.8663920581     4.7493200411    10.9439887990
78
Step 4 | ATOMIC_POSITIONS (angstrom) | Cartesian Angstrom
NI      0.0097201610     0.0011586850     1.9994538050
NI      1.2383701610     2.1292429100     1.9994538050
NI      2.4670201610     4.2573271340     1.9994538050
NI      3.6956701610     6.3854113590     1.9994538050
NI      2.4670201610     0.0011586850     1.9994538050
NI      3.6956701610     2.1292429100     1.9994538050
NI      4.9243201610     4.2573271340     1.9994538050
NI      6.1529701610     6.3854113590     1.9994538050
NI      4.9243201610     0.0011586850     1.9994538050
NI      6.1529701610     2.1292429100     1.9994538050
NI      7.3816201610     4.2573271340     1.9994538050
NI      8.6102701610     6.3854113590     1.9994538050
NI      7.3816201610     0.0011586850     1.9994538050
NI      8.6102701610     2.1292429100     1.9994538050
NI      9.8389201610     4.2573271340     1.9994538050
NI     11.0675701610     6.3854113590     1.9994538050
NI      1.2394310441     0.7112556313     4.0197432058
NI      2.4650310860     2.8390418107     4.0168313682
NI      3.6948069891     4.9654310413     4.0153283284
NI      4.9253230591     7.0956662199     4.0153446727
NI      3.6920604803     0.7076482987     4.0101658856
NI      4.9172717453     2.8339464114     3.9975049325
NI      6.1531670855     4.9697219013     4.0083228064
NI      7.3807814868     7.1051350568     3.9977074815
NI      6.1512859717     0.7127670834     4.0150870621
NI      7.3805512072     2.8375040529     4.0101258075
NI      8.6097711355     4.9673897686     4.0113565642
NI      9.8378099291     7.0948386794     4.0142844490
NI      8.6127546831     0.7104130388     4.0108795571
NI      9.8467159276     2.8346355468     4.0043297392
NI     11.0675383509     4.9666650289     4.0137654639
NI     12.2962381373     7.0962873035     4.0143041419
NI      2.4699293962     1.4225065631     6.0139991966
NI      3.6913587460     3.5390269745     5.9992408406
NI      4.9237026409     5.6686966983     6.0120813176
NI      6.1516837666     7.7971767904     6.0201662026
NI      4.9218222333     1.4168994977     5.9995767102
NI      6.1178981863     3.5282857355     5.9373805788
NI      7.3809774033     5.7160801594     5.9421147793
NI      8.6119799425     7.8024245193     6.0191105901
NI      7.3827721049     1.4157631410     5.9995356595
NI      8.6309978722     3.5323537528     5.9496297562
NI      9.8413330290     5.6746735845     6.0073939956
NI     11.0676071200     7.8056492845     6.0108092810
NI      9.8373120690     1.4208978760     6.0144309032
NI     11.0654666066     3.5499022569     6.0266443169
NI     12.2981596524     5.6753520203     6.0111645757
NI     13.5247521939     7.8045763756     6.0156753916
NI      0.0094506381     0.0067681087     8.0444984539
NI      1.2321525498     2.1169491228     8.0369963272
NI      2.4451289562     4.2697137609     8.0473175545
NI      3.6747992644     6.4085475923     8.0278540152
NI      2.4604738699     0.0002433033     8.0380781184
NI      3.6713727932     2.0898694538     8.0354376248
NI      4.8618577293     4.2288912532     8.0348982907
NI      6.1374682859     6.4140360079     8.0431790594
NI      4.9317941067    -0.0160331114     8.0305230263
NI      6.1635166196     2.0697175953     7.9681071638
NI      7.3352833205     4.3085224848     7.7343225218
NI      8.6172445327     6.4273535244     8.0291321807
NI      7.3809121191    -0.0067068966     8.0551102820
NI      8.6261749536     2.0963557525     8.0212592362
NI      9.8803337062     4.2539922075     8.0382761331
NI     11.0779978505     6.3982798890     8.0384941638
C       5.8269873690     3.9253079311    10.3040745919
C       4.3480039637     3.3443974691    10.2310899243
C       7.8724481157     3.9134811880     9.3889936605
O       5.7055948846     5.3887275083    10.3735428959
O       4.2902993513     1.9048312881    10.3001034987
O       8.9079625866     4.8562311829     9.9965862123
H       6.6871359014     5.5982795400    10.4178514485
H       5.2126718502     1.5580569725    10.1734882892
H       3.3643851091     3.8562191635     9.5817659898
H       3.8360508730     3.7115179770    11.1172785969
H       7.8987303416     2.8015544089     9.6636243647
H       6.2441094258     3.4014788517    11.2143329725
H       6.2660561881     2.7396233980     9.2876145988
H       8.9042853215     4.7594129564    10.9671929375
78
Step 5 | ATOMIC_POSITIONS (angstrom) | Cartesian Angstrom
NI      0.0097201610     0.0011586850     1.9994538050
NI      1.2383701610     2.1292429100     1.9994538050
NI      2.4670201610     4.2573271340     1.9994538050
NI      3.6956701610     6.3854113590     1.9994538050
NI      2.4670201610     0.0011586850     1.9994538050
NI      3.6956701610     2.1292429100     1.9994538050
NI      4.9243201610     4.2573271340     1.9994538050
NI      6.1529701610     6.3854113590     1.9994538050
NI      4.9243201610     0.0011586850     1.9994538050
NI      6.1529701610     2.1292429100     1.9994538050
NI      7.3816201610     4.2573271340     1.9994538050
NI      8.6102701610     6.3854113590     1.9994538050
NI      7.3816201610     0.0011586850     1.9994538050
NI      8.6102701610     2.1292429100     1.9994538050
NI      9.8389201610     4.2573271340     1.9994538050
NI     11.0675701610     6.3854113590     1.9994538050
NI      1.2401781803     0.7106666660     4.0239151268
NI      2.4636208384     2.8385216455     4.0187209459
NI      3.6941168722     4.9663035744     4.0159811786
NI      4.9251618553     7.0959006793     4.0185423265
NI      3.6898337967     0.7064006357     4.0090856671
NI      4.9082220280     2.8288734241     3.9838555370
NI      6.1505298481     4.9725243683     3.9971581900
NI      7.3802523761     7.1148877528     3.9870880425
NI      6.1506963540     0.7120004353     4.0157002190
NI      7.3810596370     2.8344585985     4.0002194890
NI      8.6128397747     4.9692754070     4.0016888355
NI      9.8375693959     7.0956615415     4.0158136000
NI      8.6141143071     0.7097932226     4.0096615064
NI      9.8517928538     2.8318302483     3.9999212725
NI     11.0680361777     4.9664054130     4.0152208411
NI     12.2963948596     7.0970281819     4.0155122260
NI      2.4688281481     1.4212156860     6.0189306324
NI      3.6866253147     3.5351826057     6.0044812696
NI      4.9243821059     5.6645599651     6.0225639023
NI      6.1496710031     7.8006807576     6.0257458841
NI      4.9165006196     1.4136039884     5.9937148798
NI      6.1033727050     3.5216765616     5.9100663582
NI      7.3785261437     5.7365816453     5.9114159229
NI      8.6130340319     7.8050534614     6.0230229708
NI      7.3868052903     1.4117281927     5.9942635736
NI      8.6375572623     3.5276056523     5.9306024753
NI      9.8422296172     5.6749539673     6.0127819155
NI     11.0684937040     7.8056791593     6.0155251383
NI      9.8389381792     1.4167111561     6.0171618444
NI     11.0678171142     3.5486514721     6.0314762649
NI     12.2989150743     5.6746283196     6.0144875273
NI     13.5251652626     7.8047870995     6.0200393742
NI      0.0088342153     0.0084016327     8.0542778562
NI      1.2331817552     2.1109846889     8.0423415154
NI      2.4355745910     4.2735117889     8.0502225333
NI      3.6725604089     6.4122884901     8.0325763142
NI      2.4548432430    -0.0028612582     8.0446756010
NI      3.6631655041     2.0678884001     8.0394045512
NI      4.8665294408     4.2220369989     8.0557184585
NI      6.1283567816     6.4206475925     8.0476768863
NI      4.9337225425    -0.0203484046     8.0324009467
NI      6.1579818795     2.0460546470     7.9225095987
NI      7.3347031785     4.3105512174     7.7671158659
NI      8.6127172058     6.4313733461     8.0332605450
NI      7.3828030260    -0.0098716943     8.0667283354
NI      8.6261361279     2.1121345075     8.0290983038
NI      9.8740200766     4.2516418823     8.0446669344
NI     11.0804839311     6.4035460419     8.0419246913
C       5.7523739964     3.9237555061    10.3517766305
C       4.3364208192     3.3666612489    10.3093656260
C       8.0542845616     3.8722582162     9.3286011402
O       5.7096696798     5.3119383897    10.4773436493
O       4.2894297482     1.9393238249    10.2822153854
O       8.8797965964     4.8841386039    10.0510893785
H       6.6467221153     5.6660903001    10.4117874527
H       5.1974756353     1.5552916740    10.1453798105
H       3.4430188143     3.8235483377     9.4708469078
H       3.8555189091     3.7654717410    11.2380580553
H       7.9335748556     2.7724988371     9.7468089962
H       6.1893933722     3.4595093721    11.2247959174
H       6.1632967451     2.6851270250     9.2866125903
H       8.9708711847     4.7680828665    11.0253499201
78
Step 6 | ATOMIC_POSITIONS (angstrom) | Cartesian Angstrom
NI      0.0097201610     0.0011586850     1.9994538050
NI      1.2383701610     2.1292429100     1.9994538050
NI      2.4670201610     4.2573271340     1.9994538050
NI      3.6956701610     6.3854113590     1.9994538050
NI      2.4670201610     0.0011586850     1.9994538050
NI      3.6956701610     2.1292429100     1.9994538050
NI      4.9243201610     4.2573271340     1.9994538050
NI      6.1529701610     6.3854113590     1.9994538050
NI      4.9243201610     0.0011586850     1.9994538050
NI      6.1529701610     2.1292429100     1.9994538050
NI      7.3816201610     4.2573271340     1.9994538050
NI      8.6102701610     6.3854113590     1.9994538050
NI      7.3816201610     0.0011586850     1.9994538050
NI      8.6102701610     2.1292429100     1.9994538050
NI      9.8389201610     4.2573271340     1.9994538050
NI     11.0675701610     6.3854113590     1.9994538050
NI      1.2404385751     0.7106071912     4.0257471832
NI      2.4625687663     2.8378558480     4.0190229735
NI      3.6938101929     4.9670472444     4.0165581179
NI      4.9248300009     7.0956602229     4.0211951669
NI      3.6882490686     0.7061602678     4.0077811874
NI      4.9009490948     2.8254512450     3.9734455947
NI      6.1477627871     4.9744814159     3.9866272303
NI      7.3797887140     7.1223848955     3.9787720133
NI      6.1503211839     0.7104632288     4.0145849422
NI      7.3814554371     2.8323418755     3.9911457043
NI      8.6157564643     4.9708863359     3.9928440931
NI      9.8377842769     7.0964583446     4.0168287195
NI      8.6153374182     0.7090619391     4.0082160326
NI      9.8555229823     2.8296753585     3.9963799190
NI     11.0685218077     4.9662401316     4.0161628816
NI     12.2964921127     7.0975016439     4.0162622107
NI      2.4671907439     1.4194890576     6.0229797320
NI      3.6834039191     3.5331273482     6.0118013801
NI      4.9252841373     5.6609810348     6.0320450171
NI      6.1478594386     7.8051186271     6.0289962419
NI      4.9098338253     1.4103213750     5.9864269633
NI      6.1014799086     3.5229252559     5.9035057372
NI      7.3763609433     5.7399441988     5.9042454617
NI      8.6132214389     7.8075914604     6.0248407272
NI      7.3923468364     1.4087886766     5.9894462817
NI      8.6355322234     3.5284711226     5.9257645267
NI      9.8418776046     5.6751006641     6.0176838081
NI     11.0697439521     7.8055378451     6.0198486656
NI      9.8405197380     1.4131035641     6.0191776779
NI     11.0699695024     3.5470330912     6.0326203580
NI     12.2993861630     5.6741583839     6.0172958083
NI     13.5256329229     7.8043195710     6.0234116546
NI      0.0070437559     0.0101785789     8.0617210990
NI      1.2343075910     2.1079767066     8.0458389363
NI      2.4287164500     4.2750226607     8.0475633844
NI      3.6744777417     6.4115870026     8.0378259636
NI      2.4500519734    -0.0074773376     8.0498306521
NI      3.6590944994     2.0535087856     8.0405061422
NI      4.8809963401     4.2179072224     8.0720535491
NI      6.1237903022     6.4227863602     8.0447740270
NI      4.9339810555    -0.0238001462     8.0327657341
NI      6.1524631366     2.0396857244     7.8981858434
NI      7.3329088949     4.3084999109     7.8073771304
NI      8.6062586225     6.4303379468     8.0349359501
NI      7.3853095621    -0.0106090024     8.0727418213
NI      8.6246984966     2.1308395743     8.0376785604
NI      9.8566450449     4.2475927376     8.0500411775
NI     11.0800885135     6.4055574680     8.0438476354
C       5.6756862572     3.9084202355    10.3742900834
C       4.3179170222     3.3934505168    10.3575479730
C       8.1862727642     3.8329958607     9.3216960429
O       5.7191577129     5.2768286578    10.5262640234
O       4.2801174218     1.9732205446    10.2860311695
O       8.8310152745     4.8694349948    10.0896082820
H       6.6251206632     5.6971100238    10.4117803891
H       5.1804703955     1.5642570047    10.1256815923
H       3.5225322934     3.7943001595     9.4291788712
H       3.8550651177     3.7866544382    11.2995176912
H       7.9664623669     2.8000272034     9.8008354722
H       6.1838382435     3.4811037048    11.2302254335
H       6.1188423603     2.6794359471     9.2941786287
H       9.0069656957     4.7620408424    11.0401860935
78
Step 7 | ATOMIC_POSITIONS (angstrom) | Cartesian Angstrom
NI      0.0097201610     0.0011586850     1.9994538050
NI      1.2383701610     2.1292429100     1.9994538050
NI      2.4670201610     4.2573271340     1.9994538050
NI      3.6956701610     6.3854113590     1.9994538050
NI      2.4670201610     0.0011586850     1.9994538050
NI      3.6956701610     2.1292429100     1.9994538050
NI      4.9243201610     4.2573271340     1.9994538050
NI      6.1529701610     6.3854113590     1.9994538050
NI      4.9243201610     0.0011586850     1.9994538050
NI      6.1529701610     2.1292429100     1.9994538050
NI      7.3816201610     4.2573271340     1.9994538050
NI      8.6102701610     6.3854113590     1.9994538050
NI      7.3816201610     0.0011586850     1.9994538050
NI      8.6102701610     2.1292429100     1.9994538050
NI      9.8389201610     4.2573271340     1.9994538050
NI     11.0675701610     6.3854113590     1.9994538050
NI      1.2400809464     0.7111364964     4.0260424751
NI      2.4617446772     2.8371032515     4.0184332621
NI      3.6937671233     4.9674701970     4.0178922405
NI      4.9243946542     7.0949141187     4.0243117227
NI      3.6866762559     0.7064966959     4.0059722434
NI      4.8955440383     2.8238994908     3.9665407814
NI      6.1450187759     4.9758177807     3.9773829582
NI      7.3793058658     7.1274590984     3.9732759068
NI      6.1500769361     0.7082214587     4.0120950753
NI      7.3814034447     2.8312542806     3.9833101597
NI      8.6182815173     4.9724338482     3.9854388459
NI      9.8383869070     7.0972869766     4.0179199368
NI      8.6168675167     0.7079211742     4.0065640782
NI      9.8579351846     2.8281865686     3.9942689250
NI     11.0690313528     4.9662179096     4.0173628478
NI     12.2965668918     7.0977112016     4.0172240931
NI      2.4647885893     1.4173605031     6.0266749145
NI      3.6819715252     3.5321642190     6.0212725054
NI      4.9262920392     5.6571749786     6.0409202241
NI      6.1463296880     7.8097541416     6.0303634618
NI      4.9023562667     1.4073587933     5.9769763933
NI      6.1086124499     3.5295249500     5.9109769846
NI      7.3743193489     5.7305854314     5.9141473272
NI      8.6120566360     7.8093609705     6.0249777496
NI      7.3990627336     1.4067190054     5.9846043897
NI      8.6269843564     3.5338168157     5.9308010189
NI      9.8403912465     5.6749549341     6.0222542558
NI     11.0714243687     7.8055222522     6.0240475204
NI      9.8415266226     1.4106005301     6.0214391886
NI     11.0713556191     3.5451400628     6.0310050386
NI     12.2996128946     5.6738602686     6.0200265807
NI     13.5263200687     7.8029373874     6.0266464782
NI      0.0036761023     0.0129405690     8.0690152422
NI      1.2352375184     2.1071723907     8.0489272276
NI      2.4233361814     4.2742214144     8.0418759282
NI      3.6792364343     6.4073984727     8.0449643336
NI      2.4453666508    -0.0139570648     8.0552770063
NI      3.6576500204     2.0431650855     8.0399265531
NI      4.9040134278     4.2151678520     8.0850069992
NI      6.1224229134     6.4212483755     8.0371905915
NI      4.9329193165    -0.0275796627     8.0322917460
NI      6.1470218257     2.0470591907     7.8912553281
NI      7.3329229369     4.3007657399     7.8563788893
NI      8.5973605979     6.4257094243     8.0349376970
NI      7.3884184839    -0.0092680404     8.0752072670
NI      8.6227486463     2.1498714922     8.0454292234
NI      9.8305010389     4.2410721150     8.0541364015
NI     11.0771674317     6.4047565917     8.0458162582
C       5.6422252664     3.8967794230    10.3966335511
C       4.2684438862     3.4106257704    10.3877549232
C       8.3025276562     3.7999550329     9.3390637886
O       5.7308350624     5.2807310082    10.5454012051
O       4.2592204026     1.9992903912    10.3086311409