78
Step 1 | ATOMIC_POSITIONS (angstrom) | Cartesian Angstrom
NI      0.0000000000     0.0000000000     1.9999949100
NI      1.2286500000     2.1280842250     1.9999949100
NI      2.4573000000     4.2561684490     1.9999949100
NI      3.6859500000     6.3842526740     1.9999949100
NI      2.4573000000     0.0000000000     1.9999949100
NI      3.6859500000     2.1280842250     1.9999949100
NI      4.9146000000     4.2561684490     1.9999949100
NI      6.1432500000     6.3842526740     1.9999949100
NI      4.9146000000     0.0000000000     1.9999949100
NI      6.1432500000     2.1280842250     1.9999949100
NI      7.3719000000     4.2561684490     1.9999949100
NI      8.6005500000     6.3842526740     1.9999949100
NI      7.3719000000     0.0000000000     1.9999949100
NI      8.6005500000     2.1280842250     1.9999949100
NI      9.8292000000     4.2561684490     1.9999949100
NI     11.0578500000     6.3842526740     1.9999949100
NI      1.2285474771     0.7095131288     4.0082222373
NI      2.4572891353     2.8375334226     4.0085933459
NI      3.6859579751     4.9654724907     4.0081606407
NI      4.9146372324     7.0936016227     4.0082731104
NI      3.6860738659     0.7094381571     4.0083615961
NI      4.9145507725     2.8373964616     4.0077932611
NI      6.1433720929     4.9654972550     4.0085011555
NI      7.3720232382     7.0938254784     4.0075731268
NI      6.1431655663     0.7094139495     4.0081393782
NI      7.3717983457     2.8377236410     4.0088564320
NI      8.6005236754     4.9654995961     4.0084064158
NI      9.8291082281     7.0936382395     4.0082517798
NI      8.6006068367     0.7093392550     4.0083235055
NI      9.8296224085     2.8373662716     4.0077485647
NI     11.0577910594     4.9654389545     4.0082748623
NI     12.2865345688     7.0936314984     4.0087190776
NI      2.4571344144     1.4187396942     6.0121430932
NI      3.6869223153     3.5472664595     6.0127861386
NI      4.9148598216     5.6747257934     6.0109085164
NI      6.1432912761     7.8025735877     6.0121096613
NI      4.9148737405     1.4191626097     6.0124755554
NI      6.1427840822     3.5463303239     6.0086269817
NI      7.3721239677     5.6743515430     6.0114354566
NI      8.6003572250     7.8026208659     6.0119627810
NI      7.3720928034     1.4189133007     6.0108258542
NI      8.6007664751     3.5469380626     6.0094746316
NI      9.8287021862     5.6748209901     6.0112392797
NI     11.0579610446     7.8029337863     6.0115450234
NI      9.8288789510     1.4190976693     6.0119811381
NI     11.0574655593     3.5466416326     6.0116264359
NI     12.2865893899     5.6748617857     6.0115542028
NI     13.5151597210     7.8029516410     6.0115171807
NI     -0.0001956947    -0.0001413457     8.0255260475
NI      1.2283401589     2.1285951253     8.0261504893
NI      2.4561333008     4.2560082495     8.0246661238
NI      3.6852486184     6.3853667054     8.0241677103
NI      2.4572142906    -0.0003031552     8.0258070364
NI      3.6855161152     2.1272223893     8.0242592098
NI      4.9091529323     4.2566463887     8.0230754401
NI      6.1437955035     6.3901120185     8.0195276139
NI      4.9149411504     0.0003503828     8.0249682532
NI      6.1418944680     2.1225024124     8.0178403726
NI      7.3683249962     4.2533712138     8.0371928340
NI      8.6012112308     6.3863779924     8.0236847541
NI      7.3718646511     0.0002154686     8.0253872042
NI      8.6030408747     2.1243678502     8.0220501829
NI      9.8345241693     4.2562930533     8.0183365593
NI     11.0578915476     6.3841968431     8.0254784366
C       6.1555673965     3.3860293397    11.0581599082
C       5.4609852568     2.0630934309    11.2726060913
C       7.2583496326     4.0981535008     9.9791508397
O       5.3883847133     4.4832863020    10.2309820539
O       5.5937795310     1.7247820787    12.6765217291
O       8.5264782196     4.3402982482    10.6610208919
H       5.7298389375     5.2846216294    10.8152550823
H       6.1467566403     2.3847754582    13.1257107268
H       5.8541938590     1.2405987171    10.7171265860
H       4.4074771801     2.0759886488    11.0542927967
H       7.0257770539     4.8850789609    10.5504602204
H       6.2977619009     3.5834224899    12.0656705709
H       7.6267046857     2.8613793489    10.1469852027
H       9.2180582415     3.9667178162    10.0787393813
78
Step 2 | ATOMIC_POSITIONS (angstrom) | Cartesian Angstrom
NI      0.0000000000     0.0000000000     1.9999949100
NI      1.2286500000     2.1280842250     1.9999949100
NI      2.4573000000     4.2561684490     1.9999949100
NI      3.6859500000     6.3842526740     1.9999949100
NI      2.4573000000     0.0000000000     1.9999949100
NI      3.6859500000     2.1280842250     1.9999949100
NI      4.9146000000     4.2561684490     1.9999949100
NI      6.1432500000     6.3842526740     1.9999949100
NI      4.9146000000     0.0000000000     1.9999949100
NI      6.1432500000     2.1280842250     1.9999949100
NI      7.3719000000     4.2561684490     1.9999949100
NI      8.6005500000     6.3842526740     1.9999949100
NI      7.3719000000     0.0000000000     1.9999949100
NI      8.6005500000     2.1280842250     1.9999949100
NI      9.8292000000     4.2561684490     1.9999949100
NI     11.0578500000     6.3842526740     1.9999949100
NI      1.2286064967     0.7096982134     4.0098651250
NI      2.4573221877     2.8376168707     4.0110586642
NI      3.6859624046     4.9653740980     4.0099850418
NI      4.9147639289     7.0935830959     4.0101397838
NI      3.6861854467     0.7095687200     4.0104862030
NI      4.9142232303     2.8371445644     4.0086083315
NI      6.1436254872     4.9655774602     4.0105362053
NI      7.3722200647     7.0941559751     4.0083122686
NI      6.1429521279     0.7094485798     4.0097796150
NI      7.3716828110     2.8381443589     4.0117474971
NI      8.6003926542     4.9656451698     4.0102561416
NI      9.8289335685     7.0936907912     4.0101913183
NI      8.6007133382     0.7093054745     4.0105802595
NI      9.8303698171     2.8371300845     4.0088930488
NI     11.0577410306     4.9653700099     4.0101362635
NI     12.2865602872     7.0936473482     4.0111135358
NI      2.4567702400     1.4187558919     6.0116714927
NI      3.6883015017     3.5479565671     6.0135165249
NI      4.9152729264     5.6744452536     6.0087511224
NI      6.1432379821     7.8020987793     6.0119759695
NI      4.9151174458     1.4198331758     6.0122482865
NI      6.1422725688     3.5461645098     6.0043575936
NI      7.3724478498     5.6732104444     6.0102544913
NI      8.6000953336     7.8021857166     6.0115743197
NI      7.3724768931     1.4192127799     6.0078775476
NI      8.6005598081     3.5474410701     6.0060278916
NI      9.8279103432     5.6748702352     6.0094884031
NI     11.0581425118     7.8028935092     6.0106306380
NI      9.8287195540     1.4196146368     6.0108876051
NI     11.0571228915     3.5462469221     6.0106413623
NI     12.2867493146     5.6747291642     6.0105790421
NI     13.5151900012     7.8029587917     6.0104832904
NI     -0.0004048988    -0.0001383812     8.0328818204
NI      1.2282344674     2.1289520691     8.0341265403
NI      2.4539106864     4.2556816100     8.0304211382
NI      3.6835565091     6.3877461557     8.0289006778
NI      2.4572622776    -0.0002408438     8.0335158806
NI      3.6843622463     2.1253948589     8.0294001535
NI      4.9051458658     4.2576811418     8.0341375079
NI      6.1444517343     6.3971723670     8.0196267807
NI      4.9151596180     0.0003644028     8.0315068893
NI      6.1417091832     2.1150930142     8.0167665395
NI      7.3646670514     4.2488500989     8.0616648551
NI      8.6025496360     6.3891861785     8.0287545638
NI      7.3718654005     0.0003305118     8.0328753932
NI      8.6030100656     2.1214540576     8.0340811516
NI      9.8410783429     4.2569206224     8.0152368785
NI     11.0580493069     6.3843215196     8.0327629360
C       6.1068811813     3.3965140127    11.0047534775
C       5.4592810439     2.0514148314    11.2729151346
C       7.3716378044     4.0641492946     9.9794699766
O       5.2136887769     4.4795187290    10.3085666380
O       5.5902656424     1.7182687164    12.6760538813
O       8.6329148063     4.3387059285    10.6881399717
H       5.6864555337     5.2665530241    10.7786930878
H       6.1494409487     2.3818446284    13.1325708826
H       5.8705049825     1.2238375555    10.6961635630
H       4.3919051167     2.0886036518    11.0459176730
H       7.0248301475     4.9738225764    10.5629576236
H       6.3231237960     3.6422631305    12.1019997595
H       7.6292529346     2.8015019850    10.1080102736
H       9.2434866298     3.9534350646    10.0755884885
78
Step 3 | ATOMIC_POSITIONS (angstrom) | Cartesian Angstrom
NI      0.0000000000     0.0000000000     1.9999949100
NI      1.2286500000     2.1280842250     1.9999949100
NI      2.4573000000     4.2561684490     1.9999949100
NI      3.6859500000     6.3842526740     1.9999949100
NI      2.4573000000     0.0000000000     1.9999949100
NI      3.6859500000     2.1280842250     1.9999949100
NI      4.9146000000     4.2561684490     1.9999949100
NI      6.1432500000     6.3842526740     1.9999949100
NI      4.9146000000     0.0000000000     1.9999949100
NI      6.1432500000     2.1280842250     1.9999949100
NI      7.3719000000     4.2561684490     1.9999949100
NI      8.6005500000     6.3842526740     1.9999949100
NI      7.3719000000     0.0000000000     1.9999949100
NI      8.6005500000     2.1280842250     1.9999949100
NI      9.8292000000     4.2561684490     1.9999949100
NI     11.0578500000     6.3842526740     1.9999949100
NI      1.2287436778     0.7098643559     4.0118865875
NI      2.4574238896     2.8377109465     4.0141393082
NI      3.6859006614     4.9651582444     4.0122846941
NI      4.9149603126     7.0936874562     4.0123036785
NI      3.6862996887     0.7096683242     4.0132518594
NI      4.9135297461     2.8366380055     4.0090275438
NI      6.1440720085     4.9657756962     4.0127976982
NI      7.3725219645     7.0947377630     4.0089653268
NI      6.1425657855     0.7094759056     4.0116630798
NI      7.3715266961     2.8386722555     4.0148484475
NI      8.6001373035     4.9659285629     4.0122461669
NI      9.8286844179     7.0938576767     4.0124820399
NI      8.6009270512     0.7092285645     4.0132764549
NI      9.8314034420     2.8367596697     4.0101070843
NI     11.0577129746     4.9653043572     4.0122512647
NI     12.2865654123     7.0936547137     4.0139073391
NI      2.4561837358     1.4187586745     6.0127686929
NI      3.6902281479     3.5489739968     6.0162866587
NI      4.9159817681     5.6737664678     6.0074014555
NI      6.1432884159     7.8017855389     6.0127967447
NI      4.9151010395     1.4204899611     6.0128025828
NI      6.1420491068     3.5467009587     6.0024751942
NI      7.3728159316     5.6711426505     6.0107917648
NI      8.5996248863     7.8017077981     6.0126541660
NI      7.3734610057     1.4196237170     6.0051637301
NI      8.5997175244     3.5480644633     6.0037434287
NI      9.8268707167     5.6752915922     6.0082653272
NI     11.0583647250     7.8028745405     6.0112223668
NI      9.8284037034     1.4204264373     6.0113044672
NI     11.0571182598     3.5454065258     6.0103930053
NI     12.2869393020     5.6744653426     6.0110051950
NI     13.5153209898     7.8031041958     6.0109252688
NI     -0.0007367901     0.0002564385     8.0430653265
NI      1.2282792050     2.1290477942     8.0451720704
NI      2.4505843462     4.2552822383     8.0382506091
NI      3.6809256945     6.3914729868     8.0348804848
NI      2.4574516238     0.0005227596     8.0444290069
NI      3.6825716398     2.1225255867     8.0364118198
NI      4.9027213976     4.2597066841     8.0569050461
NI      6.1453730514     6.4046802120     8.0219242740
NI      4.9153411218    -0.0001047081     8.0407802758
NI      6.1407451880     2.1053477185     8.0149579065
NI      7.3629914697     4.2442694654     8.0930653209
NI      8.6043209566     6.3923644127     8.0360882936
NI      7.3718414050    -0.0000363404     8.0433347225
NI      8.6011850948     2.1188469569     8.0550502152
NI      9.8492489269     4.2584136501     8.0091490021
NI     11.0583507187     6.3848486235     8.0428109558
C       6.0478296057     3.4597827658    11.0011291246
C       5.4542306057     2.0369746749    11.2705751513
C       7.4763993845     4.0551256860    10.0629158815
O       5.0752062410     4.4445010135    10.4331384558
O       5.5909727795     1.7157755036    12.6724201411
O       8.7045111423     4.3445746579    10.7323717776
H       5.6169348204     5.2388159631    10.7211233271
H       6.1461649363     2.3704004030    13.1330123586
H       5.8885635768     1.2080412122    10.6723428470
H       4.3776622578     2.1008987277    11.0355332986
H       7.0331660654     5.0229895515    10.5225489401
H       6.3437168154     3.7059175354    12.0761550030
H       7.6228125729     2.7604461243    10.0400532449
H       9.3176697500     3.9168796012    10.0512200392
78
Step 4 | ATOMIC_POSITIONS (angstrom) | Cartesian Angstrom
NI      0.0000000000     0.0000000000     1.9999949100
NI      1.2286500000     2.1280842250     1.9999949100
NI      2.4573000000     4.2561684490     1.9999949100
NI      3.6859500000     6.3842526740     1.9999949100
NI      2.4573000000     0.0000000000     1.9999949100
NI      3.6859500000     2.1280842250     1.9999949100
NI      4.9146000000     4.2561684490     1.9999949100
NI      6.1432500000     6.3842526740     1.9999949100
NI      4.9146000000     0.0000000000     1.9999949100
NI      6.1432500000     2.1280842250     1.9999949100
NI      7.3719000000     4.2561684490     1.9999949100
NI      8.6005500000     6.3842526740     1.9999949100
NI      7.3719000000     0.0000000000     1.9999949100
NI      8.6005500000     2.1280842250     1.9999949100
NI      9.8292000000     4.2561684490     1.9999949100
NI     11.0578500000     6.3842526740     1.9999949100
NI      1.2289919771     0.7100591393     4.0138685747
NI      2.4577236469     2.8377719551     4.0170956834
NI      3.6857870725     4.9648274656     4.0144781083
NI      4.9151543825     7.0938855695     4.0143125653
NI      3.6863245580     0.7096566291     4.0159826947
NI      4.9127258376     2.8361717483     4.0092271183
NI      6.1445701090     4.9660689565     4.0144430089
NI      7.3728500536     7.0952145641     4.0098848653
NI      6.1421229197     0.7094490644     4.0133214718
NI      7.3713390161     2.8391130122     4.0168402622
NI      8.5999627347     4.9662685407     4.0135814723
NI      9.8284650078     7.0942216849     4.0143760038
NI      8.6012477506     0.7091557457     4.0154448219
NI      9.8322421762     2.8364756440     4.0112174775
NI     11.0576857840     4.9652803508     4.0140457859
NI     12.2865260475     7.0936455365     4.0164050120
NI      2.4554702457     1.4186776057     6.0163116871
NI      3.6920697918     3.5499459950     6.0215196934
NI      4.9168425534     5.6724671500     6.0093317442
NI      6.1435553266     7.8021733966     6.0148205340
NI      4.9145356025     1.4206872214     6.0144336940
NI      6.1421059406     3.5480620930     6.0065964217
NI      7.3730012629     5.6686366124     6.0146310701
NI      8.5989781776     7.8014449325     6.0160162305
NI      7.3751485653     1.4200640435     6.0048817934
NI      8.5981329959     3.5482742644     6.0054675233
NI      9.8259436971     5.6764243521     6.0084844673
NI     11.0585530304     7.8029679247     6.0143617416
NI      9.8278771006     1.4213858021     6.0149760809
NI     11.0579526736     3.5440213332     6.0112015495
NI     12.2870154894     5.6741408648     6.0137240932
NI     13.5155863413     7.8034613693     6.0137386510
NI     -0.0012375146     0.0011387826     8.0539883740
NI      1.2280345711     2.1289656312     8.0572182722
NI      2.4477059757     4.2551386417     8.0468341728
NI      3.6787111764     6.3950187661     8.0413475718
NI      2.4577337484     0.0019925888     8.0562728569
NI      3.6808083608     2.1198128209     8.0441197074
NI      4.9005567163     4.2614209576     8.0830948263
NI      6.1460465209     6.4090372828     8.0272498785
NI      4.9152441352    -0.0014452047     8.0508005543
NI      6.1391629521     2.0969676917     8.0138791331
NI      7.3674915193     4.2412705442     8.1343506695
NI      8.6057783158     6.3943568892     8.0441366428
NI      7.3718387546    -0.0009478735     8.0544568983
NI      8.5978282654     2.1177082546     8.0806121802
NI      9.8554250197     4.2597068993     8.0037610114
NI     11.0586829100     6.3857814969     8.0534235312
C       5.9896305168     3.4990196173    11.0343222811
C       5.4530319112     2.0457240193    11.2626222905
C       7.5314343815     4.0478322823    10.1599419935
O       4.9984442481     4.3847581966    10.5592415112
O       5.5871164676     1.7061385247    12.6593850353
O       8.8034132486     4.3140758116    10.7338897635
H       5.5357448748     5.2276743815    10.6614225553
H       6.1447367943     2.3618852661    13.1308615749
H       5.9027906392     1.2065791925    10.6544710929
H       4.3707937550     2.1061030496    11.0266095537
H       7.0412688265     5.0587108805    10.4568039604
H       6.3547940078     3.7718571976    12.0357488723
H       7.6111214907     2.7494987923     9.9535268995
H       9.3715235282     3.9018086851    10.0709708716
78
Step 5 | ATOMIC_POSITIONS (angstrom) | Cartesian Angstrom
NI      0.0000000000     0.0000000000     1.9999949100
NI      1.2286500000     2.1280842250     1.9999949100
NI      2.4573000000     4.2561684490     1.9999949100
NI      3.6859500000     6.3842526740     1.9999949100
NI      2.4573000000     0.0000000000     1.9999949100
NI      3.6859500000     2.1280842250     1.9999949100
NI      4.9146000000     4.2561684490     1.9999949100
NI      6.1432500000     6.3842526740     1.9999949100
NI      4.9146000000     0.0000000000     1.9999949100
NI      6.1432500000     2.1280842250     1.9999949100
NI      7.3719000000     4.2561684490     1.9999949100
NI      8.6005500000     6.3842526740     1.9999949100
NI      7.3719000000     0.0000000000     1.9999949100
NI      8.6005500000     2.1280842250     1.9999949100
NI      9.8292000000     4.2561684490     1.9999949100
NI     11.0578500000     6.3842526740     1.9999949100
NI      1.2292398894     0.7103235735     4.0154334016
NI      2.4582606061     2.8377547271     4.0192544443
NI      3.6857150525     4.9645107598     4.0161634454
NI      4.9152600656     7.0940147279     4.0159078786
NI      3.6861558739     0.7095480645     4.0179285594
NI      4.9122923148     2.8361233857     4.0098827543
NI      6.1448890108     4.9662778211     4.0153425585
NI      7.3730707296     7.0952438799     4.0113228544
NI      6.1418838635     0.7093767111     4.0145314942
NI      7.3711134114     2.8393718291     4.0175186086
NI      8.5999441609     4.9664548829     4.0141097379
NI      9.8283779113     7.0947159712     4.0155407023
NI      8.6016309889     0.7091453515     4.0165732157
NI      9.8323847647     2.8364024356     4.0122428648
NI     11.0576955807     4.9653206478     4.0151277296
NI     12.2864744994     7.0936280011     4.0181575902
NI      2.4549214559     1.4185099789     6.0214152088
NI      3.6932588365     3.5504498500     6.0279307970
NI      4.9175540048     5.6710150810     6.0146480756
NI      6.1439558631     7.8031211699     6.0178161022
NI      4.9135755252     1.4203341732     6.0167700411
NI      6.1425093971     3.5497547388     6.0160181107
NI      7.3729422947     5.6663597170     6.0215914920
NI      8.5983162303     7.8015143675     6.0209170148
NI      7.3769378083     1.4203965907     6.0076183543
NI      8.5962508268     3.5479103247     6.0115782484
NI      9.8254946063     5.6778695925     6.0102494393
NI     11.0586555285     7.8032512448     6.0193408791
NI      9.8272363637     1.4222324516     6.0215553852
NI     11.0592688671     3.5426274671     6.0131610513
NI     12.2869004400     5.6738920159     6.0181504090
NI     13.5159450404     7.8039377041     6.0182215683
NI     -0.0018058497     0.0022566993     8.0627039044
NI      1.2272932028     2.1287857370     8.0667655203
NI      2.4468466371     4.2553933548     8.0540604403
NI      3.6781051263     6.3967051987     8.0472394292
NI      2.4579222971     0.0034637580     8.0657054076
NI      3.6797341477     2.1185232014     8.0506588788
NI      4.8987400293     4.2617103108     8.1009394912
NI      6.1458795016     6.4084142740     8.0346636624
NI      4.9148617640    -0.0033162271     8.0587474754
NI      6.1378143283     2.0932059709     8.0149054219
NI      7.3755592448     4.2398447723     8.1727330387
NI      8.6065119345     6.3945275127     8.0505144357
NI      7.3718513985    -0.0019398857     8.0631240636
NI      8.5941744130     2.1175415464     8.1016112476
NI      9.8577796756     4.2608192900     7.9985880131
NI     11.0589080078     6.3867326921     8.0616272566
C       5.9675085913     3.4866618916    11.0843167781
C       5.4552440704     2.0624640150    11.2570688190
C       7.5421086488     4.0392679448    10.2240192359
O       4.9873975452     4.3534543328    10.6388825918
O       5.5879275451     1.7008550001    12.6499945881
O       8.8338201924     4.2924292390    10.7567743847
H       5.4570525043     5.2229136218    10.6135390775
H       6.1377090345     2.3491507770    13.1210848450
H       5.9087182936     1.2255054497    10.6467454008
H       4.3722317576     2.1032024669    11.0197682142
H       7.0537978564     5.0714452919    10.3887328272
H       6.3592439461     3.8228498646    12.0221195454
H       7.5963657036     2.7792402028     9.8741578607
H       9.4352810672     3.8745417628    10.0728655257
78
Step 6 | ATOMIC_POSITIONS (angstrom) | Cartesian Angstrom
NI      0.0000000000     0.0000000000     1.9999949100
NI      1.2286500000     2.1280842250     1.9999949100
NI      2.4573000000     4.2561684490     1.9999949100
NI      3.6859500000     6.3842526740     1.9999949100
NI      2.4573000000     0.0000000000     1.9999949100
NI      3.6859500000     2.1280842250     1.9999949100
NI      4.9146000000     4.2561684490     1.9999949100
NI      6.1432500000     6.3842526740     1.9999949100
NI      4.9146000000     0.0000000000     1.9999949100
NI      6.1432500000     2.1280842250     1.9999949100
NI      7.3719000000     4.2561684490     1.9999949100
NI      8.6005500000     6.3842526740     1.9999949100
NI      7.3719000000     0.0000000000     1.9999949100
NI      8.6005500000     2.1280842250     1.9999949100
NI      9.8292000000     4.2561684490     1.9999949100
NI     11.0578500000     6.3842526740     1.9999949100
NI      1.2294687728     0.7108864662     4.0179004291
NI      2.4593031399     2.8376156977     4.0220349659
NI      3.6857355261     4.9641618245     4.0188229624
NI      4.9153145501     7.0939782405     4.0185546741
NI      3.6856604957     0.7093029451     4.0203565988
NI      4.9123650345     2.8366771834     4.0123849266
NI      6.1451380305     4.9663713269     4.0170835282
NI      7.3732785349     7.0946650176     4.0146257087
NI      6.1418453933     0.7092581516     4.0164853426
NI      7.3706036815     2.8397070575     4.0184955222
NI      8.5999731082     4.9664280539     4.0151038298
NI      9.8283661418     7.0956241124     4.0170913372
NI      8.6022894008     0.7092218379     4.0179438456
NI      9.8317693696     2.8365237597     4.0145423846
NI     11.0577638073     4.9654303392     4.0165896352
NI     12.2864323895     7.0936172682     4.0207429551
NI      2.4542948307     1.4182413110     6.0301932005
NI      3.6944655133     3.5507017896     6.0383138364
NI      4.9183981996     5.6691251931     6.0252004972
NI      6.1445722504     7.8045983026     6.0235821345
NI      4.9120464824     1.4194678403     6.0209311635
NI      6.1435115312     3.5522622291     6.0337606236
NI      7.3727045579     5.6631101999     6.0351255070
NI      8.5973117512     7.8018673778     6.0292615670
NI      7.3793395641     1.4208249641     6.0144531988
NI      8.5931868145     3.5470312695     6.0244347979
NI      9.8252694563     5.6801596987     6.0137894987
NI     11.0587628060     7.8039339842     6.0280233688
NI      9.8261297878     1.4233457600     6.0337718086
NI     11.0615459317     3.5407346875     6.0168633853
NI     12.2865744088     5.6736433492     6.0260365548
NI     13.5166126139     7.8046451117     6.0260823004
NI     -0.0026774626     0.0038229935     8.0740312132
NI      1.2254299161     2.1289101332     8.0793124955
NI      2.4474418226     4.2560183005     8.0640901582
NI      3.6788268960     6.3972582633     8.0563376967
NI      2.4578673902     0.0049890952     8.0777698781
NI      3.6788804939     2.1180123274     8.0597236571
NI      4.8969254308     4.2608044419     8.1192203336
NI      6.1447197738     6.4036826269     8.0473454925
NI      4.9140786789    -0.0061966622     8.0688678958
NI      6.1360092094     2.0916689103     8.0186768670
NI      7.3878566778     4.2381197183     8.2215915660
NI      8.6071849624     6.3934973919     8.0586456566
NI      7.3718758553    -0.0032742646     8.0739596391
NI      8.5902589820     2.1170102420     8.1251644871
NI      9.8577702794     4.2617361074     7.9945940729
NI     11.0590663238     6.3878725230     8.0719669679
C       5.9818599153     3.4707565263    11.1535351539
C       5.4562614796     2.0716206667    11.2642810058
C       7.5345798847     4.0266061423    10.2947381664
O       4.9842153067     4.3200999320    10.7017284012
O       5.5825315137     1.6811663238    12.6345641520
O       8.8519964622     4.2429482143    10.7716153107
H       5.3584870973     5.2281458420    10.5589579110
H       6.1317907494     2.3372111834    13.1087636032
H       5.9135947861     1.2699112196    10.6400683176
H       4.3810538844     2.0948158832    11.0101561564
H       7.0760763825     5.0614542505    10.2833243139
H       6.3696567668     3.8805463345    12.0437068071
H       7.5721270365     2.8578299037     9.7623020747
H       9.4975925679     3.8482463585    10.0990502429
78
Step 7 | ATOMIC_POSITIONS (angstrom) | Cartesian Angstrom
NI      0.0000000000     0.0000000000     1.9999949100
NI      1.2286500000     2.1280842250     1.9999949100
NI      2.4573000000     4.2561684490     1.9999949100
NI      3.6859500000     6.3842526740     1.9999949100
NI      2.4573000000     0.0000000000     1.9999949100
NI      3.6859500000     2.1280842250     1.9999949100
NI      4.9146000000     4.2561684490     1.9999949100
NI      6.1432500000     6.3842526740     1.9999949100
NI      4.9146000000     0.0000000000     1.9999949100
NI      6.1432500000     2.1280842250     1.9999949100
NI      7.3719000000     4.2561684490     1.9999949100
NI      8.6005500000     6.3842526740     1.9999949100
NI      7.3719000000     0.0000000000     1.9999949100
NI      8.6005500000     2.1280842250     1.9999949100
NI      9.8292000000     4.2561684490     1.9999949100
NI     11.0578500000     6.3842526740     1.9999949100
NI      1.2294739537     0.7119033690     4.0223433859
NI      2.4610362726     2.8372950677     4.0259927740
NI      3.6859792413     4.9638762299     4.0235231180
NI      4.9153236909     7.0935622351     4.0233199605
NI      3.6847053228     0.7089374143     4.0237596027
NI      4.9134441200     2.8382167369     4.0184622184
NI      6.1452832414     4.9662019833     4.0212573682
NI      7.3733735785     7.0930459044     4.0212274818
NI      6.1422380224     0.7091907472     4.0200683858
NI      7.3696420193     2.8402354747     4.0211875203
NI      8.5998674456     4.9659345815     4.0179200260
NI      9.8284437509     7.0971014758     4.0197826827
NI      8.6032966206     0.7094880166     4.0204618776
NI      9.8299555191     2.8369256247     4.0195120124
NI     11.0579740234     4.9656030020     4.0190769636
NI     12.2864685105     7.0936381707     4.0251548698
NI      2.4536590800     1.4179031317     6.0436285909
NI      3.6956155364     3.5505102849     6.0534668463
NI      4.9192957818     5.6670644233     6.0423332831
NI      6.1453253597     7.8062370053     6.0335894027
NI      4.9101408726     1.4180861251     6.0278477944
NI      6.1454016575     3.5555459330     6.0614367297
NI      7.3722796984     5.6585862983     6.0577289568
NI      8.5958628655     7.8025127624     6.0417713705
NI      7.3819732156     1.4212936102     6.0267981260
NI      8.5886986021     3.5456681574     6.0459230274
NI      9.8253927545     5.6831682738     6.0195386660
NI     11.0589109436     7.8052157993     6.0412102006
NI      9.8244838687     1.4246869217     6.0531058823
NI     11.0647263517     3.5385607343     6.0230696786
NI     12.2860488325     5.6734750061     6.0383732785
NI     13.5177094682     7.8054930835     6.0382133263
NI     -0.0037682317     0.0053778647     8.0891162878
NI      1.2221594061     2.1298362851     8.0959912650
NI      2.4495748086     4.2570103617     8.0779760833
NI      3.6812735867     6.3962143552     8.0702949285
NI      2.4571796519     0.0058778521     8.0933734925
NI      3.6782620831     2.1183792833     8.0724644173
NI      4.8956179879     4.2579244309     8.1385451597
NI      6.1422055445     6.3944792449     8.0666223821
NI      4.9127990723    -0.0098692226     8.0818239203
NI      6.1333839119     2.0927820887     8.0265837886
NI      7.4024964407     4.2351705992     8.2775854493
NI      8.6080454922     6.3913457000     8.0690645967
NI      7.3718377913    -0.0050425161     8.0874978307
NI      8.5885620112     2.1139923737     8.1462662506
NI      9.8554704292     4.2624001458     7.9936066253
NI     11.0590851682     6.3887941916     8.0852753051
C       6.0409539934     3.4793071802    11.2269836442
C       5.4616939148     2.0783582797    11.2872590310
C       7.5013711513     3.9921478240    10.3679357457
O       5.0044735473     4.2932393127    10.7404003727
O       5.5823431448     1.6500293050    12.6368122274