78
Step 1 | ATOMIC_POSITIONS (angstrom) | Cartesian Angstrom
NI      0.0097201610     0.0011586850     1.9994538050
NI      1.2383701610     2.1292429100     1.9994538050
NI      2.4670201610     4.2573271340     1.9994538050
NI      3.6956701610     6.3854113590     1.9994538050
NI      2.4670201610     0.0011586850     1.9994538050
NI      3.6956701610     2.1292429100     1.9994538050
NI      4.9243201610     4.2573271340     1.9994538050
NI      6.1529701610     6.3854113590     1.9994538050
NI      4.9243201610     0.0011586850     1.9994538050
NI      6.1529701610     2.1292429100     1.9994538050
NI      7.3816201610     4.2573271340     1.9994538050
NI      8.6102701610     6.3854113590     1.9994538050
NI      7.3816201610     0.0011586850     1.9994538050
NI      8.6102701610     2.1292429100     1.9994538050
NI      9.8389201610     4.2573271340     1.9994538050
NI     11.0675701610     6.3854113590     1.9994538050
NI      1.2383435779     0.7109127280     4.0079809595
NI      2.4669560919     2.8387862819     4.0078826033
NI      3.6956700350     4.9663220970     4.0080118432
NI      4.9245709358     7.0947704633     4.0075167789
NI      3.6955106608     0.7105166632     4.0072232224
NI      4.9242182857     2.8385993680     4.0067761747
NI      6.1531937389     4.9669179421     4.0079172570
NI      7.3813974484     7.0953616644     4.0060505127
NI      6.1527184345     0.7109394902     4.0076321305
NI      7.3813748414     2.8388613413     4.0085242405
NI      8.6097977557     4.9665344159     4.0085783055
NI      9.8388577934     7.0946401538     4.0077052030
NI      8.6105312778     0.7106592026     4.0074192452
NI      9.8398024052     2.8381486786     4.0064029982
NI     11.0674971100     4.9667280759     4.0074551712
NI     12.2961382452     7.0949402537     4.0077487696
NI      2.4677386657     1.4205892477     6.0119090797
NI      3.6954706137     3.5467456932     6.0087255850
NI      4.9242453920     5.6752138877     6.0109659540
NI      6.1529359198     7.8024408117     6.0128482035
NI      4.9243981068     1.4197169133     6.0105703093
NI      6.1519382655     3.5473554673     6.0075187614
NI      7.3820121774     5.6759820021     6.0096026645
NI      8.6104803349     7.8034625820     6.0127561044
NI      7.3815623158     1.4200780918     6.0109266595
NI      8.6104687679     3.5476433917     6.0066502672
NI      9.8388843986     5.6755701051     6.0105581696
NI     11.0674858321     7.8043606735     6.0109363200
NI      9.8390128288     1.4205118731     6.0113993629
NI     11.0668971132     3.5484104914     6.0138151673
NI     12.2965896705     5.6759237190     6.0115070470
NI     13.5247766739     7.8041576639     6.0120477142
NI      0.0096057623     0.0019660411     8.0234604507
NI      1.2367309248     2.1282589378     8.0222688246
NI      2.4636305177     4.2593193357     8.0231718023
NI      3.6924100991     6.3890293810     8.0207351407
NI      2.4664438037     0.0006271587     8.0225145349
NI      3.6923176076     2.1249768725     8.0207849328
NI      4.9098061319     4.2522170987     8.0160001582
NI      6.1519365744     6.3928210281     8.0185716682
NI      4.9256811152    -0.0011659809     8.0214319904
NI      6.1537110635     2.1148279218     8.0069134847
NI      7.3768317306     4.2782613930     7.9031218949
NI      8.6121491639     6.3940935405     8.0201191885
NI      7.3810795102     0.0016253020     8.0252981541
NI      8.6145389683     2.1179428696     8.0166380284
NI      9.8486081328     4.2559665820     8.0219909644
NI     11.0688060733     6.3866079396     8.0232047175
C       5.7883566748     3.8333999398    10.2566782184
C       4.4254334176     3.3492782569    10.0050224694
C       7.4205375804     4.0934920172     9.6748869978
O       5.8766237593     5.2970090633    10.0704220665
O       4.2977415664     1.9729010922    10.3606417498
O       8.6622437094     4.5170841586     9.8311387645
H       6.8004128683     5.4891410953    10.4383997024
H       5.2071272928     1.5963125157    10.2208653067
H       3.3622388499     3.8404105059     9.8920700464
H       3.7344827289     3.5812405436    10.9021973072
H       7.8915209514     3.0339255839     9.5469527667
H       6.4183004141     3.3735015536    11.0273696106
H       6.6225803458     3.0398517306     9.3910438112
H       8.7381035531     4.6971811709    10.7416419960
78
Step 2 | ATOMIC_POSITIONS (angstrom) | Cartesian Angstrom
NI      0.0097201610     0.0011586850     1.9994538050
NI      1.2383701610     2.1292429100     1.9994538050
NI      2.4670201610     4.2573271340     1.9994538050
NI      3.6956701610     6.3854113590     1.9994538050
NI      2.4670201610     0.0011586850     1.9994538050
NI      3.6956701610     2.1292429100     1.9994538050
NI      4.9243201610     4.2573271340     1.9994538050
NI      6.1529701610     6.3854113590     1.9994538050
NI      4.9243201610     0.0011586850     1.9994538050
NI      6.1529701610     2.1292429100     1.9994538050
NI      7.3816201610     4.2573271340     1.9994538050
NI      8.6102701610     6.3854113590     1.9994538050
NI      7.3816201610     0.0011586850     1.9994538050
NI      8.6102701610     2.1292429100     1.9994538050
NI      9.8389201610     4.2573271340     1.9994538050
NI     11.0675701610     6.3854113590     1.9994538050
NI      1.2385641741     0.7113012703     4.0113685156
NI      2.4665480975     2.8389827599     4.0108769788
NI      3.6955696255     4.9657544685     4.0109954530
NI      4.9249038701     7.0949782973     4.0098340396
NI      3.6948506729     0.7099367904     4.0087246236
NI      4.9236033445     2.8380668571     4.0065703300
NI      6.1536561243     4.9673079519     4.0104016038
NI      7.3812425215     7.0967956721     4.0054690649
NI      6.1522923737     0.7116735753     4.0102515810
NI      7.3809698848     2.8391273941     4.0116216198
NI      8.6092033194     4.9663912887     4.0119551581
NI      9.8386152187     7.0945150113     4.0100482536
NI      8.6110639172     0.7107201261     4.0091809862
NI      9.8413683399     2.8373685502     4.0066257648
NI     11.0673643928     4.9667781434     4.0096024628
NI     12.2961151226     7.0953043864     4.0101256332
NI      2.4688012370     1.4215716803     6.0113175333
NI      3.6950755183     3.5448885909     6.0038664677
NI      4.9240104759     5.6735418856     6.0087530421
NI      6.1528312378     7.7998017960     6.0140228824
NI      4.9242461608     1.4191680750     6.0070309073
NI      6.1454568009     3.5437302035     5.9916428850
NI      7.3820561236     5.6822075392     5.9962227714
NI      8.6108363692     7.8026400186     6.0137999257
NI      7.3813473125     1.4196643105     6.0075005432
NI      8.6143631845     3.5443212338     5.9915503246
NI      9.8393672200     5.6751245705     6.0077885513
NI     11.0674044803     7.8048389441     6.0094638823
NI      9.8381910671     1.4215967976     6.0113670089
NI     11.0659117878     3.5491561572     6.0169970668
NI     12.2970755922     5.6758884667     6.0102963981
NI     13.5246673604     7.8041393184     6.0121874469
NI      0.0096096475     0.0032176482     8.0294714341
NI      1.2347089195     2.1257770308     8.0268287359
NI      2.4584340882     4.2624806186     8.0308077660
NI      3.6866683735     6.3952702212     8.0228208857
NI      2.4653859422     0.0004699529     8.0273472313
NI      3.6864237153     2.1175094733     8.0251862479
NI      4.8900497251     4.2440679049     8.0173370767
NI      6.1492927514     6.4006978167     8.0240647101
NI      4.9276011719    -0.0060457224     8.0246663651
NI      6.1586028220     2.1013396902     8.0000814969
NI      7.3593141076     4.2903399181     7.8142012529
NI      8.6151082172     6.4069207132     8.0217068607
NI      7.3805809652    -0.0000299503     8.0340913215
NI      8.6179817279     2.1063471139     8.0193330706
NI      9.8610288131     4.2553083995     8.0266588425
NI     11.0710036000     6.3892460983     8.0288300398
C       5.8127378137     3.8514033643    10.2916313692
C       4.3935522369     3.3497153235    10.0591593502
C       7.5534464974     4.0117299473     9.5796501921
O       5.7948685775     5.3784694936    10.1563311474
O       4.2989148615     1.9304351440    10.3470308915
O       8.7952801930     4.6514890025     9.8715234291
H       6.7693693017     5.5132060282    10.4385832212
H       5.2078185980     1.5849622246    10.2104705634
H       3.3459877362     3.8542368448     9.8107990706
H       3.7650124376     3.6162195441    10.9505683224
H       7.8769852634     2.9547423263     9.5629717297
H       6.3621402731     3.3709864822    11.0890261833
H       6.5183755162     2.9343721067     9.3508354867
H       8.7867498226     4.7217598007    10.8291209835
