78
Step 1 | ATOMIC_POSITIONS (angstrom) | Cartesian Angstrom
NI      0.0000000000     0.0000000000     1.9999949100
NI      1.2286500000     2.1280842250     1.9999949100
NI      2.4573000000     4.2561684490     1.9999949100
NI      3.6859500000     6.3842526740     1.9999949100
NI      2.4573000000     0.0000000000     1.9999949100
NI      3.6859500000     2.1280842250     1.9999949100
NI      4.9146000000     4.2561684490     1.9999949100
NI      6.1432500000     6.3842526740     1.9999949100
NI      4.9146000000     0.0000000000     1.9999949100
NI      6.1432500000     2.1280842250     1.9999949100
NI      7.3719000000     4.2561684490     1.9999949100
NI      8.6005500000     6.3842526740     1.9999949100
NI      7.3719000000     0.0000000000     1.9999949100
NI      8.6005500000     2.1280842250     1.9999949100
NI      9.8292000000     4.2561684490     1.9999949100
NI     11.0578500000     6.3842526740     1.9999949100
NI      1.2285474771     0.7095131288     4.0082222373
NI      2.4572891353     2.8375334226     4.0085933459
NI      3.6859579751     4.9654724907     4.0081606407
NI      4.9146372324     7.0936016227     4.0082731104
NI      3.6860738659     0.7094381571     4.0083615961
NI      4.9145507725     2.8373964616     4.0077932611
NI      6.1433720929     4.9654972550     4.0085011555
NI      7.3720232382     7.0938254784     4.0075731268
NI      6.1431655663     0.7094139495     4.0081393782
NI      7.3717983457     2.8377236410     4.0088564320
NI      8.6005236754     4.9654995961     4.0084064158
NI      9.8291082281     7.0936382395     4.0082517798
NI      8.6006068367     0.7093392550     4.0083235055
NI      9.8296224085     2.8373662716     4.0077485647
NI     11.0577910594     4.9654389545     4.0082748623
NI     12.2865345688     7.0936314984     4.0087190776
NI      2.4571344144     1.4187396942     6.0121430932
NI      3.6869223153     3.5472664595     6.0127861386
NI      4.9148598216     5.6747257934     6.0109085164
NI      6.1432912761     7.8025735877     6.0121096613
NI      4.9148737405     1.4191626097     6.0124755554
NI      6.1427840822     3.5463303239     6.0086269817
NI      7.3721239677     5.6743515430     6.0114354566
NI      8.6003572250     7.8026208659     6.0119627810
NI      7.3720928034     1.4189133007     6.0108258542
NI      8.6007664751     3.5469380626     6.0094746316
NI      9.8287021862     5.6748209901     6.0112392797
NI     11.0579610446     7.8029337863     6.0115450234
NI      9.8288789510     1.4190976693     6.0119811381
NI     11.0574655593     3.5466416326     6.0116264359
NI     12.2865893899     5.6748617857     6.0115542028
NI     13.5151597210     7.8029516410     6.0115171807
NI     -0.0001956947    -0.0001413457     8.0255260475
NI      1.2283401589     2.1285951253     8.0261504893
NI      2.4561333008     4.2560082495     8.0246661238
NI      3.6852486184     6.3853667054     8.0241677103
NI      2.4572142906    -0.0003031552     8.0258070364
NI      3.6855161152     2.1272223893     8.0242592098
NI      4.9091529323     4.2566463887     8.0230754401
NI      6.1437955035     6.3901120185     8.0195276139
NI      4.9149411504     0.0003503828     8.0249682532
NI      6.1418944680     2.1225024124     8.0178403726
NI      7.3683249962     4.2533712138     8.0371928340
NI      8.6012112308     6.3863779924     8.0236847541
NI      7.3718646511     0.0002154686     8.0253872042
NI      8.6030408747     2.1243678502     8.0220501829
NI      9.8345241693     4.2562930533     8.0183365593
NI     11.0578915476     6.3841968431     8.0254784366
C       6.1555673965     3.3860293397    11.0581599082
C       5.4609852568     2.0630934309    11.2726060913
C       7.2583496326     4.0981535008     9.9791508397
O       5.3883847133     4.4832863020    10.2309820539
O       5.5937795310     1.7247820787    12.6765217291
O       8.5264782196     4.3402982482    10.6610208919
H       5.7298389375     5.2846216294    10.8152550823
H       6.1467566403     2.3847754582    13.1257107268
H       5.8541938590     1.2405987171    10.7171265860
H       4.4074771801     2.0759886488    11.0542927967
H       7.0257770539     4.8850789609    10.5504602204
H       6.2977619009     3.5834224899    12.0656705709
H       7.6267046857     2.8613793489    10.1469852027
H       9.2180582415     3.9667178162    10.0787393813
78
Step 2 | ATOMIC_POSITIONS (angstrom) | Cartesian Angstrom
NI      0.0000000000     0.0000000000     1.9999949100
NI      1.2286500000     2.1280842250     1.9999949100
NI      2.4573000000     4.2561684490     1.9999949100
NI      3.6859500000     6.3842526740     1.9999949100
NI      2.4573000000     0.0000000000     1.9999949100
NI      3.6859500000     2.1280842250     1.9999949100
NI      4.9146000000     4.2561684490     1.9999949100
NI      6.1432500000     6.3842526740     1.9999949100
NI      4.9146000000     0.0000000000     1.9999949100
NI      6.1432500000     2.1280842250     1.9999949100
NI      7.3719000000     4.2561684490     1.9999949100
NI      8.6005500000     6.3842526740     1.9999949100
NI      7.3719000000     0.0000000000     1.9999949100
NI      8.6005500000     2.1280842250     1.9999949100
NI      9.8292000000     4.2561684490     1.9999949100
NI     11.0578500000     6.3842526740     1.9999949100
NI      1.2286064967     0.7096982134     4.0098651250
NI      2.4573221877     2.8376168707     4.0110586642
NI      3.6859624046     4.9653740980     4.0099850418
NI      4.9147639289     7.0935830959     4.0101397838
NI      3.6861854467     0.7095687200     4.0104862030
NI      4.9142232303     2.8371445644     4.0086083315
NI      6.1436254872     4.9655774602     4.0105362053
NI      7.3722200647     7.0941559751     4.0083122686
NI      6.1429521279     0.7094485798     4.0097796150
NI      7.3716828110     2.8381443589     4.0117474971
NI      8.6003926542     4.9656451698     4.0102561416
NI      9.8289335685     7.0936907912     4.0101913183
NI      8.6007133382     0.7093054745     4.0105802595
NI      9.8303698171     2.8371300845     4.0088930488
NI     11.0577410306     4.9653700099     4.0101362635
NI     12.2865602872     7.0936473482     4.0111135358
NI      2.4567702400     1.4187558919     6.0116714927
NI      3.6883015017     3.5479565671     6.0135165249
NI      4.9152729264     5.6744452536     6.0087511224
NI      6.1432379821     7.8020987793     6.0119759695
NI      4.9151174458     1.4198331758     6.0122482865
NI      6.1422725688     3.5461645098     6.0043575936
NI      7.3724478498     5.6732104444     6.0102544913
NI      8.6000953336     7.8021857166     6.0115743197
NI      7.3724768931     1.4192127799     6.0078775476
NI      8.6005598081     3.5474410701     6.0060278916
NI      9.8279103432     5.6748702352     6.0094884031
NI     11.0581425118     7.8028935092     6.0106306380
NI      9.8287195540     1.4196146368     6.0108876051
NI     11.0571228915     3.5462469221     6.0106413623
NI     12.2867493146     5.6747291642     6.0105790421
NI     13.5151900012     7.8029587917     6.0104832904
NI     -0.0004048988    -0.0001383812     8.0328818204
NI      1.2282344674     2.1289520691     8.0341265403
NI      2.4539106864     4.2556816100     8.0304211382
NI      3.6835565091     6.3877461557     8.0289006778
NI      2.4572622776    -0.0002408438     8.0335158806
NI      3.6843622463     2.1253948589     8.0294001535
NI      4.9051458658     4.2576811418     8.0341375079
NI      6.1444517343     6.3971723670     8.0196267807
NI      4.9151596180     0.0003644028     8.0315068893
NI      6.1417091832     2.1150930142     8.0167665395
NI      7.3646670514     4.2488500989     8.0616648551
NI      8.6025496360     6.3891861785     8.0287545638
NI      7.3718654005     0.0003305118     8.0328753932
NI      8.6030100656     2.1214540576     8.0340811516
NI      9.8410783429     4.2569206224     8.0152368785
NI     11.0580493069     6.3843215196     8.0327629360
C       6.1068811813     3.3965140127    11.0047534775
C       5.4592810439     2.0514148314    11.2729151346
C       7.3716378044     4.0641492946     9.9794699766
O       5.2136887769     4.4795187290    10.3085666380
O       5.5902656424     1.7182687164    12.6760538813
O       8.6329148063     4.3387059285    10.6881399717
H       5.6864555337     5.2665530241    10.7786930878
H       6.1494409487     2.3818446284    13.1325708826
H       5.8705049825     1.2238375555    10.6961635630
H       4.3919051167     2.0886036518    11.0459176730
H       7.0248301475     4.9738225764    10.5629576236
H       6.3231237960     3.6422631305    12.1019997595
H       7.6292529346     2.8015019850    10.1080102736
H       9.2434866298     3.9534350646    10.0755884885
