80
Step 1 | ATOMIC_POSITIONS (angstrom) | Cartesian Angstrom
Ni      1.2286497520     0.7093615510    11.2500000000
Ni      2.4572990100     2.8374462050    11.2500000000
Ni      3.6859482670     4.9655308580    11.2500000000
Ni      4.9145975240     7.0936155120    11.2500000000
Ni      3.6859497520     0.7093615510    11.2500000000
Ni      4.9145990100     2.8374462050    11.2500000000
Ni      6.1432482670     4.9655308580    11.2500000000
Ni      7.3718975240     7.0936155120    11.2500000000
Ni      6.1432497520     0.7093615510    11.2500000000
Ni      7.3718990100     2.8374462050    11.2500000000
Ni      8.6005482670     4.9655308580    11.2500000000
Ni      9.8291975240     7.0936155120    11.2500000000
Ni      8.6005497520     0.7093615510    11.2500000000
Ni      9.8291990100     2.8374462050    11.2500000000
Ni     11.0578482670     4.9655308580    11.2500000000
Ni     12.2864975240     7.0936155120    11.2500000000
Ni      9.8231926170     0.0024995240    13.3023445020
Ni     11.0518089830     2.1302240240    13.3047084140
Ni     12.2800508460     4.2570722560    13.3044621730
Ni     13.5092872810     6.3850384710    13.3032135990
Ni      2.4517697470     0.0021660600    13.3026623600
Ni      3.6803279060     2.1303359400    13.3041136820
Ni      4.9088074780     4.2579363990    13.3054287220
Ni      6.1372745400     6.3857876860    13.3032783460
Ni      4.9086517490     0.0018312680    13.3024059970
Ni      6.1374036900     2.1309748260    13.3056096280
Ni      7.3661494970     4.2582451230    13.3069521290
Ni      8.5943412640     6.3854189360    13.3048452030
Ni      7.3652045600     0.0023769350    13.3020218590
Ni      8.5942385870     2.1304695640    13.3043867890
Ni      9.8231946460     4.2572739590    13.3057508080
Ni     11.0517679490     6.3857120740    13.3033345670
Ni      2.4490340010     1.4222228900    15.3362210300
Ni      3.6772966340     3.5494520400    15.3385526490
Ni      4.9062018310     5.6779299860    15.3378107870
Ni      6.1346571370     7.8070605970    15.3335997660
Ni      4.9058225440     1.4219700120    15.3362205140
Ni      6.1346426160     3.5508505240    15.3401416950
Ni      7.3625330180     5.6784279340    15.3395242280
Ni      8.5915701700     7.8062468640    15.3354849980
Ni      7.3627070880     1.4224398610    15.3370387850
Ni      8.5913286880     3.5492678030    15.3408173340
Ni      9.8201850890     5.6778143970    15.3377748310
Ni     11.0486432900     7.8070022870    15.3347461740
Ni      9.8200953690     1.4222882770    15.3366655970
Ni     11.0486075170     3.5492992340    15.3407266610
Ni     12.2774144290     5.6772885480    15.3359640400
Ni     13.5061541410     7.8063455600    15.3319300910
Ni      1.2187910910     0.7145173250    17.3879335110
Ni      2.4472474040     2.8420654680    17.3934583510
Ni      3.6755426410     4.9714604160    17.3911200990
Ni      4.9045370410     7.0991000160    17.3858411420
Ni      3.6755273380     0.7130852300    17.3897672760
Ni      4.9036999830     2.8423805670    17.3934479200
Ni      6.1319552590     4.9726957520    17.3963329100
Ni      7.3614524680     7.0997442320    17.3897409240
Ni      6.1332850860     0.7119051780    17.3902533170
Ni      7.3623531400     2.8409773510    17.3961535170
Ni      8.5911690580     4.9716069240    17.3936889090
Ni      9.8197669710     7.1000576730    17.3889506800
Ni      8.5911411740     0.7131642410    17.3880086890
Ni      9.8198330200     2.8408219280    17.3957136840
Ni     11.0487030820     4.9704125330    17.3927697590
Ni     12.2763266390     7.0989938260    17.3852102910
O       7.4557074898     4.0190959162    21.6766620552
O       8.5598879019     4.9466235466    19.3220373662
O       8.5535485924     4.9377142788    24.1246176422
C       8.5574525338     4.9297664737    21.7132028838
C       9.3991604721     4.7374756244    20.4605000993
C       9.3733283357     4.7234733962    22.9761940040
H       8.0988121273     5.9483669858    21.7096161735
H       9.7864065272     3.7044073501    20.4022660820
H      10.2263525192     5.4356264409    20.3999014070
H      10.2328841296     5.4022401530    23.0079655372
H       9.7412634624     3.6768849739    23.0081054309
H       7.8440558645     3.1178661276    21.6867078325
H       7.8093203167     4.3005760915    19.3724390026
H       9.1188861580     4.7774234049    24.8976881730
O       2.4744871625     1.4393548730    19.1870119140
H       2.4764109664     1.4389365067    20.1895513298
80
Step 2 | ATOMIC_POSITIONS (angstrom) | Cartesian Angstrom
Ni      1.2286497520     0.7093615510    11.2500000000
Ni      2.4572990100     2.8374462050    11.2500000000
Ni      3.6859482670     4.9655308580    11.2500000000
Ni      4.9145975240     7.0936155120    11.2500000000
Ni      3.6859497520     0.7093615510    11.2500000000
Ni      4.9145990100     2.8374462050    11.2500000000
Ni      6.1432482670     4.9655308580    11.2500000000
Ni      7.3718975240     7.0936155120    11.2500000000
Ni      6.1432497520     0.7093615510    11.2500000000
Ni      7.3718990100     2.8374462050    11.2500000000
Ni      8.6005482670     4.9655308580    11.2500000000
Ni      9.8291975240     7.0936155120    11.2500000000
Ni      8.6005497520     0.7093615510    11.2500000000
Ni      9.8291990100     2.8374462050    11.2500000000
Ni     11.0578482670     4.9655308580    11.2500000000
Ni     12.2864975240     7.0936155120    11.2500000000
Ni      9.8231926170     0.0024995240    13.3023445020
Ni     11.0518089830     2.1302240240    13.3047084140
Ni     12.2800508460     4.2570722560    13.3044621730
Ni     13.5092872810     6.3850384710    13.3032135990
Ni      2.4517697470     0.0021660600    13.3026623600
Ni      3.6803279060     2.1303359400    13.3041136820
Ni      4.9088074780     4.2579363990    13.3054287220
Ni      6.1372745400     6.3857876860    13.3032783460
Ni      4.9086517490     0.0018312680    13.3024059970
Ni      6.1374036900     2.1309748260    13.3056096280
Ni      7.3661494970     4.2582451230    13.3069521290
Ni      8.5943412640     6.3854189360    13.3048452030
Ni      7.3652045600     0.0023769350    13.3020218590
Ni      8.5942385870     2.1304695640    13.3043867890
Ni      9.8231946460     4.2572739590    13.3057508080
Ni     11.0517679490     6.3857120740    13.3033345670
Ni      2.4490340010     1.4222228900    15.3362210300
Ni      3.6772966340     3.5494520400    15.3385526490
Ni      4.9062018310     5.6779299860    15.3378107870
Ni      6.1346571370     7.8070605970    15.3335997660
Ni      4.9058225440     1.4219700120    15.3362205140
Ni      6.1346426160     3.5508505240    15.3401416950
Ni      7.3625330180     5.6784279340    15.3395242280
Ni      8.5915701700     7.8062468640    15.3354849980
Ni      7.3627070880     1.4224398610    15.3370387850
Ni      8.5913286880     3.5492678030    15.3408173340
Ni      9.8201850890     5.6778143970    15.3377748310
Ni     11.0486432900     7.8070022870    15.3347461740
Ni      9.8200953690     1.4222882770    15.3366655970
Ni     11.0486075170     3.5492992340    15.3407266610
Ni     12.2774144290     5.6772885480    15.3359640400
Ni     13.5061541410     7.8063455600    15.3319300910
Ni      1.2187910910     0.7145173250    17.3879335110
Ni      2.4472474040     2.8420654680    17.3934583510
Ni      3.6755426410     4.9714604160    17.3911200990
Ni      4.9045370410     7.0991000160    17.3858411420
Ni      3.6755273380     0.7130852300    17.3897672760
Ni      4.9036999830     2.8423805670    17.3934479200
Ni      6.1319552590     4.9726957520    17.3963329100
Ni      7.3614524680     7.0997442320    17.3897409240
Ni      6.1332850860     0.7119051780    17.3902533170
Ni      7.3623531400     2.8409773510    17.3961535170
Ni      8.5911690580     4.9716069240    17.3936889090
Ni      9.8197669710     7.1000576730    17.3889506800
Ni      8.5911411740     0.7131642410    17.3880086890
Ni      9.8198330200     2.8408219280    17.3957136840
Ni     11.0487030820     4.9704125330    17.3927697590
Ni     12.2763266390     7.0989938260    17.3852102910
O       7.4377817785     4.0105727391    21.6612657503
O       8.5289463334     4.9647083235    19.3600090252
O       8.5404320601     4.9469023818    24.1327636131
C       8.5581060499     4.9150220970    21.7287935078
C       9.4157353788     4.7347586672    20.4785440623
C       9.3769676046     4.7248512758    22.9929158533
H       8.1048327752     5.9361727114    21.7100067994
H       9.7989446420     3.6986482833    20.4098865631
H      10.2384998708     5.4472996632    20.3890216526
H      10.2514818440     5.4093425418    22.9943265810
H       9.7525712171     3.6709670382    22.9900898237
H       7.8349330019     3.1199406473    21.6911792725
H       7.7873095954     4.2959914354    19.3912165895
H       9.1120181422     4.7799257788    24.8998309075
O       2.4718383062     1.4401835499    19.1297896739
H       2.4788511176     1.4386955779    20.1341404590
80
Step 3 | ATOMIC_POSITIONS (angstrom) | Cartesian Angstrom
Ni      1.2286497520     0.7093615510    11.2500000000
Ni      2.4572990100     2.8374462050    11.2500000000
Ni      3.6859482670     4.9655308580    11.2500000000
Ni      4.9145975240     7.0936155120    11.2500000000
Ni      3.6859497520     0.7093615510    11.2500000000
Ni      4.9145990100     2.8374462050    11.2500000000
Ni      6.1432482670     4.9655308580    11.2500000000
Ni      7.3718975240     7.0936155120    11.2500000000
Ni      6.1432497520     0.7093615510    11.2500000000
Ni      7.3718990100     2.8374462050    11.2500000000
Ni      8.6005482670     4.9655308580    11.2500000000
Ni      9.8291975240     7.0936155120    11.2500000000
Ni      8.6005497520     0.7093615510    11.2500000000
Ni      9.8291990100     2.8374462050    11.2500000000
Ni     11.0578482670     4.9655308580    11.2500000000
Ni     12.2864975240     7.0936155120    11.2500000000
Ni      9.8231926170     0.0024995240    13.3023445020
Ni     11.0518089830     2.1302240240    13.3047084140
Ni     12.2800508460     4.2570722560    13.3044621730
Ni     13.5092872810     6.3850384710    13.3032135990
Ni      2.4517697470     0.0021660600    13.3026623600
Ni      3.6803279060     2.1303359400    13.3041136820
Ni      4.9088074780     4.2579363990    13.3054287220
Ni      6.1372745400     6.3857876860    13.3032783460
Ni      4.9086517490     0.0018312680    13.3024059970
Ni      6.1374036900     2.1309748260    13.3056096280
Ni      7.3661494970     4.2582451230    13.3069521290
Ni      8.5943412640     6.3854189360    13.3048452030
Ni      7.3652045600     0.0023769350    13.3020218590
Ni      8.5942385870     2.1304695640    13.3043867890
Ni      9.8231946460     4.2572739590    13.3057508080
Ni     11.0517679490     6.3857120740    13.3033345670
Ni      2.4490340010     1.4222228900    15.3362210300
Ni      3.6772966340     3.5494520400    15.3385526490
Ni      4.9062018310     5.6779299860    15.3378107870
Ni      6.1346571370     7.8070605970    15.3335997660
Ni      4.9058225440     1.4219700120    15.3362205140
Ni      6.1346426160     3.5508505240    15.3401416950
Ni      7.3625330180     5.6784279340    15.3395242280
Ni      8.5915701700     7.8062468640    15.3354849980
Ni      7.3627070880     1.4224398610    15.3370387850
Ni      8.5913286880     3.5492678030    15.3408173340
Ni      9.8201850890     5.6778143970    15.3377748310
Ni     11.0486432900     7.8070022870    15.3347461740
Ni      9.8200953690     1.4222882770    15.3366655970
Ni     11.0486075170     3.5492992340    15.3407266610
Ni     12.2774144290     5.6772885480    15.3359640400
Ni     13.5061541410     7.8063455600    15.3319300910
Ni      1.2187910910     0.7145173250    17.3879335110
Ni      2.4472474040     2.8420654680    17.3934583510
Ni      3.6755426410     4.9714604160    17.3911200990
Ni      4.9045370410     7.0991000160    17.3858411420
Ni      3.6755273380     0.7130852300    17.3897672760
Ni      4.9036999830     2.8423805670    17.3934479200
Ni      6.1319552590     4.9726957520    17.3963329100
Ni      7.3614524680     7.0997442320    17.3897409240
Ni      6.1332850860     0.7119051780    17.3902533170
Ni      7.3623531400     2.8409773510    17.3961535170
Ni      8.5911690580     4.9716069240    17.3936889090
Ni      9.8197669710     7.1000576730    17.3889506800
Ni      8.5911411740     0.7131642410    17.3880086890
Ni      9.8198330200     2.8408219280    17.3957136840
Ni     11.0487030820     4.9704125330    17.3927697590
Ni     12.2763266390     7.0989938260    17.3852102910
O       7.4295907859     4.0101255998    21.6488870720
O       8.5006161130     4.9781070068    19.3935363042
O       8.5372517358     4.9534074061    24.1383247238
C       8.5591529487     4.9066028439    21.7412948469
C       9.4212476397     4.7334322078    20.4915805128
C       9.3793580640     4.7237131885    23.0033918670
H       8.1113513432     5.9219904529    21.7114358075
H       9.8119292730     3.6949083465    20.4160651657
H      10.2465669456     5.4554952174    20.3800005527
H      10.2615773854     5.4113572056    22.9827721260
H       9.7622846494     3.6701107186    22.9776995439
H       7.8250572290     3.1146709288    21.6959246674
H       7.7705875017     4.2957220597    19.4131971725
H       9.1029114284     4.7830522873    24.9050385912
O       2.4691839078     1.4409533309    19.0728202976
H       2.4813509289     1.4384455724    20.0711720954
80
Step 4 | ATOMIC_POSITIONS (angstrom) | Cartesian Angstrom
Ni      1.2286497520     0.7093615510    11.2500000000
Ni      2.4572990100     2.8374462050    11.2500000000
Ni      3.6859482670     4.9655308580    11.2500000000
Ni      4.9145975240     7.0936155120    11.2500000000
Ni      3.6859497520     0.7093615510    11.2500000000
Ni      4.9145990100     2.8374462050    11.2500000000
Ni      6.1432482670     4.9655308580    11.2500000000
Ni      7.3718975240     7.0936155120    11.2500000000
Ni      6.1432497520     0.7093615510    11.2500000000
Ni      7.3718990100     2.8374462050    11.2500000000
Ni      8.6005482670     4.9655308580    11.2500000000
Ni      9.8291975240     7.0936155120    11.2500000000
Ni      8.6005497520     0.7093615510    11.2500000000
Ni      9.8291990100     2.8374462050    11.2500000000
Ni     11.0578482670     4.9655308580    11.2500000000
Ni     12.2864975240     7.0936155120    11.2500000000
Ni      9.8231926170     0.0024995240    13.3023445020
Ni     11.0518089830     2.1302240240    13.3047084140
Ni     12.2800508460     4.2570722560    13.3044621730
Ni     13.5092872810     6.3850384710    13.3032135990
Ni      2.4517697470     0.0021660600    13.3026623600
Ni      3.6803279060     2.1303359400    13.3041136820
Ni      4.9088074780     4.2579363990    13.3054287220
Ni      6.1372745400     6.3857876860    13.3032783460
Ni      4.9086517490     0.0018312680    13.3024059970
Ni      6.1374036900     2.1309748260    13.3056096280
Ni      7.3661494970     4.2582451230    13.3069521290
Ni      8.5943412640     6.3854189360    13.3048452030
Ni      7.3652045600     0.0023769350    13.3020218590
Ni      8.5942385870     2.1304695640    13.3043867890
Ni      9.8231946460     4.2572739590    13.3057508080
Ni     11.0517679490     6.3857120740    13.3033345670
Ni      2.4490340010     1.4222228900    15.3362210300
Ni      3.6772966340     3.5494520400    15.3385526490
Ni      4.9062018310     5.6779299860    15.3378107870
Ni      6.1346571370     7.8070605970    15.3335997660
Ni      4.9058225440     1.4219700120    15.3362205140
Ni      6.1346426160     3.5508505240    15.3401416950
Ni      7.3625330180     5.6784279340    15.3395242280
Ni      8.5915701700     7.8062468640    15.3354849980
Ni      7.3627070880     1.4224398610    15.3370387850
Ni      8.5913286880     3.5492678030    15.3408173340
Ni      9.8201850890     5.6778143970    15.3377748310
Ni     11.0486432900     7.8070022870    15.3347461740
Ni      9.8200953690     1.4222882770    15.3366655970
Ni     11.0486075170     3.5492992340    15.3407266610
Ni     12.2774144290     5.6772885480    15.3359640400
Ni     13.5061541410     7.8063455600    15.3319300910
Ni      1.2187910910     0.7145173250    17.3879335110
Ni      2.4472474040     2.8420654680    17.3934583510
Ni      3.6755426410     4.9714604160    17.3911200990
Ni      4.9045370410     7.0991000160    17.3858411420
Ni      3.6755273380     0.7130852300    17.3897672760
Ni      4.9036999830     2.8423805670    17.3934479200
Ni      6.1319552590     4.9726957520    17.3963329100
Ni      7.3614524680     7.0997442320    17.3897409240
Ni      6.1332850860     0.7119051780    17.3902533170
Ni      7.3623531400     2.8409773510    17.3961535170
Ni      8.5911690580     4.9716069240    17.3936889090
Ni      9.8197669710     7.1000576730    17.3889506800
Ni      8.5911411740     0.7131642410    17.3880086890
Ni      9.8198330200     2.8408219280    17.3957136840
Ni     11.0487030820     4.9704125330    17.3927697590
Ni     12.2763266390     7.0989938260    17.3852102910
O       7.4292602581     4.0034824092    21.6362725067
O       8.4653662662     4.9937499052    19.4335656217
O       8.5383637542     4.9608461530    24.1407946696
C       8.5633840881     4.8984720344    21.7552059250
C       9.4247489443     4.7325645995    20.5041756015
C       9.3829972230     4.7202730823    23.0123428970
H       8.1197141313     5.9043412162    21.7152438049
H       9.8284468650     3.6952330350    20.4233693556
H      10.2502393347     5.4614841736    20.3696021034
H      10.2680399191     5.4097135149    22.9686240061
H       9.7748172410     3.6722810459    22.9664362256
H       7.8054048927     3.1110418897    21.7027139635
H       7.7497146409     4.2983837298    19.4489061080
H       9.0909720999     4.7872349558    24.9191261209
O       2.4653638123     1.4418864059    18.9858265752
H       2.4850323510     1.4380801005    19.9767168261
80
Step 5 | ATOMIC_POSITIONS (angstrom) | Cartesian Angstrom
Ni      1.2286497520     0.7093615510    11.2500000000
Ni      2.4572990100     2.8374462050    11.2500000000
Ni      3.6859482670     4.9655308580    11.2500000000
Ni      4.9145975240     7.0936155120    11.2500000000
Ni      3.6859497520     0.7093615510    11.2500000000
Ni      4.9145990100     2.8374462050    11.2500000000
Ni      6.1432482670     4.9655308580    11.2500000000
Ni      7.3718975240     7.0936155120    11.2500000000
Ni      6.1432497520     0.7093615510    11.2500000000
Ni      7.3718990100     2.8374462050    11.2500000000
Ni      8.6005482670     4.9655308580    11.2500000000
Ni      9.8291975240     7.0936155120    11.2500000000
Ni      8.6005497520     0.7093615510    11.2500000000
Ni      9.8291990100     2.8374462050    11.2500000000
Ni     11.0578482670     4.9655308580    11.2500000000
Ni     12.2864975240     7.0936155120    11.2500000000
Ni      9.8231926170     0.0024995240    13.3023445020
Ni     11.0518089830     2.1302240240    13.3047084140
Ni     12.2800508460     4.2570722560    13.3044621730
Ni     13.5092872810     6.3850384710    13.3032135990
Ni      2.4517697470     0.0021660600    13.3026623600
Ni      3.6803279060     2.1303359400    13.3041136820
Ni      4.9088074780     4.2579363990    13.3054287220
Ni      6.1372745400     6.3857876860    13.3032783460
Ni      4.9086517490     0.0018312680    13.3024059970
Ni      6.1374036900     2.1309748260    13.3056096280
Ni      7.3661494970     4.2582451230    13.3069521290
Ni      8.5943412640     6.3854189360    13.3048452030
Ni      7.3652045600     0.0023769350    13.3020218590
Ni      8.5942385870     2.1304695640    13.3043867890
Ni      9.8231946460     4.2572739590    13.3057508080
Ni     11.0517679490     6.3857120740    13.3033345670
Ni      2.4490340010     1.4222228900    15.3362210300
Ni      3.6772966340     3.5494520400    15.3385526490
Ni      4.9062018310     5.6779299860    15.3378107870
Ni      6.1346571370     7.8070605970    15.3335997660
Ni      4.9058225440     1.4219700120    15.3362205140
Ni      6.1346426160     3.5508505240    15.3401416950
Ni      7.3625330180     5.6784279340    15.3395242280
Ni      8.5915701700     7.8062468640    15.3354849980
Ni      7.3627070880     1.4224398610    15.3370387850
Ni      8.5913286880     3.5492678030    15.3408173340
Ni      9.8201850890     5.6778143970    15.3377748310
Ni     11.0486432900     7.8070022870    15.3347461740
Ni      9.8200953690     1.4222882770    15.3366655970
Ni     11.0486075170     3.5492992340    15.3407266610
Ni     12.2774144290     5.6772885480    15.3359640400
Ni     13.5061541410     7.8063455600    15.3319300910
Ni      1.2187910910     0.7145173250    17.3879335110
Ni      2.4472474040     2.8420654680    17.3934583510
Ni      3.6755426410     4.9714604160    17.3911200990
Ni      4.9045370410     7.0991000160    17.3858411420
Ni      3.6755273380     0.7130852300    17.3897672760
Ni      4.9036999830     2.8423805670    17.3934479200
Ni      6.1319552590     4.9726957520    17.3963329100
Ni      7.3614524680     7.0997442320    17.3897409240
Ni      6.1332850860     0.7119051780    17.3902533170
Ni      7.3623531400     2.8409773510    17.3961535170
Ni      8.5911690580     4.9716069240    17.3936889090
Ni      9.8197669710     7.1000576730    17.3889506800
Ni      8.5911411740     0.7131642410    17.3880086890
Ni      9.8198330200     2.8408219280    17.3957136840
Ni     11.0487030820     4.9704125330    17.3927697590
Ni     12.2763266390     7.0989938260    17.3852102910
O       7.4350004247     4.0070521160    21.6262485842
O       8.4255052978     5.0086450456    19.4756066039
O       8.5513281603     4.9670680844    24.1462498072
C       8.5716830934     4.8894420188    21.7668433238
C       9.4203852973     4.7313312679    20.5126470904
C       9.3891728370     4.7119941559    23.0174809750
H       8.1289140180     5.8847359129    21.7237377673
H       9.8472071837     3.7040635075    20.4302219499
H      10.2461498034     5.4645867569    20.3588273014
H      10.2681801507     5.4030683618    22.9527259741
H       9.7909008473     3.6779324368    22.9611172119
H       7.7799953423     3.0919261955    21.7140435951
H       7.7255133483     4.3077006282    19.5054747336
H       9.0711272205     4.7941988026    24.9397667467
O       2.4600166847     1.4426133691    18.8618155192
H       2.4903235181     1.4375621059    19.8350249950
80
Step 6 | ATOMIC_POSITIONS (angstrom) | Cartesian Angstrom
Ni      1.2286497520     0.7093615510    11.2500000000
Ni      2.4572990100     2.8374462050    11.2500000000
Ni      3.6859482670     4.9655308580    11.2500000000
Ni      4.9145975240     7.0936155120    11.2500000000
Ni      3.6859497520     0.7093615510    11.2500000000
Ni      4.9145990100     2.8374462050    11.2500000000
Ni      6.1432482670     4.9655308580    11.2500000000
Ni      7.3718975240     7.0936155120    11.2500000000
Ni      6.1432497520     0.7093615510    11.2500000000
Ni      7.3718990100     2.8374462050    11.2500000000
Ni      8.6005482670     4.9655308580    11.2500000000
Ni      9.8291975240     7.0936155120    11.2500000000
Ni      8.6005497520     0.7093615510    11.2500000000
Ni      9.8291990100     2.8374462050    11.2500000000
Ni     11.0578482670     4.9655308580    11.2500000000
Ni     12.2864975240     7.0936155120    11.2500000000
Ni      9.8231926170     0.0024995240    13.3023445020
Ni     11.0518089830     2.1302240240    13.3047084140
Ni     12.2800508460     4.2570722560    13.3044621730
Ni     13.5092872810     6.3850384710    13.3032135990
Ni      2.4517697470     0.0021660600    13.3026623600
Ni      3.6803279060     2.1303359400    13.3041136820
Ni      4.9088074780     4.2579363990    13.3054287220
Ni      6.1372745400     6.3857876860    13.3032783460
Ni      4.9086517490     0.0018312680    13.3024059970
Ni      6.1374036900     2.1309748260    13.3056096280
Ni      7.3661494970     4.2582451230    13.3069521290
Ni      8.5943412640     6.3854189360    13.3048452030
Ni      7.3652045600     0.0023769350    13.3020218590
Ni      8.5942385870     2.1304695640    13.3043867890
Ni      9.8231946460     4.2572739590    13.3057508080
Ni     11.0517679490     6.3857120740    13.3033345670
Ni      2.4490340010     1.4222228900    15.3362210300
Ni      3.6772966340     3.5494520400    15.3385526490
Ni      4.9062018310     5.6779299860    15.3378107870
Ni      6.1346571370     7.8070605970    15.3335997660
Ni      4.9058225440     1.4219700120    15.3362205140
Ni      6.1346426160     3.5508505240    15.3401416950
Ni      7.3625330180     5.6784279340    15.3395242280
Ni      8.5915701700     7.8062468640    15.3354849980
Ni      7.3627070880     1.4224398610    15.3370387850
Ni      8.5913286880     3.5492678030    15.3408173340
Ni      9.8201850890     5.6778143970    15.3377748310
Ni     11.0486432900     7.8070022870    15.3347461740
Ni      9.8200953690     1.4222882770    15.3366655970
Ni     11.0486075170     3.5492992340    15.3407266610
Ni     12.2774144290     5.6772885480    15.3359640400
Ni     13.5061541410     7.8063455600    15.3319300910
Ni      1.2187910910     0.7145173250    17.3879335110
Ni      2.4472474040     2.8420654680    17.3934583510
Ni      3.6755426410     4.9714604160    17.3911200990
Ni      4.9045370410     7.0991000160    17.3858411420
Ni      3.6755273380     0.7130852300    17.3897672760
Ni      4.9036999830     2.8423805670    17.3934479200
Ni      6.1319552590     4.9726957520    17.3963329100
Ni      7.3614524680     7.0997442320    17.3897409240
Ni      6.1332850860     0.7119051780    17.3902533170
Ni      7.3623531400     2.8409773510    17.3961535170
Ni      8.5911690580     4.9716069240    17.3936889090
Ni      9.8197669710     7.1000576730    17.3889506800
Ni      8.5911411740     0.7131642410    17.3880086890
Ni      9.8198330200     2.8408219280    17.3957136840
Ni     11.0487030820     4.9704125330    17.3927697590
Ni     12.2763266390     7.0989938260    17.3852102910
O       7.4472821200     3.9994204542    21.6333945193
O       8.4266588904     5.0061823411    19.4714579688
O       8.5603849757     4.9661166943    24.1407859029
C       8.5756839333     4.8916363061    21.7642053718
C       9.4108797264     4.7345493461    20.5053897695
C       9.3915473729     4.7081700908    23.0143635203
H       8.1297795607     5.8850624144    21.7298232193
H       9.8477469232     3.7126952164    20.4275273375
H      10.2348797508     5.4605216952    20.3597695340
H      10.2605214958     5.3975079190    22.9521583296
H       9.7949493381     3.6791594752    22.9708401278
H       7.7676731050     3.0904575228    21.7180424516
H       7.7215000453     4.3150144409    19.5288328539
H       9.0684657469     4.7953424934    24.9529839778
O       2.4582316710     1.4418279847    18.8223289781
H       2.4922309978     1.4373442497    19.7925590396
80
Step 7 | ATOMIC_POSITIONS (angstrom) | Cartesian Angstrom
Ni      1.2286497520     0.7093615510    11.2500000000
Ni      2.4572990100     2.8374462050    11.2500000000
Ni      3.6859482670     4.9655308580    11.2500000000
Ni      4.9145975240     7.0936155120    11.2500000000
Ni      3.6859497520     0.7093615510    11.2500000000
Ni      4.9145990100     2.8374462050    11.2500000000
Ni      6.1432482670     4.9655308580    11.2500000000
Ni      7.3718975240     7.0936155120    11.2500000000
Ni      6.1432497520     0.7093615510    11.2500000000
Ni      7.3718990100     2.8374462050    11.2500000000
Ni      8.6005482670     4.9655308580    11.2500000000
Ni      9.8291975240     7.0936155120    11.2500000000
Ni      8.6005497520     0.7093615510    11.2500000000
Ni      9.8291990100     2.8374462050    11.2500000000
Ni     11.0578482670     4.9655308580    11.2500000000
Ni     12.2864975240     7.0936155120    11.2500000000
Ni      9.8231926170     0.0024995240    13.3023445020
Ni     11.0518089830     2.1302240240    13.3047084140
Ni     12.2800508460     4.2570722560    13.3044621730
Ni     13.5092872810     6.3850384710    13.3032135990
Ni      2.4517697470     0.0021660600    13.3026623600
Ni      3.6803279060     2.1303359400    13.3041136820
Ni      4.9088074780     4.2579363990    13.3054287220
Ni      6.1372745400     6.3857876860    13.3032783460
Ni      4.9086517490     0.0018312680    13.3024059970
Ni      6.1374036900     2.1309748260    13.3056096280
Ni      7.3661494970     4.2582451230    13.3069521290
Ni      8.5943412640     6.3854189360    13.3048452030
Ni      7.3652045600     0.0023769350    13.3020218590
Ni      8.5942385870     2.1304695640    13.3043867890
Ni      9.8231946460     4.2572739590    13.3057508080
Ni     11.0517679490     6.3857120740    13.3033345670
Ni      2.4490340010     1.4222228900    15.3362210300
Ni      3.6772966340     3.5494520400    15.3385526490
Ni      4.9062018310     5.6779299860    15.3378107870
Ni      6.1346571370     7.8070605970    15.3335997660
Ni      4.9058225440     1.4219700120    15.3362205140
Ni      6.1346426160     3.5508505240    15.3401416950
Ni      7.3625330180     5.6784279340    15.3395242280
Ni      8.5915701700     7.8062468640    15.3354849980
Ni      7.3627070880     1.4224398610    15.3370387850
Ni      8.5913286880     3.5492678030    15.3408173340
Ni      9.8201850890     5.6778143970    15.3377748310
Ni     11.0486432900     7.8070022870    15.3347461740
Ni      9.8200953690     1.4222882770    15.3366655970
Ni     11.0486075170     3.5492992340    15.3407266610
Ni     12.2774144290     5.6772885480    15.3359640400
Ni     13.5061541410     7.8063455600    15.3319300910
Ni      1.2187910910     0.7145173250    17.3879335110
Ni      2.4472474040     2.8420654680    17.3934583510
Ni      3.6755426410     4.9714604160    17.3911200990
Ni      4.9045370410     7.0991000160    17.3858411420
Ni      3.6755273380     0.7130852300    17.3897672760
Ni      4.9036999830     2.8423805670    17.3934479200
Ni      6.1319552590     4.9726957520    17.3963329100
Ni      7.3614524680     7.0997442320    17.3897409240
Ni      6.1332850860     0.7119051780    17.3902533170