126
Step 1 | ATOMIC_POSITIONS (angstrom) | Cartesian Angstrom
NI      0.0000000000     0.0000000000     1.1900000730
NI      1.2286496050     2.1280835410     1.1900000730
NI      2.4572992100     4.2561670810     1.1900000730
NI      3.6859488150     6.3842506220     1.1900000730
NI      4.9145984200     8.5123341620     1.1900000730
NI      2.4572992100     0.0000000000     1.1900000730
NI      3.6859488150     2.1280835410     1.1900000730
NI      4.9145984200     4.2561670810     1.1900000730
NI      6.1432480250     6.3842506220     1.1900000730
NI      7.3718976300     8.5123341620     1.1900000730
NI      4.9145984200     0.0000000000     1.1900000730
NI      6.1432480250     2.1280835410     1.1900000730
NI      7.3718976300     4.2561670810     1.1900000730
NI      8.6005472350     6.3842506220     1.1900000730
NI      9.8291968400     8.5123341620     1.1900000730
NI      7.3718976300     0.0000000000     1.1900000730
NI      8.6005472350     2.1280835410     1.1900000730
NI      9.8291968400     4.2561670810     1.1900000730
NI     11.0578464450     6.3842506220     1.1900000730
NI     12.2864960500     8.5123341620     1.1900000730
NI      9.8291968400     0.0000000000     1.1900000730
NI     11.0578464450     2.1280835410     1.1900000730
NI     12.2864960500     4.2561670810     1.1900000730
NI     13.5151456550     6.3842506220     1.1900000730
NI     14.7437952600     8.5123341620     1.1900000730
NI      1.2282696348     0.7072232211     3.1987386648
NI      2.4569709752     2.8357921527     3.2003926081
NI      3.6860816621     4.9632727163     3.1976099869
NI      4.9155396333     7.0925966513     3.1977869705
NI      6.1438301089     9.2196863750     3.2000667905
NI      3.6855216313     0.7077634856     3.2006302854
NI      4.9181336102     2.8384953726     3.2020089104
NI      6.1462633329     4.9629744238     3.2066134818
NI      7.3722425664     7.0870337028     3.2038027380
NI      8.5996495912     9.2184729229     3.2017581510
NI      6.1421017322     0.7087358707     3.1977412140
NI      7.3723767516     2.8396957054     3.2061087230
NI      8.5976996055     4.9629803934     3.2074439445
NI      9.8270900345     7.0919287610     3.2000625382
NI     11.0573011131     9.2199608722     3.2008913289
NI      8.6011531479     0.7088257436     3.1981282124
NI      9.8246620799     2.8391634007     3.2033625697
NI     11.0562914274     4.9634663622     3.2001207225
NI     12.2860558293     7.0920130268     3.2012084922
NI     13.5152416200     9.2204884181     3.2014227641
NI     11.0576263955     0.7083284056     3.2003796616
NI     12.2849116436     2.8361149778     3.2011238833
NI     13.5146624886     4.9640988368     3.2012693078
NI     14.7440321609     7.0919867326     3.2012554351
NI     15.9728043725     9.2203603330     3.2011870122
NI      2.4549218462     1.4156614484     5.2115745568
NI      3.6849504213     3.5429372374     5.2092750051
NI      4.9148798974     5.6750681362     5.2052610652
NI      6.1442287487     7.7986214557     5.2111862832
NI      7.3708340180     9.9286920446     5.2139523332
NI      4.9125437001     1.4170957446     5.2098664014
NI      6.1560252614     3.5522094390     5.2393935091
NI      7.3698608298     5.6552893014     5.2476755029
NI      8.5977659725     7.7978989362     5.2150622456
NI      9.8282396578     9.9281904283     5.2131614041
NI      7.3711830613     1.4154346036     5.2028922345
NI      8.5846987123     3.5539688738     5.2440936413
NI      9.8279960059     5.6733085250     5.2097331846
NI     11.0570376419     7.8005417630     5.2131216005
NI     12.2856710562     9.9295272986     5.2131499653
NI      9.8299297897     1.4180533423     5.2085785607
NI     11.0553617797     3.5432233519     5.2127016379
NI     12.2852032176     5.6720433170     5.2130837485
NI     13.5146711950     7.8010737384     5.2135945261
NI     14.7439329277     9.9300371424     5.2129708728
NI     12.2861364095     1.4164988622     5.2140511718
NI     13.5131910085     3.5436990792     5.2136010138
NI     14.7437188775     5.6719106976     5.2137387090
NI     15.9730694351     7.8011079845     5.2130098126
NI     17.2013772020     9.9289289072     5.2142168082
NI     -0.0008536129    -0.0021675437     7.2269363411
NI      1.2270451035     2.1243632262     7.2243132628
NI      2.4510115728     4.2528350282     7.2290957426
NI      3.6777650584     6.3833392260     7.2264386805
NI      4.9103711024     8.5158054887     7.2255537920
NI      2.4557690297    -0.0025960800     7.2229416376
NI      3.6832055304     2.1240695087     7.2236163617
NI      4.8909127832     4.2538350204     7.1950036202
NI      6.1315136224     6.3930010226     7.2374108852
NI      7.3721310186     8.5135314222     7.2233646063
NI      4.9117501821    -0.0068916618     7.2283872238
NI      6.1360007422     2.1064308546     7.2000736482
NI      7.3735705108     4.2466419837     7.4145415237
NI      8.6109498431     6.3885486246     7.2153588448
NI      9.8300668196     8.5109515512     7.2263590294
NI      7.3715811150    -0.0065313075     7.2277404694
NI      8.6052663568     2.1098004070     7.1995309370
NI      9.8410464367     4.2562019634     7.2102767238
NI     11.0590328752     6.3823489565     7.2282724434
NI     12.2860818251     8.5092125306     7.2225858889
NI      9.8299195003    -0.0046404617     7.2279765957
NI     11.0559606553     2.1252385441     7.2268040024
NI     12.2865621943     4.2528201555     7.2263629130
NI     13.5136937381     6.3818247476     7.2226494737
NI     14.7420785534     8.5098436993     7.2217300760
C       7.9011999020     3.7638050805    10.3078563164
C       7.3127674595     3.4458683182    11.6574860914
C       7.9437185587     4.3469117657    12.7558495231
C       8.0576045026     3.6286486382    14.1160146911
C       8.2592204397     4.6304055581    15.2692155316
C       8.5957573250     3.9556719280    16.6017799078
O       7.1455345615     4.1113771521     9.4032274553
O       5.9066536955     3.5652142957    11.6536250523
O       9.2352556286     4.7529370622    12.3008255108
O       6.8757504590     2.8675803434    14.3321505320
O       9.3661345007     5.4992926121    14.9364709896
O       7.4856681757     3.1335086961    17.0113190336
H       8.9802112755     3.6327612978    10.1381767619
H       7.6020203833     2.3930117784    11.8610312761
H       7.2570266008     5.2099447828    12.8495231206
H       8.9527542772     2.9735526395    14.0531343002
H       7.3231865230     5.2080208134    15.3672093415
H       9.5118320618     3.3556908005    16.4698883114
H       8.7966290251     4.7354909894    17.3577165139
H       5.6480502254     3.8117757141    10.7398555264
H       9.6380067658     5.2540010996    13.0383738851
H       6.8524723297     2.6250093938    15.2804003024
H       9.2710782191     6.3366936109    15.4185543299
H       7.7676676006     2.5684227790    17.7487263976
O       6.1385282161     6.3952172640     9.2101737831
H       6.1417538764     6.3866945547    10.1777994933
126
Step 2 | ATOMIC_POSITIONS (angstrom) | Cartesian Angstrom
NI      0.0000000000     0.0000000000     1.1900000730
NI      1.2286496050     2.1280835410     1.1900000730
NI      2.4572992100     4.2561670810     1.1900000730
NI      3.6859488150     6.3842506220     1.1900000730
NI      4.9145984200     8.5123341620     1.1900000730
NI      2.4572992100     0.0000000000     1.1900000730
NI      3.6859488150     2.1280835410     1.1900000730
NI      4.9145984200     4.2561670810     1.1900000730
NI      6.1432480250     6.3842506220     1.1900000730
NI      7.3718976300     8.5123341620     1.1900000730
NI      4.9145984200     0.0000000000     1.1900000730
NI      6.1432480250     2.1280835410     1.1900000730
NI      7.3718976300     4.2561670810     1.1900000730
NI      8.6005472350     6.3842506220     1.1900000730
NI      9.8291968400     8.5123341620     1.1900000730
NI      7.3718976300     0.0000000000     1.1900000730
NI      8.6005472350     2.1280835410     1.1900000730
NI      9.8291968400     4.2561670810     1.1900000730
NI     11.0578464450     6.3842506220     1.1900000730
NI     12.2864960500     8.5123341620     1.1900000730
NI      9.8291968400     0.0000000000     1.1900000730
NI     11.0578464450     2.1280835410     1.1900000730
NI     12.2864960500     4.2561670810     1.1900000730
NI     13.5151456550     6.3842506220     1.1900000730
NI     14.7437952600     8.5123341620     1.1900000730
NI      1.2285127905     0.7071483528     3.1994639794
NI      2.4571610082     2.8356858422     3.2010636529
NI      3.6855610128     4.9629873334     3.1968787557
NI      4.9153478222     7.0927658597     3.1968856475
NI      6.1437656374     9.2204586284     3.1992282905
NI      3.6854495653     0.7079380682     3.2010777614
NI      4.9180293797     2.8388701829     3.2021611689
NI      6.1459521272     4.9628135866     3.2057553167
NI      7.3721225060     7.0870831507     3.2033032255
NI      8.5992988858     9.2184133942     3.2019890520
NI      6.1421142118     0.7088071278     3.1980529031
NI      7.3723968893     2.8400955491     3.2066580583
NI      8.5983951263     4.9626194614     3.2070900954
NI      9.8269962339     7.0917579247     3.2003020406
NI     11.0572167705     9.2198265936     3.2012827127
NI      8.6013045682     0.7088464995     3.1983809957
NI      9.8247375556     2.8389990631     3.2033879870
NI     11.0565142029     4.9636367733     3.2005630652
NI     12.2860305829     7.0919345612     3.2016221791
NI     13.5153775088     9.2204414407     3.2018236175
NI     11.0573990991     0.7081421169     3.2010439955
NI     12.2849500577     2.8362336547     3.2011891588
NI     13.5146665621     4.9642807823     3.2020204400
NI     14.7442562508     7.0918357381     3.2014937716
NI     15.9731707903     9.2201667589     3.2013911609
NI      2.4549808644     1.4157663374     5.2114458070
NI      3.6860302183     3.5440662557     5.2102711154
NI      4.9184320957     5.6775512420     5.2079304297
NI      6.1439897351     7.7941586188     5.2135562957
NI      7.3705010154     9.9274153889     5.2149358128
NI      4.9127408409     1.4167685666     5.2093256200
NI      6.1557137657     3.5523771293     5.2393995382
NI      7.3662535277     5.6574819736     5.2501561527
NI      8.5971321357     7.7976184433     5.2150128984
NI      9.8284778659     9.9281950836     5.2127297744
NI      7.3711635375     1.4151566880     5.2027597452
NI      8.5847794851     3.5539152612     5.2447352265
NI      9.8270459494     5.6736292078     5.2106920576
NI     11.0571380451     7.8009055050     5.2128643397
NI     12.2855599374     9.9295579987     5.2135835125
NI      9.8296702576     1.4184047925     5.2085722112
NI     11.0556544365     3.5429884755     5.2123330881
NI     12.2851395008     5.6720218171     5.2128262552
NI     13.5144642161     7.8012694546     5.2133325245
NI     14.7436150508     9.9300875159     5.2123978644
NI     12.2859380639     1.4172552102     5.2137335945
NI     13.5125131752     3.5434071172     5.2133127144
NI     14.7447483816     5.6722616108     5.2149204349
NI     15.9738116070     7.8007352801     5.2132383476
NI     17.2015238819     9.9277150317     5.2155719129
NI     -0.0008261145    -0.0013383622     7.2267143948
NI      1.2268385540     2.1243376060     7.2239164853
NI      2.4506195097     4.2525596976     7.2290516594
NI      3.6704122582     6.3827332805     7.2247522630
NI      4.9067830605     8.5223227462     7.2241903972
NI      2.4560958023    -0.0022706780     7.2232480163
NI      3.6830998354     2.1238185549     7.2232975369
NI      4.8877636571     4.2475197762     7.1938002598
NI      6.1323386699     6.3918283756     7.3080571235
NI      7.3757660526     8.5198290391     7.2221762906
NI      4.9117969235    -0.0068963864     7.2281477660
NI      6.1359571777     2.1063434249     7.2008956759
NI      7.3798603654     4.2373057617     7.4108468537
NI      8.6174566988     6.3876189519     7.2144501182
NI      9.8309774173     8.5115185199     7.2269242413
NI      7.3716454844    -0.0065056775     7.2270710984
NI      8.6051208394     2.1104124320     7.1993526425
NI      9.8408471158     4.2559848134     7.2108066779
NI     11.0593075307     6.3824256990     7.2278910560
NI     12.2860489666     8.5092522836     7.2222350162
NI      9.8291586275    -0.0042042850     7.2281716243
NI     11.0562300189     2.1251422845     7.2263393743
NI     12.2865364188     4.2526736196     7.2265258434
NI     13.5132326061     6.3819364275     7.2227253119
NI     14.7409774799     8.5106153156     7.2221516437
C       7.9091456799     3.7567892524    10.3107913101
C       7.3148369496     3.4457369281    11.6585599900
C       7.9436379495     4.3461750125    12.7550113933
C       8.0573800379     3.6290419064    14.1160895615
C       8.2594661093     4.6302836206    15.2692305204
C       8.5958081780     3.9556969317    16.6018131105
O       7.1462702502     4.0881966333     9.3972604763
O       5.9062816887     3.5672691832    11.6533909251
O       9.2350393395     4.7531798525    12.3010262936
O       6.8756604511     2.8676143846    14.3322811854
O       9.3661945893     5.4994194706    14.9363536799
O       7.4856337922     3.1335181271    17.0113317911
H       8.9819483782     3.6343450169    10.1392910519
H       7.6021739285     2.3930397811    11.8614314730
H       7.2575502308     5.2103947543    12.8502227753
H       8.9525064669     2.9739502294    14.0530541256
H       7.3235703220     5.2079082408    15.3671378550
H       9.5118306782     3.3557741436    16.4696747763
H       8.7970224142     4.7353721500    17.3578112532
H       5.6485711974     3.8124740926    10.7383589577
H       9.6381538262     5.2539259661    13.0385380758
H       6.8524257497     2.6249541106    15.2804964432
H       9.2708305608     6.3367664323    15.4184934066
H       7.7675881732     2.5684093363    17.7487800598
O       6.1277735189     6.4202600087     9.1833503178
H       6.1385780161     6.3916918607    10.1360464427
126
Step 3 | ATOMIC_POSITIONS (angstrom) | Cartesian Angstrom
NI      0.0000000000     0.0000000000     1.1900000730
NI      1.2286496050     2.1280835410     1.1900000730
NI      2.4572992100     4.2561670810     1.1900000730
NI      3.6859488150     6.3842506220     1.1900000730
NI      4.9145984200     8.5123341620     1.1900000730
NI      2.4572992100     0.0000000000     1.1900000730
NI      3.6859488150     2.1280835410     1.1900000730
NI      4.9145984200     4.2561670810     1.1900000730
NI      6.1432480250     6.3842506220     1.1900000730
NI      7.3718976300     8.5123341620     1.1900000730
NI      4.9145984200     0.0000000000     1.1900000730
NI      6.1432480250     2.1280835410     1.1900000730
NI      7.3718976300     4.2561670810     1.1900000730
NI      8.6005472350     6.3842506220     1.1900000730
NI      9.8291968400     8.5123341620     1.1900000730
NI      7.3718976300     0.0000000000     1.1900000730
NI      8.6005472350     2.1280835410     1.1900000730
NI      9.8291968400     4.2561670810     1.1900000730
NI     11.0578464450     6.3842506220     1.1900000730
NI     12.2864960500     8.5123341620     1.1900000730
NI      9.8291968400     0.0000000000     1.1900000730
NI     11.0578464450     2.1280835410     1.1900000730
NI     12.2864960500     4.2561670810     1.1900000730
NI     13.5151456550     6.3842506220     1.1900000730
NI     14.7437952600     8.5123341620     1.1900000730
NI      1.2288706607     0.7070000318     3.2006476344
NI      2.4575135131     2.8355113195     3.2021782071
NI      3.6849568329     4.9626054452     3.1962238230
NI      4.9152432607     7.0929088954     3.1959190198
NI      6.1437053964     9.2215028459     3.1983701737
NI      3.6853281249     0.7082518865     3.2017232130
NI      4.9178762397     2.8394705762     3.2024703717
NI      6.1455028688     4.9626460143     3.2048461094
NI      7.3718169529     7.0869862605     3.2029778337
NI      8.5986328757     9.2183471032     3.2023891676
NI      6.1421575014     0.7089884770     3.1984116149
NI      7.3724978802     2.8407766508     3.2075263582
NI      8.5992570644     4.9620746025     3.2070097502
NI      9.8267000077     7.0913873786     3.2007405239
NI     11.0570504184     9.2197291899     3.2017732491
NI      8.6015376100     0.7090042282     3.1987156582
NI      9.8247838640     2.8387925436     3.2034522874
NI     11.0567209084     4.9638562130     3.2012953821
NI     12.2859385753     7.0917810762     3.2021975545
NI     13.5155566274     9.2204943307     3.2023667145
NI     11.0570292522     0.7078546811     3.2022236354
NI     12.2849683409     2.8363153844     3.2008474496
NI     13.5147843726     4.9645382814     3.2032513824
NI     14.7446902588     7.0914953351     3.2019672800
NI     15.9738463060     9.2199269813     3.2017874008
NI      2.4551529048     1.4158946311     5.2110130721
NI      3.6875789110     3.5460110209     5.2113569339
NI      4.9259548977     5.6823833197     5.2160973863
NI      6.1435800062     7.7847726280     5.2217335468
NI      7.3697132215     9.9254465484     5.2161801093
NI      4.9131057077     1.4163501209     5.2083849099
NI      6.1552493986     3.5528670405     5.2390851036
NI      7.3585278778     5.6621610925     5.2583889488
NI      8.5958282729     7.7969332021     5.2149088098
NI      9.8287130211     9.9282157908     5.2119018523
NI      7.3710522409     1.4148728320     5.2023939635
NI      8.5848057528     3.5541895904     5.2455442097
NI      9.8253087103     5.6738766830     5.2118198814
NI     11.0571236984     7.8014575734     5.2123453826
NI     12.2853595431     9.9297203643     5.2143121240
NI      9.8291769359     1.4188255528     5.2083330214
NI     11.0559210071     3.5427902404     5.2117198899
NI     12.2850040087     5.6719963941     5.2121829770
NI     13.5142613292     7.8015815597     5.2128940875
NI     14.7432608722     9.9301875711     5.2113292200
NI     12.2856103397     1.4181623929     5.2130695744
NI     13.5117100314     3.5430228907     5.2127886065
NI     14.7464452411     5.6725505036     5.2163201401
NI     15.9752698430     7.8000396169     5.2135530066
NI     17.2020428900     9.9258865456     5.2173505119
NI     -0.0008105607     0.0003465332     7.2265440684
NI      1.2264932907     2.1243247381     7.2233013315
NI      2.4497076418     4.2518678537     7.2292254290
NI      3.6594411042     6.3819747472     7.2205833245
NI      4.9011305603     8.5320837187     7.2204599324
NI      2.4569359327    -0.0013373778     7.2241769452
NI      3.6827727945     2.1229774183     7.2231592694
NI      4.8833647309     4.2381440902     7.1905731192
NI      6.1335524561     6.3897746065     7.4140214526
NI      7.3815329282     8.5292473578     7.2187822520
NI      4.9118919861    -0.0068111851     7.2278045902
NI      6.1355717063     2.1053897997     7.2020630677
NI      7.3896146803     4.2220096106     7.4038970990
NI      8.6273280702     6.3864601864     7.2115691426
NI      9.8327017932     8.5125346548     7.2280061385
NI      7.3716797139    -0.0063556689     7.2260428616
NI      8.6055424566     2.1102472702     7.1988685376
NI      9.8413182672     4.2555255155     7.2116677392
NI     11.0601051622     6.3825480888     7.2277184283
NI     12.2859597095     8.5094452457     7.2217952140
NI      9.8275803793    -0.0030504571     7.2290126778
NI     11.0566213150     2.1250290293     7.2256551877
NI     12.2864564597     4.2523773271     7.2268989148
NI     13.5119748187     6.3821186867     7.2233315590
NI     14.7388952425     8.5120751806     7.2229867287
C       7.9038928313     3.7485299246    10.3062474394
C       7.3162551546     3.4461967299    11.6591811283
C       7.9438346501     4.3468142768    12.7561202219
C       8.0571653234     3.6290382078    14.1160772923
C       8.2597052610     4.6304989637    15.2691772702
C       8.5959503290     3.9555629809    16.6018746260
O       7.1562782493     4.0454436171     9.3967499036
O       5.9091283192     3.5713152244    11.6516135306
O       9.2349354163     4.7534083641    12.3007600488
O       6.8755870362     2.8678702087    14.3323800964
O       9.3662926295     5.4995873926    14.9361155043
O       7.4856915871     3.1335911894    17.0113256039
H       8.9931849889     3.6361632811    10.1408043568
H       7.6021737613     2.3919053954    11.8631220564
H       7.2587355519     5.2103073957    12.8510650407
H       8.9520765067     2.9746300940    14.0529360178
H       7.3241472547     5.2078100661    15.3670877873
H       9.5118689222     3.3558456194    16.4693220910
H       8.7976927121     4.7351594190    17.3579388641
H       5.6503014309     3.8125491171    10.7362291517
H       9.6383261300     5.2538203622    13.0390568716
H       6.8523513552     2.6248502057    15.2807655711
H       9.2704080408     6.3369108498    15.4183781196
H       7.7674219476     2.5684328970    17.7488368008
O       6.1073981144     6.4682914106     9.1243229963
H       6.1342235578     6.3971884314    10.0890404401
126
Step 4 | ATOMIC_POSITIONS (angstrom) | Cartesian Angstrom
NI      0.0000000000     0.0000000000     1.1900000730
NI      1.2286496050     2.1280835410     1.1900000730
NI      2.4572992100     4.2561670810     1.1900000730
NI      3.6859488150     6.3842506220     1.1900000730
NI      4.9145984200     8.5123341620     1.1900000730
NI      2.4572992100     0.0000000000     1.1900000730
NI      3.6859488150     2.1280835410     1.1900000730
NI      4.9145984200     4.2561670810     1.1900000730
NI      6.1432480250     6.3842506220     1.1900000730
NI      7.3718976300     8.5123341620     1.1900000730
NI      4.9145984200     0.0000000000     1.1900000730
NI      6.1432480250     2.1280835410     1.1900000730
NI      7.3718976300     4.2561670810     1.1900000730
NI      8.6005472350     6.3842506220     1.1900000730
NI      9.8291968400     8.5123341620     1.1900000730
NI      7.3718976300     0.0000000000     1.1900000730
NI      8.6005472350     2.1280835410     1.1900000730
NI      9.8291968400     4.2561670810     1.1900000730
NI     11.0578464450     6.3842506220     1.1900000730
NI     12.2864960500     8.5123341620     1.1900000730
NI      9.8291968400     0.0000000000     1.1900000730
NI     11.0578464450     2.1280835410     1.1900000730
NI     12.2864960500     4.2561670810     1.1900000730
NI     13.5151456550     6.3842506220     1.1900000730
NI     14.7437952600     8.5123341620     1.1900000730
NI      1.2286930860     0.7070736285     3.2000603062
NI      2.4573386006     2.8355979175     3.2016251666
NI      3.6852566262     4.9627949377     3.1965487998
NI      4.9152951440     7.0928379212     3.1963986593
NI      6.1437352879     9.2209847064     3.1987959702
NI      3.6853883835     0.7080961702     3.2014029407
NI      4.9179522276     2.8391726618     3.2023169457
NI      6.1457257903     4.9627291635     3.2052972570
NI      7.3719685680     7.0870343373     3.2031392927
NI      8.5989633491     9.2183799967     3.2021906307
NI      6.1421360212     0.7088984917     3.1982336225
NI      7.3724477686     2.8404386890     3.2070955089
NI      8.5988293717     4.9623449609     3.2070496174
NI      9.8268469948     7.0915712431     3.2005229490
NI     11.0571329621     9.2197775215     3.2015298455
NI      8.6014219749     0.7089259634     3.1985495991
NI      9.8247608858     2.8388950184     3.2034203816
NI     11.0566183414     4.9637473273     3.2009320073
NI     12.2859842294     7.0918572353     3.2019120539
NI     13.5154677489     9.2204680867     3.2020972304
NI     11.0572127698     0.7079973064     3.2016382995
NI     12.2849592688     2.8362748302     3.2010170053
NI     13.5147259152     4.9644105106     3.2026405903
NI     14.7444749046     7.0916642427     3.2017323257
NI     15.9735111159     9.2200459587     3.2015907871
NI      2.4550675386     1.4158309719     5.2112277947
NI      3.6868104516     3.5450460307     5.2108181520
NI      4.9222220923     5.6799856485     5.2120449521
NI      6.1437833132     7.7894299455     5.2176760046
NI      7.3701041239     9.9264234847     5.2155626909
NI      4.9129246612     1.4165577532     5.2088516891
NI      6.1554798170     3.5526239471     5.2392411257
NI      7.3623613361     5.6598393193     5.2543038451
NI      8.5964752481     7.7972732179     5.2149604584
NI      9.8285963373     9.9282055159     5.2123126663
NI      7.3711074661     1.4150136810     5.2025754639
NI      8.5847927188     3.5540534686     5.2451427932
NI      9.8261707262     5.6737538861     5.2112602565
NI     11.0571308172     7.8011836377     5.2126028885
NI     12.2854589785     9.9296397987     5.2139505878
NI      9.8294217216     1.4186167721     5.2084517071
NI     11.0557887351     3.5428886044     5.2120241581
NI     12.2850712397     5.6720090090     5.2125021709
NI     13.5143620014     7.8014266935     5.2131116394
NI     14.7434366152     9.9301379239     5.2118594801
NI     12.2857729561     1.4177122499     5.2133990604
NI     13.5121085504     3.5432135434     5.2130486682
NI     14.7456032614     5.6724071553     5.2156256080
NI     15.9745462681     7.8003848041     5.2133968732
NI     17.2017853588     9.9267938382     5.2164679732
NI     -0.0008182785    -0.0004895099     7.2266285841
NI      1.2266646099     2.1243311232     7.2236065701
NI      2.4501601096     4.2522111458     7.2291392047
NI      3.6648849777     6.3823511305     7.2226519468
NI      4.9039353242     8.5272403358     7.2223109846
NI      2.4565190610    -0.0018004802     7.2237160118
NI      3.6829350718     2.1233947893     7.2232278775
NI      4.8855474729     4.2427962944     7.1921744225
NI      6.1329501768     6.3907936843     7.3614420787
NI      7.3786714114     8.5245739993     7.2204663699
NI      4.9118448161    -0.0068534619     7.2279748736
NI      6.1357629767     2.1058629874     7.2014838093
NI      7.3847746008     4.2295995426     7.4073455590
NI      8.6224299074     6.3870351645     7.2129986793
NI      9.8318461600     8.5120304499     7.2274693024
NI      7.3716627293    -0.0064301030     7.2265530715
NI      8.6053332506     2.1103292233     7.1991087499
NI      9.8410844824     4.2557534186     7.2112404816
NI     11.0597093784     6.3824873591     7.2278040859
NI     12.2860039988     8.5093494981     7.2220134433
NI      9.8283635041    -0.0036229851     7.2285953480
NI     11.0564271543     2.1250852264     7.2259946803
NI     12.2864961353     4.2525243471     7.2267137972
NI     13.5125989313     6.3820282499     7.2230307399
NI     14.7399284462     8.5113507974     7.2225723605
C       7.9064992885     3.7526281932    10.3085021026
C       7.3155514429     3.4459685768    11.6588729202
C       7.9437370475     4.3464970746    12.7555700224
C       8.0572718645     3.6290400431    14.1160833802
C       8.2595865942     4.6303921107    15.2692036929
C       8.5958797939     3.9556294471    16.6018441021
O       7.1513122921     4.0666576128     9.3970032492
O       5.9077158245     3.5693075836    11.6524954716
O       9.2349869829     4.7532949769    12.3008921591
O       6.8756234646     2.8677432691    14.3323310169
O       9.3662439821     5.4995040699    14.9362336867
O       7.4856629093     3.1335549360    17.0113286740
H       8.9876093961     3.6352610606    10.1400534567
H       7.6021738443     2.3924682762    11.8622831909
H       7.2581473970     5.2103507429    12.8506471097
H       8.9522898525     2.9742927460    14.0529946228
H       7.3238609814     5.2078587803    15.3671126308
H       9.5118499456     3.3558101532    16.4694970930
H       8.7973601111     4.7352649758    17.3578755437
H       5.6494428911     3.8125118901    10.7372859589
H       9.6382406331     5.2538727627    13.0387994457
H       6.8523882697     2.6249017632    15.2806320301
H       9.2706176947     6.3368391900    15.4184353249
H       7.7675044285     2.5684212062    17.7488086460
O       6.1175083659     6.4444582862     9.1536122829
H       6.1363842348     6.3944610396    10.1123647626
126
Step 5 | ATOMIC_POSITIONS (angstrom) | Cartesian Angstrom
NI      0.0000000000     0.0000000000     1.1900000730
NI      1.2286496050     2.1280835410     1.1900000730
NI      2.4572992100     4.2561670810     1.1900000730
NI      3.6859488150     6.3842506220     1.1900000730
NI      4.9145984200     8.5123341620     1.1900000730
NI      2.4572992100     0.0000000000     1.1900000730
NI      3.6859488150     2.1280835410     1.1900000730
NI      4.9145984200     4.2561670810     1.1900000730
NI      6.1432480250     6.3842506220     1.1900000730
NI      7.3718976300     8.5123341620     1.1900000730
NI      4.9145984200     0.0000000000     1.1900000730
NI      6.1432480250     2.1280835410     1.1900000730
NI      7.3718976300     4.2561670810     1.1900000730
NI      8.6005472350     6.3842506220     1.1900000730
NI      9.8291968400     8.5123341620     1.1900000730
NI      7.3718976300     0.0000000000     1.1900000730
NI      8.6005472350     2.1280835410     1.1900000730
NI      9.8291968400     4.2561670810     1.1900000730
NI     11.0578464450     6.3842506220     1.1900000730
NI     12.2864960500     8.5123341620     1.1900000730
NI      9.8291968400     0.0000000000     1.1900000730
NI     11.0578464450     2.1280835410     1.1900000730
NI     12.2864960500     4.2561670810     1.1900000730
NI     13.5151456550     6.3842506220     1.1900000730
NI     14.7437952600     8.5123341620     1.1900000730
NI      1.2287641310     0.7070087929     3.2004620670
NI      2.4574391413     2.8355894132     3.2020271278
NI      3.6852304172     4.9628106031     3.1968465513
NI      4.9154124667     7.0927698890     3.1965311236
NI      6.1437451726     9.2210898245     3.1989935969
NI      3.6852875489     0.7082089878     3.2015789644
NI      4.9178652109     2.8394246424     3.2025211152
NI      6.1455818427     4.9628452609     3.2054557548
NI      7.3717352863     7.0868712637     3.2034983768
NI      8.5986430102     9.2183406333     3.2023649921