
     Program NEB v.7.5 starts on 20Jul2026 at 13:12: 1 

     This program is part of the open-source Quantum ESPRESSO suite
     for quantum simulation of materials; please cite
         "P. Giannozzi et al., J. Phys.:Condens. Matter 21 395502 (2009);
         "P. Giannozzi et al., J. Phys.:Condens. Matter 29 465901 (2017);
         "P. Giannozzi et al., J. Chem. Phys. 152 154105 (2020);
          URL http://www.quantum-espresso.org", 
     in publications or presentations arising from this work. More details at
     http://www.quantum-espresso.org/quote

     Parallel version (MPI), running on    35 processors

     MPI processes distributed on     1 nodes
     214620 MiB available memory on the printing compute node when the environment starts
 

     Parsing file: input.neb.x
     Reading input from pw_1.in
     file Ni.pbe-n-rrkjus_psl.1.0.0.UPF: wavefunction(s)  3D renormalized
     file Cu.pbe-dn-rrkjus_psl.1.0.0.UPF: wavefunction(s)  3D renormalized
     Reading input from pw_2.in
     file Ni.pbe-n-rrkjus_psl.1.0.0.UPF: wavefunction(s)  3D renormalized
     file Cu.pbe-dn-rrkjus_psl.1.0.0.UPF: wavefunction(s)  3D renormalized
     Reading input from pw_3.in
     file Ni.pbe-n-rrkjus_psl.1.0.0.UPF: wavefunction(s)  3D renormalized
     file Cu.pbe-dn-rrkjus_psl.1.0.0.UPF: wavefunction(s)  3D renormalized
     Reading input from pw_4.in
     file Ni.pbe-n-rrkjus_psl.1.0.0.UPF: wavefunction(s)  3D renormalized
     file Cu.pbe-dn-rrkjus_psl.1.0.0.UPF: wavefunction(s)  3D renormalized
     Reading input from pw_5.in
     file Ni.pbe-n-rrkjus_psl.1.0.0.UPF: wavefunction(s)  3D renormalized
     file Cu.pbe-dn-rrkjus_psl.1.0.0.UPF: wavefunction(s)  3D renormalized

     reading file 'NiCu111_4x4_neb.path'

 
     string_method                 =    neb
     restart_mode                  =    restart
     opt_scheme                    =    broyden
     num_of_images                 =    5
     nstep_path                    =    300
     CI_scheme                     =    auto
     first_last_opt                =    F
     use_freezing                  =    F
     ds                            =    2.0000 a.u.
     k_max                         =    0.1542 a.u.
     k_min                         =    0.1028 a.u.
     suggested k_max               =    0.1542 a.u.
     suggested k_min               =    0.1028 a.u.
     path_thr                      =    0.0500 eV / A

     ------------------------------ iteration 146 ------------------------------

     tcpu =      1.3    self-consistency for image   2
     tcpu =    521.1    self-consistency for image   3
     tcpu =   1027.6    self-consistency for image   4

     activation energy (->) =   0.370388 eV
     activation energy (<-) =   0.901380 eV

     image        energy (eV)        error (eV/A)        frozen

         1     -99645.4059646            0.043239            T
         2     -99645.3433063            0.148815            F
         3     -99645.0355766            0.063842            F
         4     -99645.7477742            0.035166            F
         5     -99645.9369563            0.054543            T

     climbing image =  3

     path length          = 28.817 bohr
     inter-image distance =  7.204 bohr

     ------------------------------ iteration 147 ------------------------------

     tcpu =   1533.0    self-consistency for image   2
     tcpu =   1691.0    self-consistency for image   3
     tcpu =   1837.5    self-consistency for image   4

     activation energy (->) =   0.369256 eV
     activation energy (<-) =   0.900248 eV

     image        energy (eV)        error (eV/A)        frozen

         1     -99645.4059646            0.043239            T
         2     -99645.3430355            0.251839            F
         3     -99645.0367085            0.102733            F
         4     -99645.7478616            0.063689            F
         5     -99645.9369563            0.054543            T

     climbing image =  3

     path length          = 28.829 bohr
     inter-image distance =  7.207 bohr

     ------------------------------ iteration 148 ------------------------------

     tcpu =   1948.2    self-consistency for image   2
     tcpu =   2158.8    self-consistency for image   3
     tcpu =   2447.9    self-consistency for image   4

     activation energy (->) =   0.361483 eV
     activation energy (<-) =   0.892474 eV

     image        energy (eV)        error (eV/A)        frozen

         1     -99645.4059646            0.043239            T
         2     -99645.2137853            3.009224            F
         3     -99645.0444819            0.389637            F
         4     -99645.7361885            0.672933            F
         5     -99645.9369563            0.054543            T

     climbing image =  3

     path length          = 29.003 bohr
     inter-image distance =  7.251 bohr

     ------------------------------ iteration 149 ------------------------------

     tcpu =   2666.8    self-consistency for image   2
     tcpu =   2966.6    self-consistency for image   3
     tcpu =   3351.3    self-consistency for image   4

     activation energy (->) =   0.387730 eV
     activation energy (<-) =   0.918721 eV

     image        energy (eV)        error (eV/A)        frozen

         1     -99645.4059646            0.043239            T
         2     -99645.1835371            3.021989            F
         3     -99645.0182349            2.396281            F
         4     -99645.7342875            0.755364            F
         5     -99645.9369563            0.054543            T

     climbing image =  3

     path length          = 29.442 bohr
     inter-image distance =  7.361 bohr

     ------------------------------ iteration 150 ------------------------------

     tcpu =   3618.4    self-consistency for image   2
     tcpu =   3888.7    self-consistency for image   3
     tcpu =   4304.6    self-consistency for image   4

     activation energy (->) =   0.357885 eV
     activation energy (<-) =   0.888876 eV

     image        energy (eV)        error (eV/A)        frozen

         1     -99645.4059646            0.043239            T
         2     -99645.3280548            1.131217            F
         3     -99645.0480799            0.302878            F
         4     -99645.7504920            0.225658            F
         5     -99645.9369563            0.054543            T

     climbing image =  3

     path length          = 29.018 bohr
     inter-image distance =  7.254 bohr

     ------------------------------ iteration 151 ------------------------------

     tcpu =   4556.8    self-consistency for image   2
     tcpu =   4773.0    self-consistency for image   3
     tcpu =   5022.6    self-consistency for image   4
