80
Step 1 | NEB Image 1 | Cartesian Angstrom
Ni      1.2286497034     0.7093615225    11.2499999440
Ni      2.4572989609     2.8374461750    11.2499999440
Ni      3.6859482184     4.9655308275    11.2499999440
Ni      4.9145974759     7.0936154800    11.2499999440
Ni      3.6859497034     0.7093615225    11.2499999440
Ni      4.9145989609     2.8374461750    11.2499999440
Ni      6.1432482184     4.9655308275    11.2499999440
Ni      7.3718974759     7.0936154800    11.2499999440
Ni      6.1432497034     0.7093615225    11.2499999440
Ni      7.3718989609     2.8374461750    11.2499999440
Ni      8.6005482184     4.9655308275    11.2499999440
Ni      9.8291974759     7.0936154800    11.2499999440
Ni      8.6005497034     0.7093615225    11.2499999440
Ni      9.8291989609     2.8374461750    11.2499999440
Ni     11.0578482184     4.9655308275    11.2499999440
Ni     12.2864974759     7.0936154800    11.2499999440
Ni     14.7391156794     8.5053429999    13.3011712910
Ni     11.0531329642     2.1206495503    13.3008022026
Ni     12.2817169557     4.2489790177    13.3006008466
Ni     13.5101985270     6.3773433856    13.3009432678
Ni      7.3672569131     8.5047181091    13.3011774747
Ni      3.6813641840     2.1207833643    13.3007249066
Ni      4.9098915592     4.2493198517    13.3009123494
Ni      6.1382080000     6.3774560890    13.3011137055
Ni      9.8241033938     8.5046823573    13.3010831736
Ni      6.1383369699     2.1207818321    13.3007716707
Ni      7.3668809566     4.2490234521    13.3008056810
Ni      8.5953896076     6.3767159412    13.3009509974
Ni     12.2816608204     8.5051500252    13.3006066438
Ni      8.5958457422     2.1206092019    13.3010364095
Ni      9.8244550440     4.2487038138    13.3007276120
Ni     11.0528529688     6.3769410074    13.3006611374
Cu      2.4478274055     1.4024593708    15.3768195742
Cu      3.6763308468     3.5307009057    15.3768060474
Cu      4.9041378398     5.6597275336    15.3773448005
Cu      6.1330260451     7.7878910103    15.3784795057
Cu      4.9046987540     1.4026027186    15.3777977550
Cu      6.1325026510     3.5313493756    15.3777258697
Cu      7.3610720952     5.6598451741    15.3779276123
Cu      8.5906751295     7.7868954923    15.3785351588
Cu      7.3621786280     1.4037477983    15.3762151195
Cu      8.5904727564     3.5321453644    15.3780682910
Cu      9.8190628915     5.6596863338    15.3769316534
Cu     11.0489115080     7.7874997832    15.3777154348
Cu      9.8196453802     1.4041813317    15.3774700200
Cu     11.0479045662     3.5315147704    15.3771971651
Cu     12.2765483193     5.6595852924    15.3771299176
Cu     13.5054403579     7.7883030926    15.3772814178
Cu      1.2140125591     0.6836803076    17.5697065574
Cu      2.4431555374     2.8116125893    17.5665702724
Cu      3.6705110760     4.9384343512    17.5687388115
Cu      4.8988742539     7.0688538531    17.5715929661
Cu      3.6716454744     0.6829118137    17.5713989532
Cu      4.8981418913     2.8112417067    17.5722074693
Cu      6.1274353048     4.9410331682    17.5708265763
Cu      7.3554752500     7.0698228126    17.5713297733
Cu      6.1297077779     0.6833063606    17.5689100221
Cu      7.3567237656     2.8135682139    17.5698797004
Cu      8.5851063076     4.9421568820    17.5702368079
Cu      9.8152975701     7.0699596058    17.5700617325
Cu      8.5865082080     0.6855771971    17.5667967496
Cu      9.8144914881     2.8135456562    17.5749499312
Cu     11.0427692018     4.9416447797    17.5690866435
Cu     12.2728600100     7.0692517198    17.5719744219
O       7.2288202015     4.2734569284    22.3446828621
O       8.3044696405     5.3171068409    20.0014702420
O       8.8891638945     4.8479579810    24.7349733808
C       8.5251333110     4.9000290628    22.3715153937
C       9.1804211035     4.7744357207    20.9993344800
C       9.4189460410     4.3898719266    23.4895992517
H       8.3072385962     5.9614198807    22.5605187870
H       9.4153356173     3.7172718747    20.7683620669
H      10.1139922737     5.3503076003    20.9408546493
H      10.4461642949     4.7683945991    23.3275539960
H       9.4595638267     3.2836247445    23.4537018323
H       7.3561498138     3.3073831923    22.3295378714
H       7.4071380143     4.9636379387    20.1831718691
H       9.4432595602     4.5017937719    25.4528614775
O       2.4447775074     1.3898406800    19.0162048647
H       2.5328987835     1.2730973609    19.9764139723
80
Step 2 | NEB Image 2 | Cartesian Angstrom
Ni      1.2286107303     0.7093338276    11.2499223416
Ni      2.4572415876     2.8374300010    11.2498414785
Ni      3.6858883989     4.9655542017    11.2497783212
Ni      4.9145562695     7.0936811590    11.2497806979
Ni      3.6859142492     0.7093101031    11.2498582926
Ni      4.9145638392     2.8374139529    11.2497508251
Ni      6.1432319408     4.9655534172    11.2496983501
Ni      7.3719062833     7.0936852728    11.2497445862
Ni      6.1432408022     0.7092914743    11.2498080062
Ni      7.3719142342     2.8374054565    11.2497151386
Ni      8.6005912986     4.9655485757    11.2497069760
Ni      9.8292500129     7.0936711799    11.2497861889
Ni      8.6005788235     0.7092905885    11.2498050926
Ni      9.8292595485     2.8374109485    11.2497600781
Ni     11.0579223696     4.9655428035    11.2497912399
Ni     12.2865601656     7.0936504362    11.2498644386
Ni     14.7391914541     8.5053866713    13.3010794391
Ni     11.0533183491     2.1205365092    13.3003825555
Ni     12.2819133057     4.2489716539    13.3002542579
Ni     13.5103360601     6.3773885030    13.3007448652
Ni      7.3672697308     8.5049550745    13.3007199421
Ni      3.6812468389     2.1206696376    13.3002319350
Ni      4.9097663798     4.2493426565    13.3001328215
Ni      6.1381494146     6.3776630190    13.3003691573
Ni      9.8242074109     8.5048625994    13.3007173846
Ni      6.1383172228     2.1206011717    13.3000933309
Ni      7.3669402832     4.2490158247    13.2999045982
Ni      8.5955081464     6.3768920233    13.3002429728
Ni     12.2817734116     8.5052482837    13.3004015480
Ni      8.5959706224     2.1204314444    13.3003914548
Ni      9.8246622342     4.2486884583    13.3000511723
Ni     11.0530392887     6.3770428536    13.3002238977
Cu      2.4475088419     1.4020667839    15.3758035972
Cu      3.6757838585     3.5308027164    15.3744533385
Cu      4.9033749754     5.6605498355    15.3746641934
Cu      6.1327915410     7.7888062275    15.3769827594
Cu      4.9045467831     1.4018298798    15.3761967492
Cu      6.1324159652     3.5309097220    15.3742465710
Cu      7.3612580117     5.6606368910    15.3745570664
Cu      8.5909361381     7.7876921669    15.3770984327
Cu      7.3623857181     1.4028220777    15.3743963683
Cu      8.5911450361     3.5316512487    15.3751601248
Cu      9.8198851024     5.6601149812    15.3747795830
Cu     11.0493105264     7.7878940000    15.3769502706
Cu      9.8201458395     1.4035651310    15.3762029270
Cu     11.0486451805     3.5313094089    15.3758717134
Cu     12.2770680166     5.6597187023    15.3764012123
Cu     13.5056754391     7.7884388540    15.3770109577
Cu      1.2130809269     0.6828284759    17.5688488854
Cu      2.4398775122     2.8218901046    17.5448129901
Cu      3.6639953897     4.9425796068    17.5591553123
Cu      4.8962763642     7.0734895187    17.5665326717
Cu      3.6723490092     0.6801005415    17.5683638355
Cu      4.8945811926     2.8042766076    17.5522024584
Cu      6.1245825528     4.9497634739    17.5351126656
Cu      7.3551022922     7.0763424422    17.5627241392
Cu      6.1297833395     0.6796972700    17.5653769363
Cu      7.3610209454     2.8062351608    17.5526281712
Cu      8.5930159398     4.9440212595    17.5417844668
Cu      9.8174472810     7.0730491304    17.5650955550
Cu      8.5878281371     0.6824276737    17.5632653017
Cu      9.8185001914     2.8103519801    17.5675509109
Cu     11.0462426529     4.9418853890    17.5645290384
Cu     12.2739019655     7.0698587758    17.5708995252
O       6.4944260862     3.7235142131    21.9039437993
O       7.8887049450     5.2008617634    20.0137049137
O       7.3999780169     4.1937944206    24.6566160527
C       7.6213390353     4.5197622921    22.3115585573
C       8.5928163530     4.6659472121    21.1414467737
C       8.2988216498     4.0135280338    23.5742911391
H       7.1873888386     5.5116547997    22.5285612229
H       9.0362037846     3.6802883099    20.8803117768
H       9.4048190072     5.3588947953    21.3676542752
H       9.2355160675     4.5817652840    23.7210494939
H       8.5721992352     2.9451197404    23.4407497588
H       6.7934626445     2.8063067650    21.7859785249
H       7.0356167629     4.7267401600    19.9639565644
H       7.8584548416     3.8916598946    25.4959005973
O       2.4482704089     1.4154637166    18.9845231225
H       2.5382114187     1.4069490208    19.9645773308
80
Step 3 | NEB Image 3 | Cartesian Angstrom
Ni      1.2285995216     0.7093240121    11.2498964013
Ni      2.4572265116     2.8374247304    11.2497834184
Ni      3.6858798962     4.9655662785    11.2497015709
Ni      4.9145570328     7.0937052248    11.2497169631
Ni      3.6859073726     0.7092931796    11.2498086608
Ni      4.9145648410     2.8374076058    11.2496671530
Ni      6.1432437693     4.9655666871    11.2496131084
Ni      7.3719215957     7.0937075685    11.2496838011
Ni      6.1432482094     0.7092727047    11.2497471954
Ni      7.3719336787     2.8374003699    11.2496367090
Ni      8.6006160041     4.9655587289    11.2496392915
Ni      9.8292717242     7.0936869684    11.2497437895
Ni      8.6005972676     0.7092755754    11.2497538034
Ni      9.8292860167     2.8374075258    11.2497058650
Ni     11.0579480873     4.9655491331    11.2497510894
Ni     12.2865786051     7.0936592032    11.2498423231
Ni     14.7392072213     8.5053940429    13.3010706867
Ni     11.0533838601     2.1205234081    13.3002992406
Ni     12.2819691458     4.2489785474    13.3002011644
Ni     13.5103684199     6.3773992801    13.3007221199
Ni      7.3673006864     8.5050195694    13.3006197490
Ni      3.6812115387     2.1206218144    13.3000290594
Ni      4.9097796257     4.2493770815    13.2998514534
Ni      6.1381843868     6.3777395835    13.3001738298
Ni      9.8242491480     8.5049047116    13.3006540938
Ni      6.1383594277     2.1205601772    13.2998576623
Ni      7.3670109152     4.2490422571    13.2996726104
Ni      8.5955717440     6.3769478735    13.3000929568
Ni     12.2818037066     8.5052673408    13.3003755709
Ni      8.5960444760     2.1204042102    13.3002264308
Ni      9.8247457644     4.2487007062    13.2999102606
Ni     11.0530997781     6.3770713193    13.3001521808
Cu      2.4473308458     1.4018565638    15.3756013770
Cu      3.6754878181     3.5308409468    15.3731549781
Cu      4.9034861869     5.6609596577    15.3737811369
Cu      6.1328633026     7.7890669964    15.3766371569
Cu      4.9045262967     1.4013926695    15.3753336391
Cu      6.1328087992     3.5310460366    15.3730739484
Cu      7.3614478393     5.6609170977    15.3738525799
Cu      8.5910861717     7.7878916554    15.3768409883
Cu      7.3626361620     1.4026231612    15.3738105907
Cu      8.5914782762     3.5316197011    15.3744795385
Cu      9.8202182786     5.6602767323    15.3743521622
Cu     11.0494269376     7.7879690160    15.3768707980
Cu      9.8203696788     1.4034695979    15.3759133885
Cu     11.0488871866     3.5313131008    15.3756687716
Cu     12.2771912005     5.6597543045    15.3763445153
Cu     13.5057194129     7.7884574281    15.3769995508
Cu      1.2138432194     0.6834358325    17.5698549079
Cu      2.4372999905     2.8186039549    17.5395807909
Cu      3.6598779720     4.9472665598    17.5500461645
Cu      4.8965932986     7.0751983723    17.5650347905
Cu      3.6706132369     0.6799110896    17.5688747635
Cu      4.8937444581     2.7982042932    17.5312952776
Cu      6.1304965604     4.9536907018    17.5345892427
Cu      7.3556765822     7.0778380943    17.5612514941
Cu      6.1304472029     0.6777320983    17.5630959859
Cu      7.3638450890     2.8072264831    17.5493983689
Cu      8.5984521414     4.9465022074    17.5321879084
Cu      9.8182510507     7.0735467355    17.5648138215
Cu      8.5888145116     0.6816001383    17.5619753498
Cu      9.8202034221     2.8100201697    17.5662849603
Cu     11.0470245008     4.9420994163    17.5646288413
Cu     12.2740392268     7.0698883969    17.5709768073
O       5.7930060756     3.3049456459    21.8346675518
O       7.2221990932     4.3074728318    19.8415349476
O       6.3686903296     4.2233668651    24.5345357327
C       6.8026912562     4.2641576886    22.2017244848
C       7.8792746182     4.3010915253    21.1138023816
C       7.3894728708     4.0073503560    23.5773660672
H       6.2679049905     5.2260228447    22.2085461131
H       8.5512808484     3.4231183377    21.1837727603
H       8.4904982034     5.2093372880    21.1725110520
H       8.2497553800     4.6874875224    23.7266891281
H       7.7782627636     2.9685894254    23.6113374182
H       6.1581800660     2.4059472791    21.9630922468
H       6.4058286055     3.7657060701    19.9563824628
H       6.7484540869     4.0093996461    25.4491609986
O       3.6111480954     2.0850421817    19.0157139030
H       3.2612544807     1.9687368515    19.8888710507
80
Step 4 | NEB Image 4 | Cartesian Angstrom
Ni      1.2286024432     0.7093263411    11.2499014790
Ni      2.4572308477     2.8374264064    11.2497952602
Ni      3.6858838081     4.9655645887    11.2497181910
Ni      4.9145591310     7.0937004985    11.2497320240
Ni      3.6859098930     0.7092971997    11.2498182060
Ni      4.9145667738     2.8374101805    11.2496846809
Ni      6.1432438951     4.9655651037    11.2496331025
Ni      7.3719203559     7.0937031131    11.2496995510
Ni      6.1432484948     0.7092775126    11.2497593144
Ni      7.3719320466     2.8374030447    11.2496543975
Ni      8.6006128066     4.9655576835    11.2496565882
Ni      9.8292682937     7.0936837389    11.2497559886
Ni      8.6005953004     0.7092798475    11.2497650549
Ni      9.8292822127     2.8374096011    11.2497194615
Ni     11.0579436517     4.9655484989    11.2497626788
Ni     12.2865749584     7.0936572985    11.2498497117
Ni     14.7392031028     8.5053917882    13.3010753687
Ni     11.0533734314     2.1205296451    13.3003222087
Ni     12.2819581096     4.2489789584    13.3002198223
Ni     13.5103608016     6.3773968914    13.3007325218
Ni      7.3672985920     8.5050047951    13.3006472699
Ni      3.6812214541     2.1206331541    13.3000669453
Ni      4.9097859478     4.2493751113    13.2999116892
Ni      6.1381848757     6.3777248162    13.3002233164
Ni      9.8242425046     8.5048943630    13.3006747556
Ni      6.1383585116     2.1205736496    13.2999040511
Ni      7.3670039779     4.2490424431    13.2997288072
Ni      8.5955633136     6.3769373353    13.3001344468
Ni     12.2817971978     8.5052620134    13.3003865529
Ni      8.5960361428     2.1204147720    13.3002633979
Ni      9.8247331888     4.2487018327    13.2999483179
Ni     11.0530887007     6.3770656707    13.3001763378
Cu      2.4473622344     1.4018982829    15.3756524228
Cu      3.6755520404     3.5308439245    15.3733836733
Cu      4.9035214213     5.6608833753    15.3740007383
Cu      6.1328703069     7.7890055714    15.3767312367
Cu      4.9045446801     1.4014737034    15.3754635939
Cu      6.1327835444     3.5310717629    15.3733379946
Cu      7.3614259232     5.6608661783    15.3740555423
Cu      8.5910685006     7.7878446481    15.3769240628
Cu      7.3626181373     1.4026803053    15.3739164289
Cu      8.5914394804     3.5316510765    15.3746413913
Cu      9.8201670609     5.6602517330    15.3744779563
Cu     11.0494028491     7.7879470376    15.3769128320
Cu      9.8203429778     1.4035032741    15.3759835657
Cu     11.0488450935     3.5313244157    15.3757417723
Cu     12.2771616646     5.6597470181    15.3763827729
Cu     13.5057065103     7.7884504162    15.3770130497
Cu      1.2137540203     0.6833832438    17.5697079254
Cu      2.4376037648     2.8181423071    17.5414127665
Cu      3.6609800524     4.9467527193    17.5514726329
Cu      4.8966970633     7.0747874967    17.5654091204
Cu      3.6707586246     0.6799723586    17.5687860848
Cu      4.8947766292     2.7997167089    17.5340919791
Cu      6.1295172045     4.9526400379    17.5366662686
Cu      7.3557040452     7.0774657789    17.5617406816
Cu      6.1304622754     0.6780028365    17.5632863527
Cu      7.3634271959     2.8074927305    17.5501223831
Cu      8.5980403174     4.9465080919    17.5342292189
Cu      9.8181041444     7.0733633495    17.5651033172
Cu      8.5887643730     0.6817671504    17.5621837956
Cu      9.8199856449     2.8102002577    17.5667278109
Cu     11.0468123586     4.9420800121    17.5648615910
Cu     12.2739810995     7.0698584496    17.5710256748
O       6.0492562025     2.8797077911    21.1435994394
O       7.4225432718     4.2502063732    19.0787822822
O       6.1879276111     4.2075644670    23.7744456001
C       6.7551818681     4.1076545497    21.4424768257
C       7.8806352056     4.3478595449    20.4375681930
C       7.2888539532     4.0526804970    22.8722412379
H       6.0183844612     4.9292946374    21.3828524310
H       8.6811819020     3.5996506260    20.5933078157
H       8.3160060334     5.3437026041    20.6122664260
H       8.0332374052     4.8582648904    23.0220340415
H       7.7929434477     3.0815406707    23.0224295029
H       6.5101204353     2.4453239639    20.3912207300
H       4.5124438784     2.9480711960    20.4235575582
H       6.5025283359     4.0440815987    24.6779919338
O       3.6363120455     2.8691053908    19.9414734249
H       3.3425410377     1.9508009740    20.0945098630
80
Step 5 | NEB Image 5 | Cartesian Angstrom
Ni      1.2286497034     0.7093615225    11.2499999440
Ni      2.4572989609     2.8374461750    11.2499999440
Ni      3.6859482184     4.9655308275    11.2499999440
Ni      4.9145974759     7.0936154800    11.2499999440
Ni      3.6859497034     0.7093615225    11.2499999440
Ni      4.9145989609     2.8374461750    11.2499999440
Ni      6.1432482184     4.9655308275    11.2499999440
Ni      7.3718974759     7.0936154800    11.2499999440
Ni      6.1432497034     0.7093615225    11.2499999440
Ni      7.3718989609     2.8374461750    11.2499999440
Ni      8.6005482184     4.9655308275    11.2499999440
Ni      9.8291974759     7.0936154800    11.2499999440
Ni      8.6005497034     0.7093615225    11.2499999440
Ni      9.8291989609     2.8374461750    11.2499999440
Ni     11.0578482184     4.9655308275    11.2499999440
Ni     12.2864974759     7.0936154800    11.2499999440
Ni     14.7391156794     8.5053429999    13.3011712910
Ni     11.0531329642     2.1206495503    13.3008022026
Ni     12.2817169557     4.2489790177    13.3006008466
Ni     13.5101985270     6.3773433856    13.3009432678
Ni      7.3672569131     8.5047181091    13.3011774747
Ni      3.6813641840     2.1207833643    13.3007249066
Ni      4.9098915592     4.2493198517    13.3009123494
Ni      6.1382080000     6.3774560890    13.3011137055
Ni      9.8241033938     8.5046823573    13.3010831736
Ni      6.1383369699     2.1207818321    13.3007716707
Ni      7.3668809566     4.2490234521    13.3008056810
Ni      8.5953896076     6.3767159412    13.3009509974
Ni     12.2816608204     8.5051500252    13.3006066438
Ni      8.5958457422     2.1206092019    13.3010364095
Ni      9.8244550440     4.2487038138    13.3007276120
Ni     11.0528529688     6.3769410074    13.3006611374
Cu      2.4478274055     1.4024593708    15.3768195742
Cu      3.6763308468     3.5307009057    15.3768060474
Cu      4.9041378398     5.6597275336    15.3773448005
Cu      6.1330260451     7.7878910103    15.3784795057
Cu      4.9046987540     1.4026027186    15.3777977550
Cu      6.1325026510     3.5313493756    15.3777258697
Cu      7.3610720952     5.6598451741    15.3779276123
Cu      8.5906751295     7.7868954923    15.3785351588
Cu      7.3621786280     1.4037477983    15.3762151195
Cu      8.5904727564     3.5321453644    15.3780682910
Cu      9.8190628915     5.6596863338    15.3769316534
Cu     11.0489115080     7.7874997832    15.3777154348
Cu      9.8196453802     1.4041813317    15.3774700200
Cu     11.0479045662     3.5315147704    15.3771971651
Cu     12.2765483193     5.6595852924    15.3771299176
Cu     13.5054403579     7.7883030926    15.3772814178
Cu      1.2140125591     0.6836803076    17.5697065574
Cu      2.4431555374     2.8116125893    17.5665702724
Cu      3.6705110760     4.9384343512    17.5687388115
Cu      4.8988742539     7.0688538531    17.5715929661
Cu      3.6716454744     0.6829118137    17.5713989532
Cu      4.8981418913     2.8112417067    17.5722074693
Cu      6.1274353048     4.9410331682    17.5708265763
Cu      7.3554752500     7.0698228126    17.5713297733
Cu      6.1297077779     0.6833063606    17.5689100221
Cu      7.3567237656     2.8135682139    17.5698797004
Cu      8.5851063076     4.9421568820    17.5702368079
Cu      9.8152975701     7.0699596058    17.5700617325
Cu      8.5865082080     0.6855771971    17.5667967496
Cu      9.8144914881     2.8135456562    17.5749499312
Cu     11.0427692018     4.9416447797    17.5690866435
Cu     12.2728600100     7.0692517198    17.5719744219
O       5.4816243728     2.5651691502    20.6539118200
O       7.3508896973     4.2099530947    19.0383354809
O       4.4981563510     3.9587391709    22.9072956728
C       5.9290713561     3.8945947838    20.9960208007
C       7.3297021271     4.1881915565    20.4688911028
C       5.8721709119     4.0116672750    22.5089584937
H       5.2340507257     4.6323215466    20.5533350446
H       8.0432145389     3.4244560240    20.8191443760
H       7.6571223136     5.1738780612    20.8354754738
H       6.3359933253     4.9675285031    22.8148914030
H       6.4497260984     3.1808581747    22.9509168945
H       5.8597578631     2.3152772777    19.7784701378
H       3.6583776659     2.5435355524    20.3168147116
H       4.4610770249     3.8064239805    23.8648388416
O       2.7103082747     2.5416543255    20.0177020144
H       2.4292112216     1.6097423068    20.0822731560
