80
Step 1 | NEB Image 1 | Cartesian Angstrom
Ni      1.2286497034     0.7093615225    11.2499999440
Ni      2.4572989609     2.8374461750    11.2499999440
Ni      3.6859482184     4.9655308275    11.2499999440
Ni      4.9145974759     7.0936154800    11.2499999440
Ni      3.6859497034     0.7093615225    11.2499999440
Ni      4.9145989609     2.8374461750    11.2499999440
Ni      6.1432482184     4.9655308275    11.2499999440
Ni      7.3718974759     7.0936154800    11.2499999440
Ni      6.1432497034     0.7093615225    11.2499999440
Ni      7.3718989609     2.8374461750    11.2499999440
Ni      8.6005482184     4.9655308275    11.2499999440
Ni      9.8291974759     7.0936154800    11.2499999440
Ni      8.6005497034     0.7093615225    11.2499999440
Ni      9.8291989609     2.8374461750    11.2499999440
Ni     11.0578482184     4.9655308275    11.2499999440
Ni     12.2864974759     7.0936154800    11.2499999440
Ni     14.7391156794     8.5053429999    13.3011712910
Ni     11.0531329642     2.1206495503    13.3008022026
Ni     12.2817169557     4.2489790177    13.3006008466
Ni     13.5101985270     6.3773433856    13.3009432678
Ni      7.3672569131     8.5047181091    13.3011774747
Ni      3.6813641840     2.1207833643    13.3007249066
Ni      4.9098915592     4.2493198517    13.3009123494
Ni      6.1382080000     6.3774560890    13.3011137055
Ni      9.8241033938     8.5046823573    13.3010831736
Ni      6.1383369699     2.1207818321    13.3007716707
Ni      7.3668809566     4.2490234521    13.3008056810
Ni      8.5953896076     6.3767159412    13.3009509974
Ni     12.2816608204     8.5051500252    13.3006066438
Ni      8.5958457422     2.1206092019    13.3010364095
Ni      9.8244550440     4.2487038138    13.3007276120
Ni     11.0528529688     6.3769410074    13.3006611374
Cu      2.4478274055     1.4024593708    15.3768195742
Cu      3.6763308468     3.5307009057    15.3768060474
Cu      4.9041378398     5.6597275336    15.3773448005
Cu      6.1330260451     7.7878910103    15.3784795057
Cu      4.9046987540     1.4026027186    15.3777977550
Cu      6.1325026510     3.5313493756    15.3777258697
Cu      7.3610720952     5.6598451741    15.3779276123
Cu      8.5906751295     7.7868954923    15.3785351588
Cu      7.3621786280     1.4037477983    15.3762151195
Cu      8.5904727564     3.5321453644    15.3780682910
Cu      9.8190628915     5.6596863338    15.3769316534
Cu     11.0489115080     7.7874997832    15.3777154348
Cu      9.8196453802     1.4041813317    15.3774700200
Cu     11.0479045662     3.5315147704    15.3771971651
Cu     12.2765483193     5.6595852924    15.3771299176
Cu     13.5054403579     7.7883030926    15.3772814178
Cu      1.2140125591     0.6836803076    17.5697065574
Cu      2.4431555374     2.8116125893    17.5665702724
Cu      3.6705110760     4.9384343512    17.5687388115
Cu      4.8988742539     7.0688538531    17.5715929661
Cu      3.6716454744     0.6829118137    17.5713989532
Cu      4.8981418913     2.8112417067    17.5722074693
Cu      6.1274353048     4.9410331682    17.5708265763
Cu      7.3554752500     7.0698228126    17.5713297733
Cu      6.1297077779     0.6833063606    17.5689100221
Cu      7.3567237656     2.8135682139    17.5698797004
Cu      8.5851063076     4.9421568820    17.5702368079
Cu      9.8152975701     7.0699596058    17.5700617325
Cu      8.5865082080     0.6855771971    17.5667967496
Cu      9.8144914881     2.8135456562    17.5749499312
Cu     11.0427692018     4.9416447797    17.5690866435
Cu     12.2728600100     7.0692517198    17.5719744219
O       7.2288202015     4.2734569284    22.3446828621
O       8.3044696405     5.3171068409    20.0014702420
O       8.8891638945     4.8479579810    24.7349733808
C       8.5251333110     4.9000290628    22.3715153937
C       9.1804211035     4.7744357207    20.9993344800
C       9.4189460410     4.3898719266    23.4895992517
H       8.3072385962     5.9614198807    22.5605187870
H       9.4153356173     3.7172718747    20.7683620669
H      10.1139922737     5.3503076003    20.9408546493
H      10.4461642949     4.7683945991    23.3275539960
H       9.4595638267     3.2836247445    23.4537018323
H       7.3561498138     3.3073831923    22.3295378714
H       7.4071380143     4.9636379387    20.1831718691
H       9.4432595602     4.5017937719    25.4528614775
O       2.4447775074     1.3898406800    19.0162048647
H       2.5328987835     1.2730973609    19.9764139723
80
Step 2 | NEB Image 2 | Cartesian Angstrom
Ni      1.2286129739     0.7093357893    11.2499275115
Ni      2.4572446107     2.8374310600    11.2498530564
Ni      3.6858901233     4.9655518036    11.2497936389
Ni      4.9145561472     7.0936763624    11.2497934348
Ni      3.6859156353     0.7093134854    11.2498681821
Ni      4.9145636677     2.8374152356    11.2497675164
Ni      6.1432296157     4.9655507860    11.2497153829
Ni      7.3719032548     7.0936808280    11.2497567519
Ni      6.1432393490     0.7092952302    11.2498201288
Ni      7.3719103877     2.8374064925    11.2497308008
Ni      8.6005863964     4.9655465646    11.2497205193
Ni      9.8292456966     7.0936680313    11.2497946910
Ni      8.6005751693     0.7092935983    11.2498153308
Ni      9.8292542915     2.8374116493    11.2497709225
Ni     11.0579172520     4.9655415501    11.2497992915
Ni     12.2865564901     7.0936486865    11.2498688868
Ni     14.7391882980     8.5053851914    13.3010812229
Ni     11.0533053244     2.1205391690    13.3003992487
Ni     12.2819021752     4.2489703034    13.3002649491
Ni     13.5103295936     6.3773863514    13.3007494773
Ni      7.3672636138     8.5049421920    13.3007400158
Ni      3.6812539142     2.1206791952    13.3002723445
Ni      4.9097638581     4.2493358588    13.3001889674
Ni      6.1381425418     6.3776477624    13.3004082358
Ni      9.8241991128     8.5048541784    13.3007301083
Ni      6.1383089087     2.1206094143    13.3001403037
Ni      7.3669262974     4.2490106277    13.2999509770
Ni      8.5954955245     6.3768808974    13.3002730322
Ni     12.2817673661     8.5052444643    13.3004068035
Ni      8.5959559843     2.1204369416    13.3004244064
Ni      9.8246456365     4.2486860640    13.3000793953
Ni     11.0530272431     6.3770371793    13.3002383253
Cu      2.4475442712     1.4021086890    15.3758440522
Cu      3.6758429434     3.5307952357    15.3747117680
Cu      4.9033535665     5.6604682090    15.3748408089
Cu      6.1327775179     7.7887541178    15.3770519895
Cu      4.9045510567     1.4019169568    15.3763682524
Cu      6.1323383570     3.5308832491    15.3744807356
Cu      7.3612203807     5.6605810971    15.3746983353
Cu      8.5909063910     7.7876523027    15.3771501754
Cu      7.3623362149     1.4028619638    15.3745129984
Cu      8.5910789709     3.5316578704    15.3752961473
Cu      9.8198188851     5.6600828321    15.3748653277
Cu     11.0492873081     7.7878789524    15.3769664607
Cu      9.8201014547     1.4035843696    15.3762608119
Cu     11.0485970180     3.5313088327    15.3759126015
Cu     12.2770433938     5.6597116025    15.3764128724
Cu     13.5056666180     7.7884351074    15.3770133805
Cu      1.2129297957     0.6827083071    17.5686490445
Cu      2.4403885575     2.8225303929    17.5458664935
Cu      3.6648199291     4.9416508355    17.5609660628
Cu      4.8962153968     7.0731479266    17.5668322795
Cu      3.6726923761     0.6801386205    17.5682621563
Cu      4.8947594708     2.8054911305    17.5563521371
Cu      6.1234062383     4.9489770279    17.5352431676
Cu      7.3549896893     7.0760432997    17.5630203058
Cu      6.1296529525     0.6800874235    17.5658281402
Cu      7.3604598745     2.8060436908    17.5532730971
Cu      8.5919411386     4.9435333170    17.5436992472
Cu      9.8172872257     7.0729488162    17.5651548127
Cu      8.5876334451     0.6825926705    17.5635218085
Cu      9.8181622659     2.8104196375    17.5678058048
Cu     11.0460860447     4.9418430310    17.5645124926
Cu     12.2738741945     7.0698525520    17.5708849713
O       6.5156507920     3.7355868251    21.8035789360
O       7.7725680525     4.9915317262    19.7568388192
O       7.5078730962     4.5271433896    24.4768907906
C       7.6500102268     4.5787877067    22.0975392452
C       8.5685393395     4.6065409415    20.8850595081
C       8.3707710942     4.2125039887    23.3744425002
H       7.2080281341     5.5870915416    22.2185327740
H       9.0348783146     3.6201343426    20.7032436502
H       9.3685619389     5.3571359677    20.9708150255
H       9.3097895758     4.7879781988    23.4252783434
H       8.6284901913     3.1379128060    23.3586317522
H       6.8249321092     2.8241013067    21.7193062388
H       6.9246962041     4.4900454266    19.8386735303
H       7.9425265056     4.2533869017    25.2979137561
O       2.4428482586     1.4115429022    19.0116834749
H       2.5075302579     1.3715037252    19.9614128706
80
Step 3 | NEB Image 3 | Cartesian Angstrom
Ni      1.2286017956     0.7093260640    11.2499021082
Ni      2.4572294630     2.8374257200    11.2497960660
Ni      3.6858811739     4.9655634437    11.2497180351
Ni      4.9145562719     7.0936999344    11.2497303029
Ni      3.6859085756     0.7092967162    11.2498196248
Ni      4.9145640590     2.8374086507    11.2496852579
Ni      6.1432405230     4.9655635002    11.2496309891
Ni      7.3719177633     7.0937026874    11.2496961579
Ni      6.1432461219     0.7092765349    11.2497605171
Ni      7.3719288273     2.8374010460    11.2496533474
Ni      8.6006101366     4.9655562467    11.2496531144
Ni      9.8292667315     7.0936835316    11.2497520887
Ni      8.6005927763     0.7092785266    11.2497647675
Ni      9.8292798303     2.8374079081    11.2497170046
Ni     11.0579422714     4.9655475810    11.2497589386
Ni     12.2865745582     7.0936573242    11.2498463814
Ni     14.7392040248     8.5053926352    13.3010718291
Ni     11.0533688157     2.1205253215    13.3003158132
Ni     12.2819568887     4.2489765664    13.3002106647
Ni     13.5103616394     6.3773969827    13.3007255543
Ni      7.3672928301     8.5050059474    13.3006397054
Ni      3.6812185120     2.1206318137    13.3000741744
Ni      4.9097743596     4.2493682499    13.2999119942
Ni      6.1381747578     6.3777226811    13.3002138340
Ni      9.8242395630     8.5048960022    13.3006658354
Ni      6.1383482046     2.1205677589    13.2999094421
Ni      7.3669935586     4.2490350278    13.2997208028
Ni      8.5955566922     6.3769354823    13.3001227620
Ni     12.2817971942     8.5052635695    13.3003797302
Ni      8.5960266125     2.1204088218    13.3002615060
Ni      9.8247263916     4.2486970819    13.2999384982
Ni     11.0530862689     6.3770650769    13.3001652892
Cu      2.4473709165     1.4019026626    15.3756428421
Cu      3.6755512928     3.5308297761    15.3734473364
Cu      4.9034466814     5.6608684565    15.3739630793
Cu      6.1328419611     7.7890123651    15.3767062179
Cu      4.9045270118     1.4014900570    15.3755338137
Cu      6.1327087508     3.5310022204    15.3733228245
Cu      7.3614020555     5.6608544146    15.3739904044
Cu      8.5910500778     7.7878498669    15.3768890050
Cu      7.3625728856     1.4026621201    15.3739417918
Cu      8.5913979885     3.5316199934    15.3746217162
Cu      9.8201412853     5.6602393888    15.3744350818
Cu     11.0494016702     7.7879544366    15.3768812969
Cu      9.8203159184     1.4034866645    15.3759735259
Cu     11.0488325519     3.5313091128    15.3757046406
Cu     12.2771655304     5.6597465556    15.3763498236
Cu     13.5057108716     7.7884542324    15.3769990882
Cu      1.2136596793     0.6832847213    17.5696204042
Cu      2.4379200186     2.8196184109    17.5405187789
Cu      3.6607056960     4.9461289357    17.5521442848
Cu      4.8964798300     7.0748425684    17.5653429264
Cu      3.6710463939     0.6799463893    17.5687593679
Cu      4.8936994459     2.7994547998    17.5362367749
Cu      6.1291484256     4.9529010772    17.5341834684
Cu      7.3555133343     7.0775300326    17.5615224730
Cu      6.1302628916     0.6781945004    17.5636653711
Cu      7.3631881741     2.8068869547    17.5500847181
Cu      8.5970840741     4.9458267191    17.5342562239
Cu      9.8180714678     7.0734599446    17.5648139783
Cu      8.5885597959     0.6817808728    17.5622707661
Cu      9.8197982026     2.8100627935    17.5665120164
Cu     11.0468680832     4.9420463962    17.5645403265
Cu     12.2740172756     7.0698882512    17.5709429219
O       6.0473187923     3.5048764829    21.1209623664
O       7.4081592830     4.3645399447    19.3478233830
O       6.4894605620     4.3110064237    23.8872880210
C       7.0883072551     4.4185655763    21.6039281806
C       8.1848526889     4.4629872513    20.5514776575
C       7.5477460845     4.0995782415    22.9841257898
H       6.5759230165     5.4007482541    21.5972527157
H       8.8847938950     3.5996303808    20.5930980455
H       8.7751352922     5.3817811688    20.5422742404
H       8.4302524699     4.7446971787    23.1981102383
H       7.9160623960     3.0302462023    23.0006560088
H       6.4004845977     2.6168405246    21.0108131846
H       6.5381025755     3.9600027602    19.7248535088
H       6.8007224790     4.1769511492    24.7842648805
O       3.0524384722     1.7706782996    19.1579335193
H       2.3435130519     1.3592442156    19.6930165014
80
Step 4 | NEB Image 4 | Cartesian Angstrom
Ni      1.2286096677     0.7093319537    11.2499129584
Ni      2.4572418297     2.8374307439    11.2498224373
Ni      3.6858945651     4.9655613424    11.2497571238
Ni      4.9145657878     7.0936898000    11.2497682737
Ni      3.6859165907     0.7093068904    11.2498396406
Ni      4.9145729556     2.8374171357    11.2497252857
Ni      6.1432462576     4.9655623872    11.2496811206
Ni      7.3719190489     7.0936929631    11.2497384366
Ni      6.1432506177     0.7092893473    11.2497868958
Ni      7.3719302076     2.8374105213    11.2496963756
Ni      8.6006069728     4.9655561219    11.2496991378
Ni      9.8292612356     7.0936763196    11.2497868876
Ni      8.6005922518     0.7092906406    11.2497915234
Ni      9.8292747854     2.8374154892    11.2497527408
Ni     11.0579341336     4.9655475800    11.2497920550
Ni     12.2865666824     7.0936528318    11.2498690201
Ni     14.7391929132     8.5053859999    13.3010884810
Ni     11.0533518935     2.1205468721    13.3003798032
Ni     12.2819330696     4.2489813860    13.3002690394
Ni     13.5103424854     6.3773912536    13.3007611028
Ni      7.3672972324     8.5049695641    13.3007162204
Ni      3.6812464290     2.1206604748    13.3001510414
Ni      4.9098078299     4.2493747167    13.3000522593
Ni      6.1381922252     6.3776916183    13.3003447722
Ni      9.8242287849     8.5048691752    13.3007285100
Ni      6.1383626941     2.1206087453    13.3000091438
Ni      7.3669941591     4.2490474267    13.2998650368
Ni      8.5955476755     6.3769138466    13.3002385677
Ni     12.2817819906     8.5052486099    13.3004164006
Ni      8.5960225164     2.1204431026    13.3003509423
Ni      9.8247079723     4.2487073794    13.3000432732
Ni     11.0530643071     6.3770528358    13.3002395652
Cu      2.4474302563     1.4019930842    15.3757775825
Cu      3.6757025719     3.5308595624    15.3738790261
Cu      4.9036496067     5.6607142730    15.3745369988
Cu      6.1329040635     7.7888578675    15.3769664277
Cu      4.9045984769     1.4016530285    15.3757241907
Cu      6.1327704130     3.5311745414    15.3739643164
Cu      7.3613893526     5.6607544079    15.3745697788
Cu      8.5910385091     7.7877316011    15.3771396956
Cu      7.3626037781     1.4028249941    15.3741481891
Cu      8.5913742773     3.5317434621    15.3750316741
Cu      9.8200631896     5.6602008881    15.3747982102
Cu     11.0493472828     7.7878911402    15.3770304016
Cu      9.8202971836     1.4035921572    15.3761537130
Cu     11.0487544254     3.5313602440    15.3759351374
Cu     12.2770902745     5.6597302752    15.3764923854
Cu     13.5056736842     7.7884316900    15.3770531584
Cu      1.2136034576     0.6833207964    17.5694181525
Cu      2.4381196041     2.8161580012    17.5462421042
Cu      3.6637236694     4.9459346630    17.5543939252
Cu      4.8970728031     7.0737935903    17.5663244511
Cu      3.6709218254     0.6801314615    17.5685952528
Cu      4.8978493922     2.8034115494    17.5393114659
Cu      6.1274549087     4.9500247387    17.5430429171
Cu      7.3558852145     7.0765563456    17.5630176642
Cu      6.1306198118     0.6785179099    17.5634986810
Cu      7.3625973080     2.8084865129    17.5518373440
Cu      8.5976646033     4.9469398427    17.5389827256
Cu      9.8177809042     7.0728755604    17.5659573020
Cu      8.5887727117     0.6821490010    17.5626175321
Cu      9.8195917393     2.8107054116    17.5678950338
Cu     11.0462824459     4.9420552912    17.5656025588
Cu     12.2738230768     7.0697701873    17.5711906329
O       5.9222918153     3.0438886891    20.9930845618
O       7.4863689939     4.2769314750    19.0595956121
O       5.9467815647     4.2713199714    23.6184410575
C       6.6999227349     4.1940559297    21.3367516882
C       7.9054740574     4.3494297241    20.4272679950
C       7.1039633676     4.0888355539    22.8066085447
H       6.0403435156     5.0863536030    21.2235363871
H       8.6294067129     3.5308323976    20.6168953068
H       8.4204230607     5.3003249322    20.6170616202
H       7.8731654032     4.8654741899    23.0329737951
H       7.5611602732     3.0985975380    22.9644242074
H       6.4226368596     2.5837602302    20.2052533838
H       4.4248406280     2.8922704380    20.2526405033
H       6.1826556526     4.0982649413    24.5390546539
O       3.5482115169     2.6866325457    19.7625644407
H       3.2162733692     1.8300059688    20.0493458233
80
Step 5 | NEB Image 5 | Cartesian Angstrom
Ni      1.2286497034     0.7093615225    11.2499999440
Ni      2.4572989609     2.8374461750    11.2499999440
Ni      3.6859482184     4.9655308275    11.2499999440
Ni      4.9145974759     7.0936154800    11.2499999440
Ni      3.6859497034     0.7093615225    11.2499999440
Ni      4.9145989609     2.8374461750    11.2499999440
Ni      6.1432482184     4.9655308275    11.2499999440
Ni      7.3718974759     7.0936154800    11.2499999440
Ni      6.1432497034     0.7093615225    11.2499999440
Ni      7.3718989609     2.8374461750    11.2499999440
Ni      8.6005482184     4.9655308275    11.2499999440
Ni      9.8291974759     7.0936154800    11.2499999440
Ni      8.6005497034     0.7093615225    11.2499999440
Ni      9.8291989609     2.8374461750    11.2499999440
Ni     11.0578482184     4.9655308275    11.2499999440
Ni     12.2864974759     7.0936154800    11.2499999440
Ni     14.7391156794     8.5053429999    13.3011712910
Ni     11.0531329642     2.1206495503    13.3008022026
Ni     12.2817169557     4.2489790177    13.3006008466
Ni     13.5101985270     6.3773433856    13.3009432678
Ni      7.3672569131     8.5047181091    13.3011774747
Ni      3.6813641840     2.1207833643    13.3007249066
Ni      4.9098915592     4.2493198517    13.3009123494
Ni      6.1382080000     6.3774560890    13.3011137055
Ni      9.8241033938     8.5046823573    13.3010831736
Ni      6.1383369699     2.1207818321    13.3007716707
Ni      7.3668809566     4.2490234521    13.3008056810
Ni      8.5953896076     6.3767159412    13.3009509974
Ni     12.2816608204     8.5051500252    13.3006066438
Ni      8.5958457422     2.1206092019    13.3010364095
Ni      9.8244550440     4.2487038138    13.3007276120
Ni     11.0528529688     6.3769410074    13.3006611374
Cu      2.4478274055     1.4024593708    15.3768195742
Cu      3.6763308468     3.5307009057    15.3768060474
Cu      4.9041378398     5.6597275336    15.3773448005
Cu      6.1330260451     7.7878910103    15.3784795057
Cu      4.9046987540     1.4026027186    15.3777977550
Cu      6.1325026510     3.5313493756    15.3777258697
Cu      7.3610720952     5.6598451741    15.3779276123
Cu      8.5906751295     7.7868954923    15.3785351588
Cu      7.3621786280     1.4037477983    15.3762151195
Cu      8.5904727564     3.5321453644    15.3780682910
Cu      9.8190628915     5.6596863338    15.3769316534
Cu     11.0489115080     7.7874997832    15.3777154348
Cu      9.8196453802     1.4041813317    15.3774700200
Cu     11.0479045662     3.5315147704    15.3771971651
Cu     12.2765483193     5.6595852924    15.3771299176
Cu     13.5054403579     7.7883030926    15.3772814178
Cu      1.2140125591     0.6836803076    17.5697065574
Cu      2.4431555374     2.8116125893    17.5665702724
Cu      3.6705110760     4.9384343512    17.5687388115
Cu      4.8988742539     7.0688538531    17.5715929661
Cu      3.6716454744     0.6829118137    17.5713989532
Cu      4.8981418913     2.8112417067    17.5722074693
Cu      6.1274353048     4.9410331682    17.5708265763
Cu      7.3554752500     7.0698228126    17.5713297733
Cu      6.1297077779     0.6833063606    17.5689100221
Cu      7.3567237656     2.8135682139    17.5698797004
Cu      8.5851063076     4.9421568820    17.5702368079
Cu      9.8152975701     7.0699596058    17.5700617325
Cu      8.5865082080     0.6855771971    17.5667967496
Cu      9.8144914881     2.8135456562    17.5749499312
Cu     11.0427692018     4.9416447797    17.5690866435
Cu     12.2728600100     7.0692517198    17.5719744219
O       5.4816243728     2.5651691502    20.6539118200
O       7.3508896973     4.2099530947    19.0383354809
O       4.4981563510     3.9587391709    22.9072956728
C       5.9290713561     3.8945947838    20.9960208007
C       7.3297021271     4.1881915565    20.4688911028
C       5.8721709119     4.0116672750    22.5089584937
H       5.2340507257     4.6323215466    20.5533350446
H       8.0432145389     3.4244560240    20.8191443760
H       7.6571223136     5.1738780612    20.8354754738
H       6.3359933253     4.9675285031    22.8148914030
H       6.4497260984     3.1808581747    22.9509168945
H       5.8597578631     2.3152772777    19.7784701378
H       3.6583776659     2.5435355524    20.3168147116
H       4.4610770249     3.8064239805    23.8648388416
O       2.7103082747     2.5416543255    20.0177020144
H       2.4292112216     1.6097423068    20.0822731560
