80
Step 1 | NEB Image 1 | Cartesian Angstrom
Ni      1.2286497034     0.7093615225    11.2499999440
Ni      2.4572989609     2.8374461750    11.2499999440
Ni      3.6859482184     4.9655308275    11.2499999440
Ni      4.9145974759     7.0936154800    11.2499999440
Ni      3.6859497034     0.7093615225    11.2499999440
Ni      4.9145989609     2.8374461750    11.2499999440
Ni      6.1432482184     4.9655308275    11.2499999440
Ni      7.3718974759     7.0936154800    11.2499999440
Ni      6.1432497034     0.7093615225    11.2499999440
Ni      7.3718989609     2.8374461750    11.2499999440
Ni      8.6005482184     4.9655308275    11.2499999440
Ni      9.8291974759     7.0936154800    11.2499999440
Ni      8.6005497034     0.7093615225    11.2499999440
Ni      9.8291989609     2.8374461750    11.2499999440
Ni     11.0578482184     4.9655308275    11.2499999440
Ni     12.2864974759     7.0936154800    11.2499999440
Ni     14.7391156794     8.5053429999    13.3011712910
Ni     11.0531329642     2.1206495503    13.3008022026
Ni     12.2817169557     4.2489790177    13.3006008466
Ni     13.5101985270     6.3773433856    13.3009432678
Ni      7.3672569131     8.5047181091    13.3011774747
Ni      3.6813641840     2.1207833643    13.3007249066
Ni      4.9098915592     4.2493198517    13.3009123494
Ni      6.1382080000     6.3774560890    13.3011137055
Ni      9.8241033938     8.5046823573    13.3010831736
Ni      6.1383369699     2.1207818321    13.3007716707
Ni      7.3668809566     4.2490234521    13.3008056810
Ni      8.5953896076     6.3767159412    13.3009509974
Ni     12.2816608204     8.5051500252    13.3006066438
Ni      8.5958457422     2.1206092019    13.3010364095
Ni      9.8244550440     4.2487038138    13.3007276120
Ni     11.0528529688     6.3769410074    13.3006611374
Cu      2.4478274055     1.4024593708    15.3768195742
Cu      3.6763308468     3.5307009057    15.3768060474
Cu      4.9041378398     5.6597275336    15.3773448005
Cu      6.1330260451     7.7878910103    15.3784795057
Cu      4.9046987540     1.4026027186    15.3777977550
Cu      6.1325026510     3.5313493756    15.3777258697
Cu      7.3610720952     5.6598451741    15.3779276123
Cu      8.5906751295     7.7868954923    15.3785351588
Cu      7.3621786280     1.4037477983    15.3762151195
Cu      8.5904727564     3.5321453644    15.3780682910
Cu      9.8190628915     5.6596863338    15.3769316534
Cu     11.0489115080     7.7874997832    15.3777154348
Cu      9.8196453802     1.4041813317    15.3774700200
Cu     11.0479045662     3.5315147704    15.3771971651
Cu     12.2765483193     5.6595852924    15.3771299176
Cu     13.5054403579     7.7883030926    15.3772814178
Cu      1.2140125591     0.6836803076    17.5697065574
Cu      2.4431555374     2.8116125893    17.5665702724
Cu      3.6705110760     4.9384343512    17.5687388115
Cu      4.8988742539     7.0688538531    17.5715929661
Cu      3.6716454744     0.6829118137    17.5713989532
Cu      4.8981418913     2.8112417067    17.5722074693
Cu      6.1274353048     4.9410331682    17.5708265763
Cu      7.3554752500     7.0698228126    17.5713297733
Cu      6.1297077779     0.6833063606    17.5689100221
Cu      7.3567237656     2.8135682139    17.5698797004
Cu      8.5851063076     4.9421568820    17.5702368079
Cu      9.8152975701     7.0699596058    17.5700617325
Cu      8.5865082080     0.6855771971    17.5667967496
Cu      9.8144914881     2.8135456562    17.5749499312
Cu     11.0427692018     4.9416447797    17.5690866435
Cu     12.2728600100     7.0692517198    17.5719744219
O       7.2288202015     4.2734569284    22.3446828621
O       8.3044696405     5.3171068409    20.0014702420
O       8.8891638945     4.8479579810    24.7349733808
C       8.5251333110     4.9000290628    22.3715153937
C       9.1804211035     4.7744357207    20.9993344800
C       9.4189460410     4.3898719266    23.4895992517
H       8.3072385962     5.9614198807    22.5605187870
H       9.4153356173     3.7172718747    20.7683620669
H      10.1139922737     5.3503076003    20.9408546493
H      10.4461642949     4.7683945991    23.3275539960
H       9.4595638267     3.2836247445    23.4537018323
H       7.3561498138     3.3073831923    22.3295378714
H       7.4071380143     4.9636379387    20.1831718691
H       9.4432595602     4.5017937719    25.4528614775
O       2.4447775074     1.3898406800    19.0162048647
H       2.5328987835     1.2730973609    19.9764139723
80
Step 2 | NEB Image 2 | Cartesian Angstrom
Ni      1.2286131267     0.7093359219    11.2499278566
Ni      2.4572448182     2.8374311333    11.2498538312
Ni      3.6858902476     4.9655516463    11.2497946680
Ni      4.9145561483     7.0936760422    11.2497942956
Ni      3.6859157327     0.7093137140    11.2498688416
Ni      4.9145636651     2.8374153267    11.2497686354
Ni      6.1432294706     4.9655506145    11.2497165335
Ni      7.3719030599     7.0936805309    11.2497575799
Ni      6.1432392591     0.7092954855    11.2498209389
Ni      7.3719101399     2.8374065686    11.2497318559
Ni      8.6005860760     4.9655464342    11.2497214401
Ni      9.8292454118     7.0936678206    11.2497952746
Ni      8.6005749321     0.7092938047    11.2498160192
Ni      9.8292539463     2.8374117019    11.2497716587
Ni     11.0579169128     4.9655414689    11.2497998443
Ni     12.2865562446     7.0936485689    11.2498691963
Ni     14.7391880831     8.5053850892    13.3010813542
Ni     11.0533044648     2.1205393617    13.3004003904
Ni     12.2819014318     4.2489702205    13.3002656969
Ni     13.5103291567     6.3773862066    13.3007498097
Ni      7.3672632218     8.5049413232    13.3007413883
Ni      3.6812543989     2.1206798413    13.3002750344
Ni      4.9097637265     4.2493354247    13.3001927365
Ni      6.1381421133     6.3776467449    13.3004108908
Ni      9.8241985652     8.5048536076    13.3007309918
Ni      6.1383083840     2.1206099869    13.3001434403
Ni      7.3669253922     4.2490103029    13.2999541173
Ni      8.5954946985     6.3768801564    13.3002750887
Ni     12.2817669601     8.5052442028    13.3004071786
Ni      8.5959550324     2.1204373301    13.3004266252
Ni      9.8246445441     4.2486859187    13.3000813224
Ni     11.0530264422     6.3770368002    13.3002393300
Cu      2.4475466220     1.4021114886    15.3758467999
Cu      3.6758469133     3.5307947795    15.3747289138
Cu      4.9033523723     5.6604627765    15.3748527910
Cu      6.1327766686     7.7887505966    15.3770567196
Cu      4.9045514012     1.4019227506    15.3763795399
Cu      6.1323333893     3.5308816979    15.3744965088
Cu      7.3612179315     5.6605773889    15.3747080333
Cu      8.5909044536     7.7876496089    15.3771537640
Cu      7.3623330382     1.4028647013    15.3745207473
Cu      8.5910746698     3.5316584163    15.3753053450
Cu      9.8198145226     5.6600807136    15.3748712250
Cu     11.0492857528     7.7878779179    15.3769676506
Cu      9.8200985624     1.4035857155    15.3762647315
Cu     11.0485938248     3.5313088438    15.3759154679
Cu     12.2770417278     5.6597111272    15.3764137626
Cu     13.5056660115     7.7884348433    15.3770135886
Cu      1.2129199546     0.6827005587    17.5686359105
Cu      2.4404218436     2.8225685807    17.5459401455
Cu      3.6648761890     4.9415905012    17.5610854647
Cu      4.8962120103     7.0731248099    17.5668526132
Cu      3.6727144956     0.6801412620    17.5682554157
Cu      4.8947749495     2.8055735366    17.5566237974
Cu      6.1233284515     4.9489233694    17.5352600151
Cu      7.3549827492     7.0760230036    17.5630409034
Cu      6.1296448465     0.6801129976    17.5658572036
Cu      7.3604229778     2.8060328064    17.5533165255
Cu      8.5918720812     4.9435027712    17.5438277337
Cu      9.8172765847     7.0729417657    17.5651597339
Cu      8.5876210380     0.6826037051    17.5635387494
Cu      9.8181401851     2.8104246282    17.5678236232
Cu     11.0460753473     4.9418402962    17.5645124277
Cu     12.2738722119     7.0698520371    17.5708842635
O       6.5401768792     3.7559579728    21.8686773047
O       7.8348270709     5.0764953815    19.8437853500
O       7.5513836681     4.4467855027    24.5801174762
C       7.6782489139     4.5749354737    22.1772246258
C       8.6002059133     4.6362569092    20.9697896540
C       8.3973852222     4.1729995440    23.4447597249
H       7.2402992254     5.5806215528    22.3310347273
H       9.0527211585     3.6465784874    20.7607186773
H       9.4135020656     5.3654691035    21.0958086360
H       9.3413189898     4.7457960352    23.5143103852
H       8.6589933735     3.0966691573    23.3996299099
H       6.8486485018     2.8192867381    21.7895857836
H       6.9796300589     4.5781675710    19.8810754000
H       7.9919851156     4.2089679612    25.3591100140
O       2.4518054029     1.4182791155    18.9824229961
H       2.5171166061     1.3817584056    19.9780278092
80
Step 3 | NEB Image 3 | Cartesian Angstrom
Ni      1.2286014164     0.7093257160    11.2499011136
Ni      2.4572289812     2.8374255627    11.2497938731
Ni      3.6858810041     4.9655639536    11.2497152033
Ni      4.9145564574     7.0937008560    11.2497280390
Ni      3.6859083936     0.7092961165    11.2498177100
Ni      4.9145642454     2.8374084999    11.2496821297
Ni      6.1432411462     4.9655640794    11.2496279508
Ni      7.3719184726     7.0937035359    11.2496940950
Ni      6.1432465266     0.7092758941    11.2497582006
Ni      7.3719297239     2.8374009677    11.2496505027
Ni      8.6006111977     4.9655567014    11.2496508006
Ni      9.8292676209     7.0936841272    11.2497507341
Ni      8.6005935977     0.7092780436    11.2497628852
Ni      9.8292809408     2.8374078745    11.2497151335
Ni     11.0579432990     4.9655478657    11.2497576585
Ni     12.2865752626     7.0936576472    11.2498457461
Ni     14.7392045575     8.5053928615    13.3010716998
Ni     11.0533714939     2.1205250744    13.3003130818
Ni     12.2819590223     4.2489769531    13.3002092035
Ni     13.5103627909     6.3773973765    13.3007250958
Ni      7.3672942925     8.5050082708    13.3006364136
Ni      3.6812173674     2.1206301176    13.3000662690
Ni      4.9097754872     4.2493699013    13.2999015649
Ni      6.1381766085     6.3777256319    13.3002071270
Ni      9.8242412694     8.5048974705    13.3006639838
Ni      6.1383503334     2.1205665658    13.2999004243
Ni      7.3669967455     4.2490364139    13.2997126579
Ni      8.5955594099     6.3769376510    13.3001178530
Ni     12.2817983156     8.5052641892    13.3003791441
Ni      8.5960298698     2.1204081413    13.3002555031
Ni      9.8247298566     4.2486977965    13.2999338236
Ni     11.0530886411     6.3770661630    13.3001632429
Cu      2.4473638519     1.4018946422    15.3756358855
Cu      3.6755403784     3.5308319691    15.3733957867
Cu      4.9034549076     5.6608844433    15.3739324714
Cu      6.1328461758     7.7890216417    15.3766948042
Cu      4.9045272254     1.4014729777    15.3754980107
Cu      6.1327274019     3.5310110897    15.3732802637
Cu      7.3614103931     5.6608654312    15.3739679161
Cu      8.5910566434     7.7878569623    15.3768814059
Cu      7.3625846425     1.4026557590    15.3739187191
Cu      8.5914126027     3.5316205355    15.3745976119
Cu      9.8201550327     5.6602460536    15.3744216224
Cu     11.0494060430     7.7879568058    15.3768800903
Cu      9.8203256902     1.4034840426    15.3759633632
Cu     11.0488421976     3.5313100911    15.3756991726
Cu     12.2771698764     5.6597478986    15.3763495376
Cu     13.5057122591     7.7884547099    15.3769994339
Cu      1.2136930780     0.6833126163    17.5696624475
Cu      2.4378072389     2.8194156163    17.5403743202
Cu      3.6605684126     4.9463366928    17.5517702434
Cu      4.8965035064     7.0749027788    17.5652911351
Cu      3.6709663313     0.6799408065    17.5687797451
Cu      4.8937277252     2.7992444873    17.5353451036
Cu      6.1293875670     4.9530320547    17.5343006502
Cu      7.3555450759     7.0775818481    17.5614799763
Cu      6.1302984251     0.6781112342    17.5635601146
Cu      7.3633058328     2.8069569576    17.5499672648
Cu      8.5973378436     4.9459560062    17.5338996001
Cu      9.8181030099     7.0734730468    17.5648194657
Cu      8.5886075501     0.6817494935    17.5622182457
Cu      9.8198715430     2.8100580747    17.5664770360
Cu     11.0468939522     4.9420561655    17.5645616892
Cu     12.2740203655     7.0698877083    17.5709503332
O       5.9842107470     3.4825618095    21.3475109150
O       7.4572725839     4.3441681661    19.5027872136
O       6.4775603045     4.2920621818    24.0994364335
C       7.0043077356     4.4071724694    21.8027045921
C       8.1322503024     4.4155741377    20.7638790204
C       7.5273246762     4.0562817999    23.1887310692
H       6.5084186966     5.3586245159    21.8167600557
H       8.8374134461     3.5815543461    20.8577024267
H       8.7089217642     5.3728928491    20.7918993084
H       8.4079063006     4.7114134204    23.3808615101
H       7.8786130584     3.0133961321    23.1945491970
H       6.3103693677     2.5634135676    21.3800797665
H       6.5948235794     3.9139613923    19.7067044909
H       6.8205025596     4.0870366355    25.0283240432
O       3.1037526062     1.7986099950    19.1438533396
H       2.4167070486     1.4150055991    19.7294784410
80
Step 4 | NEB Image 4 | Cartesian Angstrom
Ni      1.2286073599     0.7093302254    11.2499097652
Ni      2.4572382073     2.8374292733    11.2498146821
Ni      3.6858906518     4.9655619691    11.2497456397
Ni      4.9145630151     7.0936927824    11.2497571309
Ni      3.6859142464     0.7093039048    11.2498337478
Ni      4.9145703636     2.8374146550    11.2497135197
Ni      6.1432446001     4.9655627273    11.2496664078
Ni      7.3719186923     7.0936958238    11.2497260416
Ni      6.1432493160     0.7092855906    11.2497791351
Ni      7.3719298283     2.8374077535    11.2496837413
Ni      8.6006079242     4.9655561703    11.2496856431
Ni      9.8292628632     7.0936784403    11.2497766945
Ni      8.6005924265     0.7092870919    11.2497836641
Ni      9.8292762871     2.8374132755    11.2497422606
Ni     11.0579365360     4.9655475878    11.2497823550
Ni     12.2865689998     7.0936541516    11.2498623954
Ni     14.7391961705     8.5053879427    13.3010836171
Ni     11.0533569034     2.1205405752    13.3003610533
Ni     12.2819400783     4.2489799894    13.3002519619
Ni     13.5103481066     6.3773929362    13.3007507145
Ni      7.3672959859     8.5049802451    13.3006937998
Ni      3.6812382502     2.1206520643    13.3001283967
Ni      4.9097980899     4.2493728725    13.3000110429
Ni      6.1381871753     6.3777007629    13.3003063762
Ni      9.8242319758     8.5048770444    13.3007101672
Ni      6.1383585208     2.1205967504    13.2999798046
Ni      7.3669940676     4.2490438441    13.2998227220
Ni      8.5955503789     6.3769202189    13.3002046360
Ni     12.2817864579     8.5052529928    13.3004056815
Ni      8.5960237977     2.1204330785    13.3003246788
Ni      9.8247134399     4.2487043924    13.3000125674
Ni     11.0530707800     6.3770564374    13.3002178309
Cu      2.4474127497     1.4019664800    15.3757380701
Cu      3.6756581279     3.5308509258    15.3737516639
Cu      4.9035905912     5.6607596982    15.3743686720
Cu      6.1328860473     7.7889032079    15.3768901747
Cu      4.9045776225     1.4016050094    15.3756676796
Cu      6.1327529050     3.5311244759    15.3737759514
Cu      7.3613932798     5.6607838887    15.3744000734
Cu      8.5910420587     7.7877663084    15.3770663215
Cu      7.3625950702     1.4027772854    15.3740873367
Cu      8.5913815829     3.5317074371    15.3749113773
Cu      9.8200863466     5.6602123014    15.3746918625
Cu     11.0493632730     7.7879096782    15.3769868477
Cu      9.8203029092     1.4035612959    15.3761008507
Cu     11.0487774836     3.5313453450    15.3758677138
Cu     12.2771123553     5.6597350626    15.3764507655
Cu     13.5056845754     7.7884382825    15.3770373849
Cu      1.2136207468     0.6833110003    17.5694782939
Cu      2.4380583800     2.8171627262    17.5445677206
Cu      3.6628391406     4.9459968350    17.5537274367
Cu      4.8969003429     7.0741013609    17.5660365910
Cu      3.6709560795     0.6800772938    17.5686436925
Cu      4.8966388071     2.8022510797    17.5383905354
Cu      6.1279555212     4.9508677598    17.5404600127
Cu      7.3557775013     7.0768419186    17.5625801144
Cu      6.1305165651     0.6784213192    17.5635445671
Cu      7.3627728714     2.8080214590    17.5513226796
Cu      8.5975018286     4.9466183339    17.5375937236
Cu      9.8178665467     7.0730464812    17.5656237212
Cu      8.5887118200     0.6820407224    17.5625149328
Cu      9.8196539334     2.8105177135    17.5674904241
Cu     11.0464540683     4.9420529518    17.5652930655
Cu     12.2738798428     7.0698046347    17.5711185235
O       6.0031321386     2.9768402551    21.0237697625
O       7.4687524939     4.2600723650    19.0488480324
O       6.1058406005     4.2900135970    23.6690898460
C       6.7475244427     4.1734453618    21.3635484027
C       7.9195038012     4.3532422571    20.4053176865
C       7.2228442757     4.0887741826    22.8174906318
H       6.0657322658     5.0384588769    21.2768688264
H       8.6810153520     3.5709696489    20.5796336504
H       8.3965991485     5.3298266388    20.5747736151
H       8.0039987934     4.8627190466    22.9895668528
H       7.6844685600     3.0960848079    22.9710616735
H       6.4341408891     2.5663539442    20.2701729161
H       4.3946730473     2.9363875356    20.3494918714
H       6.3724459408     4.1033040187    24.5850369523
O       3.5055744703     2.7705745798    19.9282512705
H       3.3095294960     1.8409599107    20.0862421023
80
Step 5 | NEB Image 5 | Cartesian Angstrom
Ni      1.2286497034     0.7093615225    11.2499999440
Ni      2.4572989609     2.8374461750    11.2499999440
Ni      3.6859482184     4.9655308275    11.2499999440
Ni      4.9145974759     7.0936154800    11.2499999440
Ni      3.6859497034     0.7093615225    11.2499999440
Ni      4.9145989609     2.8374461750    11.2499999440
Ni      6.1432482184     4.9655308275    11.2499999440
Ni      7.3718974759     7.0936154800    11.2499999440
Ni      6.1432497034     0.7093615225    11.2499999440
Ni      7.3718989609     2.8374461750    11.2499999440
Ni      8.6005482184     4.9655308275    11.2499999440
Ni      9.8291974759     7.0936154800    11.2499999440
Ni      8.6005497034     0.7093615225    11.2499999440
Ni      9.8291989609     2.8374461750    11.2499999440
Ni     11.0578482184     4.9655308275    11.2499999440
Ni     12.2864974759     7.0936154800    11.2499999440
Ni     14.7391156794     8.5053429999    13.3011712910
Ni     11.0531329642     2.1206495503    13.3008022026
Ni     12.2817169557     4.2489790177    13.3006008466
Ni     13.5101985270     6.3773433856    13.3009432678
Ni      7.3672569131     8.5047181091    13.3011774747
Ni      3.6813641840     2.1207833643    13.3007249066
Ni      4.9098915592     4.2493198517    13.3009123494
Ni      6.1382080000     6.3774560890    13.3011137055
Ni      9.8241033938     8.5046823573    13.3010831736
Ni      6.1383369699     2.1207818321    13.3007716707
Ni      7.3668809566     4.2490234521    13.3008056810
Ni      8.5953896076     6.3767159412    13.3009509974
Ni     12.2816608204     8.5051500252    13.3006066438
Ni      8.5958457422     2.1206092019    13.3010364095
Ni      9.8244550440     4.2487038138    13.3007276120
Ni     11.0528529688     6.3769410074    13.3006611374
Cu      2.4478274055     1.4024593708    15.3768195742
Cu      3.6763308468     3.5307009057    15.3768060474
Cu      4.9041378398     5.6597275336    15.3773448005
Cu      6.1330260451     7.7878910103    15.3784795057
Cu      4.9046987540     1.4026027186    15.3777977550
Cu      6.1325026510     3.5313493756    15.3777258697
Cu      7.3610720952     5.6598451741    15.3779276123
Cu      8.5906751295     7.7868954923    15.3785351588
Cu      7.3621786280     1.4037477983    15.3762151195
Cu      8.5904727564     3.5321453644    15.3780682910
Cu      9.8190628915     5.6596863338    15.3769316534
Cu     11.0489115080     7.7874997832    15.3777154348
Cu      9.8196453802     1.4041813317    15.3774700200
Cu     11.0479045662     3.5315147704    15.3771971651
Cu     12.2765483193     5.6595852924    15.3771299176
Cu     13.5054403579     7.7883030926    15.3772814178
Cu      1.2140125591     0.6836803076    17.5697065574
Cu      2.4431555374     2.8116125893    17.5665702724
Cu      3.6705110760     4.9384343512    17.5687388115
Cu      4.8988742539     7.0688538531    17.5715929661
Cu      3.6716454744     0.6829118137    17.5713989532
Cu      4.8981418913     2.8112417067    17.5722074693
Cu      6.1274353048     4.9410331682    17.5708265763
Cu      7.3554752500     7.0698228126    17.5713297733
Cu      6.1297077779     0.6833063606    17.5689100221
Cu      7.3567237656     2.8135682139    17.5698797004
Cu      8.5851063076     4.9421568820    17.5702368079
Cu      9.8152975701     7.0699596058    17.5700617325
Cu      8.5865082080     0.6855771971    17.5667967496
Cu      9.8144914881     2.8135456562    17.5749499312
Cu     11.0427692018     4.9416447797    17.5690866435
Cu     12.2728600100     7.0692517198    17.5719744219
O       5.4816243728     2.5651691502    20.6539118200
O       7.3508896973     4.2099530947    19.0383354809
O       4.4981563510     3.9587391709    22.9072956728
C       5.9290713561     3.8945947838    20.9960208007
C       7.3297021271     4.1881915565    20.4688911028
C       5.8721709119     4.0116672750    22.5089584937
H       5.2340507257     4.6323215466    20.5533350446
H       8.0432145389     3.4244560240    20.8191443760
H       7.6571223136     5.1738780612    20.8354754738
H       6.3359933253     4.9675285031    22.8148914030
H       6.4497260984     3.1808581747    22.9509168945
H       5.8597578631     2.3152772777    19.7784701378
H       3.6583776659     2.5435355524    20.3168147116
H       4.4610770249     3.8064239805    23.8648388416
O       2.7103082747     2.5416543255    20.0177020144
H       2.4292112216     1.6097423068    20.0822731560
