80
Step 1 | NEB Image 1 | Cartesian Angstrom
Ni      1.2286497034     0.7093615225    11.2499999440
Ni      2.4572989609     2.8374461750    11.2499999440
Ni      3.6859482184     4.9655308275    11.2499999440
Ni      4.9145974759     7.0936154800    11.2499999440
Ni      3.6859497034     0.7093615225    11.2499999440
Ni      4.9145989609     2.8374461750    11.2499999440
Ni      6.1432482184     4.9655308275    11.2499999440
Ni      7.3718974759     7.0936154800    11.2499999440
Ni      6.1432497034     0.7093615225    11.2499999440
Ni      7.3718989609     2.8374461750    11.2499999440
Ni      8.6005482184     4.9655308275    11.2499999440
Ni      9.8291974759     7.0936154800    11.2499999440
Ni      8.6005497034     0.7093615225    11.2499999440
Ni      9.8291989609     2.8374461750    11.2499999440
Ni     11.0578482184     4.9655308275    11.2499999440
Ni     12.2864974759     7.0936154800    11.2499999440
Ni     14.7391156794     8.5053429999    13.3011712910
Ni     11.0531329642     2.1206495503    13.3008022026
Ni     12.2817169557     4.2489790177    13.3006008466
Ni     13.5101985270     6.3773433856    13.3009432678
Ni      7.3672569131     8.5047181091    13.3011774747
Ni      3.6813641840     2.1207833643    13.3007249066
Ni      4.9098915592     4.2493198517    13.3009123494
Ni      6.1382080000     6.3774560890    13.3011137055
Ni      9.8241033938     8.5046823573    13.3010831736
Ni      6.1383369699     2.1207818321    13.3007716707
Ni      7.3668809566     4.2490234521    13.3008056810
Ni      8.5953896076     6.3767159412    13.3009509974
Ni     12.2816608204     8.5051500252    13.3006066438
Ni      8.5958457422     2.1206092019    13.3010364095
Ni      9.8244550440     4.2487038138    13.3007276120
Ni     11.0528529688     6.3769410074    13.3006611374
Cu      2.4478274055     1.4024593708    15.3768195742
Cu      3.6763308468     3.5307009057    15.3768060474
Cu      4.9041378398     5.6597275336    15.3773448005
Cu      6.1330260451     7.7878910103    15.3784795057
Cu      4.9046987540     1.4026027186    15.3777977550
Cu      6.1325026510     3.5313493756    15.3777258697
Cu      7.3610720952     5.6598451741    15.3779276123
Cu      8.5906751295     7.7868954923    15.3785351588
Cu      7.3621786280     1.4037477983    15.3762151195
Cu      8.5904727564     3.5321453644    15.3780682910
Cu      9.8190628915     5.6596863338    15.3769316534
Cu     11.0489115080     7.7874997832    15.3777154348
Cu      9.8196453802     1.4041813317    15.3774700200
Cu     11.0479045662     3.5315147704    15.3771971651
Cu     12.2765483193     5.6595852924    15.3771299176
Cu     13.5054403579     7.7883030926    15.3772814178
Cu      1.2140125591     0.6836803076    17.5697065574
Cu      2.4431555374     2.8116125893    17.5665702724
Cu      3.6705110760     4.9384343512    17.5687388115
Cu      4.8988742539     7.0688538531    17.5715929661
Cu      3.6716454744     0.6829118137    17.5713989532
Cu      4.8981418913     2.8112417067    17.5722074693
Cu      6.1274353048     4.9410331682    17.5708265763
Cu      7.3554752500     7.0698228126    17.5713297733
Cu      6.1297077779     0.6833063606    17.5689100221
Cu      7.3567237656     2.8135682139    17.5698797004
Cu      8.5851063076     4.9421568820    17.5702368079
Cu      9.8152975701     7.0699596058    17.5700617325
Cu      8.5865082080     0.6855771971    17.5667967496
Cu      9.8144914881     2.8135456562    17.5749499312
Cu     11.0427692018     4.9416447797    17.5690866435
Cu     12.2728600100     7.0692517198    17.5719744219
O       7.2288202015     4.2734569284    22.3446828621
O       8.3044696405     5.3171068409    20.0014702420
O       8.8891638945     4.8479579810    24.7349733808
C       8.5251333110     4.9000290628    22.3715153937
C       9.1804211035     4.7744357207    20.9993344800
C       9.4189460410     4.3898719266    23.4895992517
H       8.3072385962     5.9614198807    22.5605187870
H       9.4153356173     3.7172718747    20.7683620669
H      10.1139922737     5.3503076003    20.9408546493
H      10.4461642949     4.7683945991    23.3275539960
H       9.4595638267     3.2836247445    23.4537018323
H       7.3561498138     3.3073831923    22.3295378714
H       7.4071380143     4.9636379387    20.1831718691
H       9.4432595602     4.5017937719    25.4528614775
O       2.4447775074     1.3898406800    19.0162048647
H       2.5328987835     1.2730973609    19.9764139723
80
Step 2 | NEB Image 2 | Cartesian Angstrom
Ni      1.2286132779     0.7093360537    11.2499282016
Ni      2.4572450227     2.8374312053    11.2498546047
Ni      3.6858903672     4.9655514877    11.2497956933
Ni      4.9145561447     7.0936757221    11.2497951507
Ni      3.6859158276     0.7093139412    11.2498695011
Ni      4.9145636580     2.8374154150    11.2497697514
Ni      6.1432293204     4.9655504410    11.2497176767
Ni      7.3719028614     7.0936802341    11.2497583995
Ni      6.1432391657     0.7092957384    11.2498217482
Ni      7.3719098877     2.8374066411    11.2497329057
Ni      8.6005857522     4.9655463020    11.2497223520
Ni      9.8292451255     7.0936676102    11.2497958498
Ni      8.6005746917     0.7092940083    11.2498167048
Ni      9.8292535983     2.8374117515    11.2497723883
Ni     11.0579165726     4.9655413865    11.2498003891
Ni     12.2865559993     7.0936484517    11.2498694994
Ni     14.7391878704     8.5053849888    13.3010814792
Ni     11.0533036006     2.1205395466    13.3004015178
Ni     12.2819006889     4.2489701340    13.3002664270
Ni     13.5103287226     6.3773860625    13.3007501295
Ni      7.3672628217     8.5049404593    13.3007427438
Ni      3.6812548771     2.1206804831    13.3002777270
Ni      4.9097635764     4.2493349808    13.3001964933
Ni      6.1381416696     6.3776457274    13.3004135211
Ni      9.8241980146     8.5048530415    13.3007318575
Ni      6.1383078441     2.1206105479    13.3001465750
Ni      7.3669244730     4.2490099670    13.2999572338
Ni      8.5954938645     6.3768794148    13.3002771190
Ni     12.2817665556     8.5052439447    13.3004075413
Ni      8.5959540682     2.1204377075    13.3004288334
Ni      9.8246434443     4.2486857661    13.3000832269
Ni     11.0530256400     6.3770364215    13.3002403133
Cu      2.4475489789     1.4021142858    15.3758495225
Cu      3.6758508684     3.5307943016    15.3747461054
Cu      4.9033510596     5.6604573381    15.3748646704
Cu      6.1327757756     7.7887470986    15.3770613926
Cu      4.9045517156     1.4019285514    15.3763909040
Cu      6.1323283159     3.5308800380    15.3745122032
Cu      7.3612154516     5.6605736741    15.3747175915
Cu      8.5909024925     7.7876469328    15.3771572828
Cu      7.3623297982     1.4028673996    15.3745285114
Cu      8.5910703154     3.5316589093    15.3753144791
Cu      9.8198101328     5.6600785820    15.3748770318
Cu     11.0492842010     7.7878768991    15.3769687846
Cu      9.8200956357     1.4035870296    15.3762686212
Cu     11.0485906219     3.5313088298    15.3759182637
Cu     12.2770400739     5.6597106529    15.3764145958
Cu     13.5056654142     7.7884345865    15.3770137732
Cu      1.2129099926     0.6826926753    17.5686226779
Cu      2.4404555345     2.8226090585    17.5460120799
Cu      3.6649318067     4.9415293502    17.5612055599
Cu      4.8962082791     7.0731018625    17.5668727688
Cu      3.6727370114     0.6801438519    17.5682486544
Cu      4.8947886089     2.8056552315    17.5568980461
Cu      6.1232503259     4.9488703222    17.5352727339
Cu      7.3549755201     7.0760028821    17.5630610728
Cu      6.1296364412     0.6801387985    17.5658867892
Cu      7.3603858153     2.8060209659    17.5533597437
Cu      8.5918016917     4.9434712124    17.5439558253
Cu      9.8172659264     7.0729348978    17.5651641639
Cu      8.5876083379     0.6826147245    17.5635557749
Cu      9.8181178724     2.8104293765    17.5678410268
Cu     11.0460647778     4.9418375156    17.5645118362
Cu     12.2738702954     7.0698515727    17.5708834224
O       6.5460884425     3.7500052231    21.8676204497
O       7.8303324791     5.0733016699    19.8377418428
O       7.5525764386     4.4657811243    24.5525734851
C       7.6809881754     4.5825416353    22.1737050025
C       8.6040440217     4.6355616886    20.9618909549
C       8.4053011981     4.1795290902    23.4437211532
H       7.2465569697     5.5822546293    22.3228300175
H       9.0524931061     3.6443347712    20.7527113480
H       9.4157520911     5.3630460949    21.0837562277
H       9.3495960834     4.7525792459    23.5037124104
H       8.6654970479     3.1043249336    23.3980500839
H       6.8504047900     2.8279807508    21.7896645328
H       6.9797795772     4.5763401557    19.8771410321
H       8.0127283600     4.2140295355    25.3719998438
O       2.4474919338     1.4147892577    18.9966589503
H       2.5162264196     1.3804279273    19.9662523722
80
Step 3 | NEB Image 3 | Cartesian Angstrom
Ni      1.2286015596     0.7093258475    11.2499014901
Ni      2.4572291628     2.8374256219    11.2497947029
Ni      3.6858810672     4.9655637602    11.2497162743
Ni      4.9145563860     7.0937005072    11.2497288945
Ni      3.6859084619     0.7092963431    11.2498184349
Ni      4.9145641737     2.8374085563    11.2496833131
Ni      6.1432409090     4.9655638596    11.2496290990
Ni      7.3719182032     7.0937032148    11.2496948738
Ni      6.1432463725     0.7092761360    11.2497590773
Ni      7.3719293834     2.8374009964    11.2496515782
Ni      8.6006107952     4.9655565288    11.2496516742
Ni      9.8292672838     7.0936839018    11.2497512448
Ni      8.6005932859     0.7092782257    11.2497635970
Ni      9.8292805197     2.8374078865    11.2497158402
Ni     11.0579429097     4.9655477576    11.2497581410
Ni     12.2865749960     7.0936575251    11.2498459850
Ni     14.7392043564     8.5053927763    13.3010717472
Ni     11.0533704788     2.1205251660    13.3003141121
Ni     12.2819582148     4.2489768058    13.3002097521
Ni     13.5103623557     6.3773972276    13.3007252662
Ni      7.3672937368     8.5050073925    13.3006376553
Ni      3.6812177990     2.1206307585    13.3000692623
Ni      4.9097750556     4.2493692736    13.2999055098
Ni      6.1381759040     6.3777245149    13.3002096597
Ni      9.8242406227     8.5048969158    13.3006646802
Ni      6.1383495237     2.1205670145    13.2999038375
Ni      7.3669955355     4.2490358864    13.2997157351
Ni      8.5955583791     6.3769368299    13.3001197047
Ni     12.2817978914     8.5052639555    13.3003793628
Ni      8.5960286336     2.1204083961    13.3002577728
Ni      9.8247285430     4.2486975241    13.2999355874
Ni     11.0530877428     6.3770657519    13.3001640120
Cu      2.4473665278     1.4018976777    15.3756385125
Cu      3.6755445063     3.5308311334    15.3734153127
Cu      4.9034517633     5.6608783900    15.3739440319
Cu      6.1328445692     7.7890181359    15.3766991103
Cu      4.9045271368     1.4014794449    15.3755115835
Cu      6.1327203145     3.5310077045    15.3732963551
Cu      7.3614072291     5.6608612591    15.3739763934
Cu      8.5910541519     7.7878542809    15.3768842648
Cu      7.3625801757     1.4026581570    15.3739274572
Cu      8.5914070568     3.5316203168    15.3746067204
Cu      9.8201498216     5.6602435273    15.3744266944
Cu     11.0494043886     7.7879559129    15.3768805328
Cu      9.8203219822     1.4034850270    15.3759672027
Cu     11.0488385437     3.5313097143    15.3757012245
Cu     12.2771682343     5.6597473904    15.3763496313
Cu     13.5057117362     7.7884545310    15.3769992970
Cu      1.2136804039     0.6833020221    17.5696465067
Cu      2.4378500354     2.8194929695    17.5404285668
Cu      3.6606202177     4.9462578372    17.5519120149
Cu      4.8964944557     7.0748800292    17.5653106954
Cu      3.6709967404     0.6799429067    17.5687720260
Cu      4.8937165555     2.7993239201    17.5356833093
Cu      6.1292969528     4.9529826289    17.5342552365
Cu      7.3555329862     7.0775622778    17.5614959542
Cu      6.1302848974     0.6781428128    17.5636000931
Cu      7.3632612249     2.8069302137    17.5500116734
Cu      8.5972414383     4.9459068055    17.5340345003
Cu      9.8180910652     7.0734681335    17.5648172630
Cu      8.5885893978     0.6817613683    17.5622381491
Cu      9.8198437206     2.8100597991    17.5664901720
Cu     11.0468841921     4.9420524556    17.5645534679
Cu     12.2740192127     7.0698879267    17.5709474936
O       5.9954201871     3.4915723347    21.3288451156
O       7.4792827750     4.3615252823    19.4798709674
O       6.4952414434     4.2952674539    24.0906007893
C       7.0283459931     4.3943631959    21.7852879790
C       8.1468174785     4.4342824933    20.7438938276
C       7.5460691771     4.0693018475    23.1616932602
H       6.5223346039     5.3739024605    21.7974775271
H       8.8477139310     3.5834026834    20.8285282368
H       8.7203009239     5.3698044190    20.7640670843
H       8.4226201790     4.7128471614    23.3591323690
H       7.8932142564     3.0162648984    23.1714097791
H       6.3250733458     2.5754079002    21.3501994649
H       6.5905463551     3.9244633812    19.6959399013
H       6.8323013757     4.1002193063    24.9965239333
O       3.0835603916     1.7841646042    19.1401139489
H       2.4008268015     1.4035187777    19.7261633189
80
Step 4 | NEB Image 4 | Cartesian Angstrom
Ni      1.2286076031     0.7093304090    11.2499101124
Ni      2.4572385864     2.8374294263    11.2498155202
Ni      3.6858910533     4.9655618938    11.2497468713
Ni      4.9145632925     7.0936924583    11.2497583148
Ni      3.6859144887     0.7093042219    11.2498343903
Ni      4.9145706227     2.8374149105    11.2497147867
Ni      6.1432447542     4.9655626795    11.2496679721
Ni      7.3719187123     7.0936955138    11.2497273481
Ni      6.1432494390     0.7092859870    11.2497799766
Ni      7.3719298463     2.8374080365    11.2496850900
Ni      8.6006078032     4.9655561549    11.2496870671
Ni      9.8292626775     7.0936782112    11.2497777611
Ni      8.6005923900     0.7092874635    11.2497845057
Ni      9.8292761091     2.8374135011    11.2497433681
Ni     11.0579362684     4.9655475804    11.2497833698
Ni     12.2865687483     7.0936540101    11.2498630830
Ni     14.7391958274     8.5053877401    13.3010841142
Ni     11.0533563331     2.1205412205    13.3003630208
Ni     12.2819393174     4.2489801224    13.3002537304
Ni     13.5103475091     6.3773927563    13.3007517804
Ni      7.3672960790     8.5049791068    13.3006961530
Ni      3.6812391073     2.1206529576    13.3001308783
Ni      4.9097990536     4.2493730221    13.3000154692
Ni      6.1381876459     6.3776997662    13.3003104306
Ni      9.8242316126     8.5048762113    13.3007120731
Ni      6.1383588960     2.1205979963    13.2999829919
Ni      7.3669940039     4.2490441763    13.2998272075
Ni      8.5955500420     6.3769195218    13.3002081957
Ni     12.2817859783     8.5052525333    13.3004067839
Ni      8.5960235929     2.1204341124    13.3003274845
Ni      9.8247128050     4.2487046795    13.3000157941
Ni     11.0530700680     6.3770560467    13.3002200859
Cu      2.4474146901     1.4019693665    15.3757422436
Cu      3.6756628931     3.5308517530    15.3737657840
Cu      4.9035963984     5.6607547171    15.3743864742
Cu      6.1328877811     7.7888983891    15.3768981830
Cu      4.9045797363     1.4016102791    15.3756742409
Cu      6.1327542565     3.5311293591    15.3737960632
Cu      7.3613926898     5.6607806413    15.3744178296
Cu      8.5910415476     7.7877626198    15.3770739500
Cu      7.3625956856     1.4027822780    15.3740940475
Cu      8.5913805059     3.5317110846    15.3749241509
Cu      9.8200836791     5.6602109892    15.3747029751
Cu     11.0493615483     7.7879077405    15.3769913001
Cu      9.8203021036     1.4035644913    15.3761064540
Cu     11.0487749200     3.5313468362    15.3758746889
Cu     12.2771100125     5.6597345455    15.3764550004
Cu     13.5056834371     7.7884376018    15.3770389795
Cu      1.2136182252     0.6833113565    17.5694712208
Cu      2.4380671836     2.8170652978    17.5447411372
Cu      3.6629321482     4.9459857594    17.5538037164
Cu      4.8969173214     7.0740687139    17.5660670223
Cu      3.6709544335     0.6800829248    17.5686383045
Cu      4.8967611474     2.8023737942    17.5385045227
Cu      6.1278991837     4.9507791135    17.5407197359
Cu      7.3557877172     7.0768117191    17.5626255403
Cu      6.1305262403     0.6784330397    17.5635423166
Cu      7.3627523399     2.8080671020    17.5513776570
Cu      8.5975125522     4.9466480356    17.5377430073
Cu      9.8178571234     7.0730288165    17.5656574853
Cu      8.5887169123     0.6820524417    17.5625265594
Cu      9.8196459348     2.8105368906    17.5675323313
Cu     11.0464360399     4.9420529657    17.5653240188
Cu     12.2738740050     7.0698011475    17.5711256796
O       5.9931201786     2.9871429810    21.0239311437
O       7.4706969787     4.2615318450    19.0484557760
O       6.0872847726     4.2911148125    23.6682554072
C       6.7466312175     4.1791660596    21.3664437933
C       7.9189745124     4.3511610971    20.4082578559
C       7.2199031229     4.0901090837    22.8086894919
H       6.0656411918     5.0426003561    21.2702262240
H       8.6779632672     3.5669686127    20.5823643351
H       8.4017724930     5.3290900240    20.5767666134
H       7.9914083623     4.8601089612    22.9929387408
H       7.6715631279     3.0971487864    22.9705242884
H       6.4366501211     2.5663530495    20.2645718345
H       4.4024841796     2.9437387556    20.3388140762
H       6.3535488667     4.1042486295    24.5767645098
O       3.5058798881     2.7636290311    19.9165553932
H       3.3028947777     1.8300232206    20.0819566371
80
Step 5 | NEB Image 5 | Cartesian Angstrom
Ni      1.2286497034     0.7093615225    11.2499999440
Ni      2.4572989609     2.8374461750    11.2499999440
Ni      3.6859482184     4.9655308275    11.2499999440
Ni      4.9145974759     7.0936154800    11.2499999440
Ni      3.6859497034     0.7093615225    11.2499999440
Ni      4.9145989609     2.8374461750    11.2499999440
Ni      6.1432482184     4.9655308275    11.2499999440
Ni      7.3718974759     7.0936154800    11.2499999440
Ni      6.1432497034     0.7093615225    11.2499999440
Ni      7.3718989609     2.8374461750    11.2499999440
Ni      8.6005482184     4.9655308275    11.2499999440
Ni      9.8291974759     7.0936154800    11.2499999440
Ni      8.6005497034     0.7093615225    11.2499999440
Ni      9.8291989609     2.8374461750    11.2499999440
Ni     11.0578482184     4.9655308275    11.2499999440
Ni     12.2864974759     7.0936154800    11.2499999440
Ni     14.7391156794     8.5053429999    13.3011712910
Ni     11.0531329642     2.1206495503    13.3008022026
Ni     12.2817169557     4.2489790177    13.3006008466
Ni     13.5101985270     6.3773433856    13.3009432678
Ni      7.3672569131     8.5047181091    13.3011774747
Ni      3.6813641840     2.1207833643    13.3007249066
Ni      4.9098915592     4.2493198517    13.3009123494
Ni      6.1382080000     6.3774560890    13.3011137055
Ni      9.8241033938     8.5046823573    13.3010831736
Ni      6.1383369699     2.1207818321    13.3007716707
Ni      7.3668809566     4.2490234521    13.3008056810
Ni      8.5953896076     6.3767159412    13.3009509974
Ni     12.2816608204     8.5051500252    13.3006066438
Ni      8.5958457422     2.1206092019    13.3010364095
Ni      9.8244550440     4.2487038138    13.3007276120
Ni     11.0528529688     6.3769410074    13.3006611374
Cu      2.4478274055     1.4024593708    15.3768195742
Cu      3.6763308468     3.5307009057    15.3768060474
Cu      4.9041378398     5.6597275336    15.3773448005
Cu      6.1330260451     7.7878910103    15.3784795057
Cu      4.9046987540     1.4026027186    15.3777977550
Cu      6.1325026510     3.5313493756    15.3777258697
Cu      7.3610720952     5.6598451741    15.3779276123
Cu      8.5906751295     7.7868954923    15.3785351588
Cu      7.3621786280     1.4037477983    15.3762151195
Cu      8.5904727564     3.5321453644    15.3780682910
Cu      9.8190628915     5.6596863338    15.3769316534
Cu     11.0489115080     7.7874997832    15.3777154348
Cu      9.8196453802     1.4041813317    15.3774700200
Cu     11.0479045662     3.5315147704    15.3771971651
Cu     12.2765483193     5.6595852924    15.3771299176
Cu     13.5054403579     7.7883030926    15.3772814178
Cu      1.2140125591     0.6836803076    17.5697065574
Cu      2.4431555374     2.8116125893    17.5665702724
Cu      3.6705110760     4.9384343512    17.5687388115
Cu      4.8988742539     7.0688538531    17.5715929661
Cu      3.6716454744     0.6829118137    17.5713989532
Cu      4.8981418913     2.8112417067    17.5722074693
Cu      6.1274353048     4.9410331682    17.5708265763
Cu      7.3554752500     7.0698228126    17.5713297733
Cu      6.1297077779     0.6833063606    17.5689100221
Cu      7.3567237656     2.8135682139    17.5698797004
Cu      8.5851063076     4.9421568820    17.5702368079
Cu      9.8152975701     7.0699596058    17.5700617325
Cu      8.5865082080     0.6855771971    17.5667967496
Cu      9.8144914881     2.8135456562    17.5749499312
Cu     11.0427692018     4.9416447797    17.5690866435
Cu     12.2728600100     7.0692517198    17.5719744219
O       5.4816243728     2.5651691502    20.6539118200
O       7.3508896973     4.2099530947    19.0383354809
O       4.4981563510     3.9587391709    22.9072956728
C       5.9290713561     3.8945947838    20.9960208007
C       7.3297021271     4.1881915565    20.4688911028
C       5.8721709119     4.0116672750    22.5089584937
H       5.2340507257     4.6323215466    20.5533350446
H       8.0432145389     3.4244560240    20.8191443760
H       7.6571223136     5.1738780612    20.8354754738
H       6.3359933253     4.9675285031    22.8148914030
H       6.4497260984     3.1808581747    22.9509168945
H       5.8597578631     2.3152772777    19.7784701378
H       3.6583776659     2.5435355524    20.3168147116
H       4.4610770249     3.8064239805    23.8648388416
O       2.7103082747     2.5416543255    20.0177020144
H       2.4292112216     1.6097423068    20.0822731560
