80
Step 1 | NEB Image 1 | Cartesian Angstrom
Ni      1.2286497034     0.7093615225    11.2499999440
Ni      2.4572989609     2.8374461750    11.2499999440
Ni      3.6859482184     4.9655308275    11.2499999440
Ni      4.9145974759     7.0936154800    11.2499999440
Ni      3.6859497034     0.7093615225    11.2499999440
Ni      4.9145989609     2.8374461750    11.2499999440
Ni      6.1432482184     4.9655308275    11.2499999440
Ni      7.3718974759     7.0936154800    11.2499999440
Ni      6.1432497034     0.7093615225    11.2499999440
Ni      7.3718989609     2.8374461750    11.2499999440
Ni      8.6005482184     4.9655308275    11.2499999440
Ni      9.8291974759     7.0936154800    11.2499999440
Ni      8.6005497034     0.7093615225    11.2499999440
Ni      9.8291989609     2.8374461750    11.2499999440
Ni     11.0578482184     4.9655308275    11.2499999440
Ni     12.2864974759     7.0936154800    11.2499999440
Ni     14.7391156794     8.5053429999    13.3011712910
Ni     11.0531329642     2.1206495503    13.3008022026
Ni     12.2817169557     4.2489790177    13.3006008466
Ni     13.5101985270     6.3773433856    13.3009432678
Ni      7.3672569131     8.5047181091    13.3011774747
Ni      3.6813641840     2.1207833643    13.3007249066
Ni      4.9098915592     4.2493198517    13.3009123494
Ni      6.1382080000     6.3774560890    13.3011137055
Ni      9.8241033938     8.5046823573    13.3010831736
Ni      6.1383369699     2.1207818321    13.3007716707
Ni      7.3668809566     4.2490234521    13.3008056810
Ni      8.5953896076     6.3767159412    13.3009509974
Ni     12.2816608204     8.5051500252    13.3006066438
Ni      8.5958457422     2.1206092019    13.3010364095
Ni      9.8244550440     4.2487038138    13.3007276120
Ni     11.0528529688     6.3769410074    13.3006611374
Cu      2.4478274055     1.4024593708    15.3768195742
Cu      3.6763308468     3.5307009057    15.3768060474
Cu      4.9041378398     5.6597275336    15.3773448005
Cu      6.1330260451     7.7878910103    15.3784795057
Cu      4.9046987540     1.4026027186    15.3777977550
Cu      6.1325026510     3.5313493756    15.3777258697
Cu      7.3610720952     5.6598451741    15.3779276123
Cu      8.5906751295     7.7868954923    15.3785351588
Cu      7.3621786280     1.4037477983    15.3762151195
Cu      8.5904727564     3.5321453644    15.3780682910
Cu      9.8190628915     5.6596863338    15.3769316534
Cu     11.0489115080     7.7874997832    15.3777154348
Cu      9.8196453802     1.4041813317    15.3774700200
Cu     11.0479045662     3.5315147704    15.3771971651
Cu     12.2765483193     5.6595852924    15.3771299176
Cu     13.5054403579     7.7883030926    15.3772814178
Cu      1.2140125591     0.6836803076    17.5697065574
Cu      2.4431555374     2.8116125893    17.5665702724
Cu      3.6705110760     4.9384343512    17.5687388115
Cu      4.8988742539     7.0688538531    17.5715929661
Cu      3.6716454744     0.6829118137    17.5713989532
Cu      4.8981418913     2.8112417067    17.5722074693
Cu      6.1274353048     4.9410331682    17.5708265763
Cu      7.3554752500     7.0698228126    17.5713297733
Cu      6.1297077779     0.6833063606    17.5689100221
Cu      7.3567237656     2.8135682139    17.5698797004
Cu      8.5851063076     4.9421568820    17.5702368079
Cu      9.8152975701     7.0699596058    17.5700617325
Cu      8.5865082080     0.6855771971    17.5667967496
Cu      9.8144914881     2.8135456562    17.5749499312
Cu     11.0427692018     4.9416447797    17.5690866435
Cu     12.2728600100     7.0692517198    17.5719744219
O       7.2288202015     4.2734569284    22.3446828621
O       8.3044696405     5.3171068409    20.0014702420
O       8.8891638945     4.8479579810    24.7349733808
C       8.5251333110     4.9000290628    22.3715153937
C       9.1804211035     4.7744357207    20.9993344800
C       9.4189460410     4.3898719266    23.4895992517
H       8.3072385962     5.9614198807    22.5605187870
H       9.4153356173     3.7172718747    20.7683620669
H      10.1139922737     5.3503076003    20.9408546493
H      10.4461642949     4.7683945991    23.3275539960
H       9.4595638267     3.2836247445    23.4537018323
H       7.3561498138     3.3073831923    22.3295378714
H       7.4071380143     4.9636379387    20.1831718691
H       9.4432595602     4.5017937719    25.4528614775
O       2.4447775074     1.3898406800    19.0162048647
H       2.5328987835     1.2730973609    19.9764139723
80
Step 2 | NEB Image 2 | Cartesian Angstrom
Ni      1.2286131286     0.7093359238    11.2499278628
Ni      2.4572448203     2.8374311339    11.2498538445
Ni      3.6858902472     4.9655516427    11.2497946845
Ni      4.9145561457     7.0936760365    11.2497943079
Ni      3.6859157330     0.7093137173    11.2498688536
Ni      4.9145636625     2.8374153267    11.2497686540
Ni      6.1432294651     4.9655506102    11.2497165502
Ni      7.3719030543     7.0936805257    11.2497575901
Ni      6.1432392554     0.7092954888    11.2498209532
Ni      7.3719101329     2.8374065680    11.2497318720
Ni      8.6005860683     4.9655464308    11.2497214517
Ni      9.8292454058     7.0936678170    11.2497952804
Ni      8.6005749260     0.7092938068    11.2498160300
Ni      9.8292539385     2.8374117012    11.2497716683
Ni     11.0579169060     4.9655414667    11.2497998498
Ni     12.2865562403     7.0936485670    11.2498691982
Ni     14.7391880805     8.5053850884    13.3010813530
Ni     11.0533044466     2.1205393608    13.3004004029
Ni     12.2819014186     4.2489702169    13.3002657004
Ni     13.5103291504     6.3773862044    13.3007498086
Ni      7.3672632101     8.5049413102    13.3007414035
Ni      3.6812544040     2.1206798505    13.3002750847
Ni      4.9097637136     4.2493354112    13.3001927978
Ni      6.1381420969     6.3776467264    13.3004109248
Ni      9.8241985536     8.5048535999    13.3007309977
Ni      6.1383083659     2.1206099907    13.3001434961
Ni      7.3669253678     4.2490102907    13.2999541607
Ni      8.5954946790     6.3768801427    13.3002751111
Ni     12.2817669536     8.5052442000    13.3004071783
Ni      8.5959550081     2.1204373308    13.3004266594
Ni      9.8246445201     4.2486859119    13.3000813444
Ni     11.0530264270     6.3770367936    13.3002393360
Cu      2.4475466681     1.4021115379    15.3758468354
Cu      3.6758469768     3.5307947589    15.3747292505
Cu      4.9033522832     5.6604626747    15.3748529496
Cu      6.1327766284     7.7887505460    15.3770567728
Cu      4.9045513903     1.4019228596    15.3763797880
Cu      6.1323332391     3.5308816079    15.3744967497
Cu      7.3612178696     5.6605773180    15.3747081294
Cu      8.5909044050     7.7876495702    15.3771537893
Cu      7.3623329446     1.4028647286    15.3745208963
Cu      8.5910745615     3.5316583961    15.3753054754
Cu      9.8198144280     5.6600806678    15.3748712803
Cu     11.0492857266     7.7878779081    15.3769676404
Cu      9.8200984904     1.4035857218    15.3762647855
Cu     11.0485937614     3.5313088297    15.3759154796
Cu     12.2770417045     5.6597111191    15.3764137462
Cu     13.5056660057     7.7884348426    15.3770135790
Cu      1.2129197074     0.6827003415    17.5686356164
Cu      2.4404226772     2.8225705764    17.5459405020
Cu      3.6648768427     4.9415889431    17.5610880228
Cu      4.8962117527     7.0731244875    17.5668528802
Cu      3.6727151220     0.6801412805    17.5682552818
Cu      4.8947741941     2.8055746247    17.5566301931
Cu      6.1233268493     4.9489227453    17.5352579696
Cu      7.3549824589     7.0760227353    17.5630410328
Cu      6.1296445293     0.6801135901    17.5658580275
Cu      7.3604221580     2.8060320649    17.5533171927
Cu      8.5918700716     4.9435016410    17.5438298368
Cu      9.8172763821     7.0729417419    17.5651595434
Cu      8.5876206464     0.6826038964    17.5635391045
Cu      9.8181396530     2.8104245806    17.5678237099
Cu     11.0460752263     4.9418402206    17.5645121267
Cu     12.2738722136     7.0698520565    17.5708841747
O       6.5230278710     3.7416552418    21.8166248273
O       7.7817568594     5.0053589042    19.7678107495
O       7.5225111239     4.5259325891    24.4865719715
C       7.6573902861     4.5832321331    22.1095162317
C       8.5762802982     4.6117510847    20.8946385829
C       8.3822197939     4.2104359270    23.3838003782
H       7.2187924708     5.5867683047    22.2328378475
H       9.0373873198     3.6225429186    20.7076247874
H       9.3783055650     5.3561770222    20.9844357355
H       9.3230544928     4.7862170427    23.4331926685
H       8.6395784494     3.1370362774    23.3658584676
H       6.8327805197     2.8235046345    21.7329223191
H       6.9341382089     4.5029167990    19.8418754051
H       7.9625678664     4.2515088879    25.3105079435
O       2.4374173209     1.4090564230    19.0017194087
H       2.5107257737     1.3722702046    19.9687163759
80
Step 3 | NEB Image 3 | Cartesian Angstrom
Ni      1.2286018391     0.7093261055    11.2499022344
Ni      2.4572295153     2.8374257358    11.2497963412
Ni      3.6858811812     4.9655633747    11.2497183842
Ni      4.9145562341     7.0936998176    11.2497305738
Ni      3.6859085913     0.7092967878    11.2498198688
Ni      4.9145640218     2.8374086613    11.2496856475
Ni      6.1432404284     4.9655634202    11.2496313535
Ni      7.3719176622     7.0937025803    11.2496963952
Ni      6.1432460596     0.7092766090    11.2497608097
Ni      7.3719286997     2.8374010453    11.2496536935
Ni      8.6006099915     4.9655561830    11.2496533822
Ni      9.8292666134     7.0936834569    11.2497522358
Ni      8.6005926617     0.7092785794    11.2497649986
Ni      9.8292796806     2.8374079034    11.2497172231
Ni     11.0579421372     4.9655475411    11.2497590773
Ni     12.2865744690     7.0936572844    11.2498464426
Ni     14.7392039637     8.5053926117    13.3010718266
Ni     11.0533684606     2.1205253295    13.3003161175
Ni     12.2819566187     4.2489765062    13.3002107976
Ni     13.5103615015     6.3773969345    13.3007255747
Ni      7.3672926193     8.5050056663    13.3006400728
Ni      3.6812186381     2.1206320163    13.3000751890
Ni      4.9097741600     4.2493680101    13.2999132847
Ni      6.1381744764     6.3777223053    13.3002146134
Ni      9.8242393368     8.5048958293    13.3006660178
Ni      6.1383478879     2.1205678756    13.2999105846
Ni      7.3669931105     4.2490348179    13.2997217677
Ni      8.5955563219     6.3769352046    13.3001233078
Ni     12.2817970557     8.5052635010    13.3003797671
Ni      8.5960261604     2.1204088750    13.3002622380
Ni      9.8247259280     4.2486969689    13.2999390248
Ni     11.0530859630     6.3770649396    13.3001654846
Cu      2.4473718348     1.4019036766    15.3756436519
Cu      3.6755526377     3.5308294315    15.3734540385
Cu      4.9034452756     5.6608664032    15.3739666658
Cu      6.1328412927     7.7890112540    15.3767074981
Cu      4.9045268934     1.4014922528    15.3755386039
Cu      6.1327060564     3.5310007622    15.3733280052
Cu      7.3614009009     5.6608529919    15.3739928444
Cu      8.5910491705     7.7878490172    15.3768897616
Cu      7.3625711970     1.4026628115    15.3739447753
Cu      8.5913959664     3.5316197646    15.3746245926
Cu      9.8201394521     5.6602385009    15.3744365219
Cu     11.0494011237     7.7879541824    15.3768812818
Cu      9.8203145699     1.4034869020    15.3759747296
Cu     11.0488312946     3.5313089122    15.3757051230
Cu     12.2771650134     5.6597463873    15.3763496874
Cu     13.5057107229     7.7884541933    15.3769989727
Cu      1.2136550606     0.6832807610    17.5696147527
Cu      2.4379356029     2.8196511585    17.5405319765
Cu      3.6607212332     4.9461000128    17.5521940067
Cu      4.8964757730     7.0748354142    17.5653489822
Cu      3.6710577865     0.6799469440    17.5687567105
Cu      4.8936903424     2.7994794269    17.5363581370
Cu      6.1291169519     4.9528862500    17.5341560593
Cu      7.3555084186     7.0775239637    17.5615265886
Cu      6.1302574622     0.6782057886    17.5636803524
Cu      7.3631723890     2.8068751494    17.5500990371
Cu      8.5970477338     4.9458071937    17.5343004368
Cu      9.8180673996     7.0734588284    17.5648117936
Cu      8.5885528292     0.6817848221    17.5622777095
Cu      9.8197881631     2.8100626609    17.5665152157
Cu     11.0468651765     4.9420450138    17.5645360137
Cu     12.2740170821     7.0698884734    17.5709415751
O       6.0450792828     3.5137894118    21.1553688299
O       7.4300860186     4.3713542037    19.3536950884
O       6.5029795485     4.3123874222    23.9051272728
C       7.0826297978     4.4211556940    21.6214903494
C       8.1902364716     4.4548260907    20.5697522876
C       7.5640403808     4.0917449228    23.0101412698
H       6.5792844240     5.3964379343    21.6257813163
H       8.8832717087     3.5988590306    20.6137914264
H       8.7683555456     5.3842912276    20.5600985122
H       8.4426122459     4.7406862621    23.2171898007
H       7.9224011877     3.0350874086    23.0181427712
H       6.3995583227     2.6109222512    21.0596333786
H       6.5476357666     3.9724288008    19.6769918732
H       6.8151134800     4.1715846080    24.8134389358
O       3.0449567658     1.7614772640    19.1467902872
H       2.3455187334     1.3611221717    19.6989723580
80
Step 4 | NEB Image 4 | Cartesian Angstrom
Ni      1.2286093660     0.7093317282    11.2499125438
Ni      2.4572413556     2.8374305512    11.2498214291
Ni      3.6858940508     4.9655614219    11.2497556284
Ni      4.9145654216     7.0936901873    11.2497668199
Ni      3.6859162831     0.7093065008    11.2498388760
Ni      4.9145726131     2.8374168099    11.2497237549
Ni      6.1432460356     4.9655624286    11.2496792013
Ni      7.3719189978     7.0936933348    11.2497368166
Ni      6.1432504439     0.7092888564    11.2497858876
Ni      7.3719301523     2.8374101573    11.2496947288
Ni      8.6006070917     4.9655561255    11.2496973745
Ni      9.8292614446     7.0936765953    11.2497855534
Ni      8.6005922700     0.7092901762    11.2497904997
Ni      9.8292749765     2.8374151979    11.2497513719
Ni     11.0579344439     4.9655475793    11.2497907853
Ni     12.2865669834     7.0936530037    11.2498681515
Ni     14.7391933389     8.5053862544    13.3010878413
Ni     11.0533525373     2.1205460443    13.3003773504
Ni     12.2819339798     4.2489811998    13.3002667993
Ni     13.5103432188     6.3773914728    13.3007597375
Ni      7.3672970596     8.5049709568    13.3007132875
Ni      3.6812453588     2.1206593774    13.3001481065
Ni      4.9098065406     4.2493744640    13.3000468938
Ni      6.1381915492     6.3776928049    13.3003397560
Ni      9.8242291949     8.5048702027    13.3007261055
Ni      6.1383621319     2.1206071729    13.3000053339
Ni      7.3669941281     4.2490469467    13.2998595131
Ni      8.5955480153     6.3769146728    13.3002341287
Ni     12.2817825722     8.5052491834    13.3004149926
Ni      8.5960226658     2.1204417866    13.3003475195
Ni      9.8247086717     4.2487069818    13.3000392576
Ni     11.0530651454     6.3770533036    13.3002367153
Cu      2.4474279930     1.4019896285    15.3757724207
Cu      3.6756967843     3.5308584120    15.3738625613
Cu      4.9036417864     5.6607201596    15.3745150150
Cu      6.1329016660     7.7888637829    15.3769564543
Cu      4.9045957294     1.4016468068    15.3757169621
Cu      6.1327679965     3.5311678958    15.3739397650
Cu      7.3613898202     5.6607582245    15.3745475651
Cu      8.5910389375     7.7877361293    15.3771300786
Cu      7.3626025615     1.4028187495    15.3741403130
Cu      8.5913751524     3.5317387150    15.3750159764
Cu      9.8200661572     5.6602023514    15.3747842860
Cu     11.0493493624     7.7878935673    15.3770246734
Cu      9.8202978794     1.4035881089    15.3761468123
Cu     11.0487574044     3.5313582762    15.3759262913
Cu     12.2770931564     5.6597308977    15.3764869065
Cu     13.5056751101     7.7884325553    15.3770510793
Cu      1.2136055356     0.6833193405    17.5694258220
Cu      2.4381122128     2.8162915136    17.5460224745
Cu      3.6636080080     4.9459416141    17.5543083847
Cu      4.8970499520     7.0738337605    17.5662868527
Cu      3.6709268124     0.6801243617    17.5686015103
Cu      4.8976898096     2.8032599856    17.5391954989
Cu      6.1275194086     4.9501349717    17.5427020934
Cu      7.3558708416     7.0765936427    17.5629602988
Cu      6.1306060045     0.6785056858    17.5635053496
Cu      7.3626197269     2.8084248564    17.5517702698
Cu      8.5976416588     4.9468967360    17.5388019382
Cu      9.8177919943     7.0728979900    17.5659133422
Cu      8.5887644092     0.6821349292    17.5626043339
Cu      9.8195994930     2.8106807229    17.5678419613
Cu     11.0463048919     4.9420549250    17.5655616765
Cu     12.2738305336     7.0697747267    17.5711810932
O       5.9355878289     3.0366137001    20.9835110725
O       7.4851289633     4.2757760273    19.0596598553
O       5.9668961945     4.2749225488    23.6205623336
C       6.7082885600     4.2024696350    21.3464721690
C       7.9118100244     4.3494019461    20.4243360642
C       7.1230119274     4.0920311767    22.8103145675
H       6.0533697371     5.0869311944    21.2338852274
H       8.6388811446     3.5354580666    20.6125282936
H       8.4244319913     5.3049779855    20.6102808223
H       7.8921222046     4.8615266742    23.0323012482
H       7.5769749139     3.0959893035    22.9662967276
H       6.4183700011     2.5899168189    20.2341917800
H       4.4291387248     2.8997713608    20.2416364987
H       6.2073895131     4.0996857838    24.5497863345
O       3.5508023798     2.6930825954    19.7717401995
H       3.2242568874     1.8229414634    20.0524423673
80
Step 5 | NEB Image 5 | Cartesian Angstrom
Ni      1.2286497034     0.7093615225    11.2499999440
Ni      2.4572989609     2.8374461750    11.2499999440
Ni      3.6859482184     4.9655308275    11.2499999440
Ni      4.9145974759     7.0936154800    11.2499999440
Ni      3.6859497034     0.7093615225    11.2499999440
Ni      4.9145989609     2.8374461750    11.2499999440
Ni      6.1432482184     4.9655308275    11.2499999440
Ni      7.3718974759     7.0936154800    11.2499999440
Ni      6.1432497034     0.7093615225    11.2499999440
Ni      7.3718989609     2.8374461750    11.2499999440
Ni      8.6005482184     4.9655308275    11.2499999440
Ni      9.8291974759     7.0936154800    11.2499999440
Ni      8.6005497034     0.7093615225    11.2499999440
Ni      9.8291989609     2.8374461750    11.2499999440
Ni     11.0578482184     4.9655308275    11.2499999440
Ni     12.2864974759     7.0936154800    11.2499999440
Ni     14.7391156794     8.5053429999    13.3011712910
Ni     11.0531329642     2.1206495503    13.3008022026
Ni     12.2817169557     4.2489790177    13.3006008466
Ni     13.5101985270     6.3773433856    13.3009432678
Ni      7.3672569131     8.5047181091    13.3011774747
Ni      3.6813641840     2.1207833643    13.3007249066
Ni      4.9098915592     4.2493198517    13.3009123494
Ni      6.1382080000     6.3774560890    13.3011137055
Ni      9.8241033938     8.5046823573    13.3010831736
Ni      6.1383369699     2.1207818321    13.3007716707
Ni      7.3668809566     4.2490234521    13.3008056810
Ni      8.5953896076     6.3767159412    13.3009509974
Ni     12.2816608204     8.5051500252    13.3006066438
Ni      8.5958457422     2.1206092019    13.3010364095
Ni      9.8244550440     4.2487038138    13.3007276120
Ni     11.0528529688     6.3769410074    13.3006611374
Cu      2.4478274055     1.4024593708    15.3768195742
Cu      3.6763308468     3.5307009057    15.3768060474
Cu      4.9041378398     5.6597275336    15.3773448005
Cu      6.1330260451     7.7878910103    15.3784795057
Cu      4.9046987540     1.4026027186    15.3777977550
Cu      6.1325026510     3.5313493756    15.3777258697
Cu      7.3610720952     5.6598451741    15.3779276123
Cu      8.5906751295     7.7868954923    15.3785351588
Cu      7.3621786280     1.4037477983    15.3762151195
Cu      8.5904727564     3.5321453644    15.3780682910
Cu      9.8190628915     5.6596863338    15.3769316534
Cu     11.0489115080     7.7874997832    15.3777154348
Cu      9.8196453802     1.4041813317    15.3774700200
Cu     11.0479045662     3.5315147704    15.3771971651
Cu     12.2765483193     5.6595852924    15.3771299176
Cu     13.5054403579     7.7883030926    15.3772814178
Cu      1.2140125591     0.6836803076    17.5697065574
Cu      2.4431555374     2.8116125893    17.5665702724
Cu      3.6705110760     4.9384343512    17.5687388115
Cu      4.8988742539     7.0688538531    17.5715929661
Cu      3.6716454744     0.6829118137    17.5713989532
Cu      4.8981418913     2.8112417067    17.5722074693
Cu      6.1274353048     4.9410331682    17.5708265763
Cu      7.3554752500     7.0698228126    17.5713297733
Cu      6.1297077779     0.6833063606    17.5689100221
Cu      7.3567237656     2.8135682139    17.5698797004
Cu      8.5851063076     4.9421568820    17.5702368079
Cu      9.8152975701     7.0699596058    17.5700617325
Cu      8.5865082080     0.6855771971    17.5667967496
Cu      9.8144914881     2.8135456562    17.5749499312
Cu     11.0427692018     4.9416447797    17.5690866435
Cu     12.2728600100     7.0692517198    17.5719744219
O       5.4816243728     2.5651691502    20.6539118200
O       7.3508896973     4.2099530947    19.0383354809
O       4.4981563510     3.9587391709    22.9072956728
C       5.9290713561     3.8945947838    20.9960208007
C       7.3297021271     4.1881915565    20.4688911028
C       5.8721709119     4.0116672750    22.5089584937
H       5.2340507257     4.6323215466    20.5533350446
H       8.0432145389     3.4244560240    20.8191443760
H       7.6571223136     5.1738780612    20.8354754738
H       6.3359933253     4.9675285031    22.8148914030
H       6.4497260984     3.1808581747    22.9509168945
H       5.8597578631     2.3152772777    19.7784701378
H       3.6583776659     2.5435355524    20.3168147116
H       4.4610770249     3.8064239805    23.8648388416
O       2.7103082747     2.5416543255    20.0177020144
H       2.4292112216     1.6097423068    20.0822731560
