80
Step 1 | NEB Image 1 | Cartesian Angstrom
Ni      1.2286497034     0.7093615225    11.2499999440
Ni      2.4572989609     2.8374461750    11.2499999440
Ni      3.6859482184     4.9655308275    11.2499999440
Ni      4.9145974759     7.0936154800    11.2499999440
Ni      3.6859497034     0.7093615225    11.2499999440
Ni      4.9145989609     2.8374461750    11.2499999440
Ni      6.1432482184     4.9655308275    11.2499999440
Ni      7.3718974759     7.0936154800    11.2499999440
Ni      6.1432497034     0.7093615225    11.2499999440
Ni      7.3718989609     2.8374461750    11.2499999440
Ni      8.6005482184     4.9655308275    11.2499999440
Ni      9.8291974759     7.0936154800    11.2499999440
Ni      8.6005497034     0.7093615225    11.2499999440
Ni      9.8291989609     2.8374461750    11.2499999440
Ni     11.0578482184     4.9655308275    11.2499999440
Ni     12.2864974759     7.0936154800    11.2499999440
Ni     14.7391156794     8.5053429999    13.3011712910
Ni     11.0531329642     2.1206495503    13.3008022026
Ni     12.2817169557     4.2489790177    13.3006008466
Ni     13.5101985270     6.3773433856    13.3009432678
Ni      7.3672569131     8.5047181091    13.3011774747
Ni      3.6813641840     2.1207833643    13.3007249066
Ni      4.9098915592     4.2493198517    13.3009123494
Ni      6.1382080000     6.3774560890    13.3011137055
Ni      9.8241033938     8.5046823573    13.3010831736
Ni      6.1383369699     2.1207818321    13.3007716707
Ni      7.3668809566     4.2490234521    13.3008056810
Ni      8.5953896076     6.3767159412    13.3009509974
Ni     12.2816608204     8.5051500252    13.3006066438
Ni      8.5958457422     2.1206092019    13.3010364095
Ni      9.8244550440     4.2487038138    13.3007276120
Ni     11.0528529688     6.3769410074    13.3006611374
Cu      2.4478274055     1.4024593708    15.3768195742
Cu      3.6763308468     3.5307009057    15.3768060474
Cu      4.9041378398     5.6597275336    15.3773448005
Cu      6.1330260451     7.7878910103    15.3784795057
Cu      4.9046987540     1.4026027186    15.3777977550
Cu      6.1325026510     3.5313493756    15.3777258697
Cu      7.3610720952     5.6598451741    15.3779276123
Cu      8.5906751295     7.7868954923    15.3785351588
Cu      7.3621786280     1.4037477983    15.3762151195
Cu      8.5904727564     3.5321453644    15.3780682910
Cu      9.8190628915     5.6596863338    15.3769316534
Cu     11.0489115080     7.7874997832    15.3777154348
Cu      9.8196453802     1.4041813317    15.3774700200
Cu     11.0479045662     3.5315147704    15.3771971651
Cu     12.2765483193     5.6595852924    15.3771299176
Cu     13.5054403579     7.7883030926    15.3772814178
Cu      1.2140125591     0.6836803076    17.5697065574
Cu      2.4431555374     2.8116125893    17.5665702724
Cu      3.6705110760     4.9384343512    17.5687388115
Cu      4.8988742539     7.0688538531    17.5715929661
Cu      3.6716454744     0.6829118137    17.5713989532
Cu      4.8981418913     2.8112417067    17.5722074693
Cu      6.1274353048     4.9410331682    17.5708265763
Cu      7.3554752500     7.0698228126    17.5713297733
Cu      6.1297077779     0.6833063606    17.5689100221
Cu      7.3567237656     2.8135682139    17.5698797004
Cu      8.5851063076     4.9421568820    17.5702368079
Cu      9.8152975701     7.0699596058    17.5700617325
Cu      8.5865082080     0.6855771971    17.5667967496
Cu      9.8144914881     2.8135456562    17.5749499312
Cu     11.0427692018     4.9416447797    17.5690866435
Cu     12.2728600100     7.0692517198    17.5719744219
O       7.2288202015     4.2734569284    22.3446828621
O       8.3044696405     5.3171068409    20.0014702420
O       8.8891638945     4.8479579810    24.7349733808
C       8.5251333110     4.9000290628    22.3715153937
C       9.1804211035     4.7744357207    20.9993344800
C       9.4189460410     4.3898719266    23.4895992517
H       8.3072385962     5.9614198807    22.5605187870
H       9.4153356173     3.7172718747    20.7683620669
H      10.1139922737     5.3503076003    20.9408546493
H      10.4461642949     4.7683945991    23.3275539960
H       9.4595638267     3.2836247445    23.4537018323
H       7.3561498138     3.3073831923    22.3295378714
H       7.4071380143     4.9636379387    20.1831718691
H       9.4432595602     4.5017937719    25.4528614775
O       2.4447775074     1.3898406800    19.0162048647
H       2.5328987835     1.2730973609    19.9764139723
80
Step 2 | NEB Image 2 | Cartesian Angstrom
Ni      1.2286133394     0.7093361073    11.2499283420
Ni      2.4572451061     2.8374312347    11.2498549195
Ni      3.6858904161     4.9655514232    11.2497961106
Ni      4.9145561435     7.0936755919    11.2497954989
Ni      3.6859158663     0.7093140336    11.2498697694
Ni      4.9145636553     2.8374154510    11.2497702056
Ni      6.1432292595     4.9655503705    11.2497181422
Ni      7.3719027808     7.0936801134    11.2497587333
Ni      6.1432391278     0.7092958415    11.2498220775
Ni      7.3719097853     2.8374066708    11.2497333330
Ni      8.6005856206     4.9655462482    11.2497227234
Ni      9.8292450091     7.0936675246    11.2497960842
Ni      8.6005745940     0.7092940912    11.2498169838
Ni      9.8292534569     2.8374117718    11.2497726855
Ni     11.0579164342     4.9655413530    11.2498006111
Ni     12.2865558995     7.0936484041    11.2498696230
Ni     14.7391877838     8.5053849479    13.3010815304
Ni     11.0533032493     2.1205396222    13.3004019771
Ni     12.2819003867     4.2489700989    13.3002667249
Ni     13.5103285459     6.3773860038    13.3007502603
Ni      7.3672626593     8.5049401076    13.3007432960
Ni      3.6812550719     2.1206807444    13.3002788223
Ni      4.9097635162     4.2493348006    13.3001980223
Ni      6.1381414898     6.3776453134    13.3004145924
Ni      9.8241977908     8.5048528109    13.3007322106
Ni      6.1383076252     2.1206107768    13.3001478505
Ni      7.3669240997     4.2490098309    13.2999585029
Ni      8.5954935256     6.3768791132    13.3002779463
Ni     12.2817663909     8.5052438396    13.3004076894
Ni      8.5959536764     2.1204378616    13.3004297322
Ni      9.8246429972     4.2486857044    13.3000840027
Ni     11.0530253137     6.3770362674    13.3002407143
Cu      2.4475499376     1.4021154239    15.3758506313
Cu      3.6758524782     3.5307941082    15.3747530976
Cu      4.9033505311     5.6604551257    15.3748695083
Cu      6.1327754144     7.7887456743    15.3770632965
Cu      4.9045518449     1.4019309112    15.3763955239
Cu      6.1323262568     3.5308793678    15.3745185922
Cu      7.3612144441     5.6605721631    15.3747214868
Cu      8.5909016958     7.7876458433    15.3771587178
Cu      7.3623284830     1.4028684992    15.3745316695
Cu      8.5910685464     3.5316591124    15.3753181983
Cu      9.8198083481     5.6600777154    15.3748793985
Cu     11.0492835694     7.7878764838    15.3769692487
Cu      9.8200944465     1.4035875658    15.3762702051
Cu     11.0485893193     3.5313088253    15.3759194045
Cu     12.2770394004     5.6597104598    15.3764149374
Cu     13.5056651707     7.7884344817    15.3770138494
Cu      1.2129059452     0.6826894744    17.5686172989
Cu      2.4404692225     2.8226254186    17.5460414276
Cu      3.6649544651     4.9415045096    17.5612543878
Cu      4.8962067774     7.0730925184    17.5668809776
Cu      3.6727461532     0.6801449081    17.5682459045
Cu      4.8947942522     2.8056885027    17.5570095018
Cu      6.1232185565     4.9488487111    17.5352781037
Cu      7.3549725926     7.0759946875    17.5630692990
Cu      6.1296330357     0.6801492849    17.5658988014
Cu      7.3603707083     2.8060161938    17.5533773369
Cu      8.5917731168     4.9434584206    17.5440079580
Cu      9.8172615909     7.0729320949    17.5651659894
Cu      8.5876031847     0.6826192084    17.5635626977
Cu      9.8181088054     2.8104313197    17.5678481271
Cu     11.0460604715     4.9418363865    17.5645116205
Cu     12.2738695126     7.0698513814    17.5708830865
O       6.5447887274     3.7503345275    21.8613012021
O       7.8232275877     5.0628677693    19.8250592945
O       7.5549008663     4.4812134939    24.5420957996
C       7.6795949101     4.5842747496    22.1621109188
C       8.6006017673     4.6311073873    20.9487710592
C       8.4057573560     4.1879879326    23.4330863166
H       7.2450949612     5.5844064445    22.3065870384
H       9.0497237444     3.6404361510    20.7431268502
H       9.4120373016     5.3611261089    21.0642992481
H       9.3505001095     4.7610401956    23.4884038182
H       8.6653646493     3.1125242748    23.3931593697
H       6.8503411453     2.8270947888    21.7838867690
H       6.9728528340     4.5642411836    19.8699153085
H       8.0112402728     4.2259303562    25.3604072963
O       2.4456627661     1.4136682374    18.9967228079
H       2.5156268651     1.3785929873    19.9670523407
80
Step 3 | NEB Image 3 | Cartesian Angstrom
Ni      1.2286016456     0.7093259285    11.2499017307
Ni      2.4572292686     2.8374256549    11.2497952297
Ni      3.6858810908     4.9655636316    11.2497169469
Ni      4.9145563237     7.0937002844    11.2497294221
Ni      3.6859084968     0.7092964827    11.2498188994
Ni      4.9145641121     2.8374085824    11.2496840609
Ni      6.1432407393     4.9655637116    11.2496298083
Ni      7.3719180179     7.0937030102    11.2496953429
Ni      6.1432462611     0.7092762822    11.2497596360
Ni      7.3719291496     2.8374010023    11.2496522482
Ni      8.6006105258     4.9655564115    11.2496522025
Ni      9.8292670623     7.0936837588    11.2497515421
Ni      8.6005930745     0.7092783322    11.2497640429
Ni      9.8292802404     2.8374078837    11.2497162696
Ni     11.0579426565     4.9655476841    11.2497584217
Ni     12.2865748259     7.0936574484    11.2498461149
Ni     14.7392042356     8.5053927278    13.3010717554
Ni     11.0533698124     2.1205251972    13.3003147211
Ni     12.2819576995     4.2489766986    13.3002100414
Ni     13.5103620872     6.3773971345    13.3007253309
Ni      7.3672933523     8.5050068472    13.3006383902
Ni      3.6812180526     2.1206311534    13.3000711887
Ni      4.9097747136     4.2493688372    13.2999079925
Ni      6.1381753994     6.3777237994    13.3002111947
Ni      9.8242401981     8.5048965770    13.3006650638
Ni      6.1383489517     2.1205672608    13.2999060169
Ni      7.3669947111     4.2490355095    13.2997176215
Ni      8.5955576904     6.3769363022    13.3001207979
Ni     12.2817976247     8.5052638180    13.3003794588
Ni      8.5960277981     2.1204085201    13.3002591886
Ni      9.8247276755     4.2486973239    13.2999366368
Ni     11.0530871630     6.3770654898    13.3001644284
Cu      2.4473682636     1.4018996134    15.3756401063
Cu      3.6755470977     3.5308305217    15.3734279800
Cu      4.9034493306     5.6608744923    15.3739510727
Cu      6.1328433862     7.7890159726    15.3767016659
Cu      4.9045269735     1.4014836116    15.3755205470
Cu      6.1327154018     3.5310051519    15.3733063823
Cu      7.3614050938     5.6608585638    15.3739813278
Cu      8.5910524729     7.7878526263    15.3768858491
Cu      7.3625770910     1.4026595543    15.3739331069
Cu      8.5914033164     3.5316199899    15.3746123287
Cu      9.8201463874     5.6602418634    15.3744296229
Cu     11.0494033409     7.7879553965    15.3768806190
Cu      9.8203194856     1.4034855449    15.3759695561
Cu     11.0488361695     3.5313093842    15.3757022887
Cu     12.2771672251     5.6597470680    15.3763494895
Cu     13.5057114340     7.7884544417    15.3769991258
Cu      1.2136718588     0.6832947595    17.5696359488
Cu      2.4378788755     2.8195506063    17.5404572364
Cu      3.6606511258     4.9462044470    17.5520052633
Cu      4.8964874407     7.0748660579    17.5653225933
Cu      3.6710176169     0.6799440693    17.5687670088
Cu      4.8937029700     2.7993722787    17.5359090643
Cu      6.1292377210     4.9529531359    17.5342115541
Cu      7.3555242216     7.0775503618    17.5615046733
Cu      6.1302751756     0.6781638394    17.5636275434
Cu      7.3632317159     2.8069097052    17.5500393718
Cu      8.5971749864     4.9458717140    17.5341195009
Cu      9.8180833543     7.0734656320    17.5648141154
Cu      8.5885767361     0.6817689198    17.5622511957
Cu      9.8198250819     2.8100600463    17.5664971186
Cu     11.0468783936     4.9420499178    17.5645463408
Cu     12.2740187080     7.0698882456    17.5709452038
O       6.0066633812     3.4999854888    21.2951255620
O       7.4742164222     4.3639817136    19.4519827393
O       6.5044398501     4.3002648041    24.0597478897
C       7.0404203085     4.4028112466    21.7522998003
C       8.1593230548     4.4377456057    20.7100769349
C       7.5566611148     4.0729869504    23.1292601194
H       6.5370614496     5.3782486379    21.7644461730
H       8.8580112245     3.5881258837    20.7878645607
H       8.7327207134     5.3752929607    20.7254182896
H       8.4329814221     4.7185831989    23.3280036675
H       7.9034023425     3.0218187417    23.1397565741
H       6.3398995001     2.5817010647    21.3003240087
H       6.5916696072     3.9387806618    19.6762536577
H       6.8359758070     4.1151230230    24.9570950114
O       3.0686355454     1.7747061341    19.1408291663
H       2.3833214763     1.3912730331    19.7228799974
80
Step 4 | NEB Image 4 | Cartesian Angstrom
Ni      1.2286078968     0.7093306302    11.2499105278
Ni      2.4572390453     2.8374296119    11.2498165249
Ni      3.6858915423     4.9655618062    11.2497483511
Ni      4.9145636331     7.0936920704    11.2497597413
Ni      3.6859147832     0.7093046040    11.2498351585
Ni      4.9145709409     2.8374152213    11.2497163072
Ni      6.1432449480     4.9655626262    11.2496698567
Ni      7.3719187430     7.0936951424    11.2497289262
Ni      6.1432495928     0.7092864656    11.2497809844
Ni      7.3719298762     2.8374083815    11.2496867128
Ni      8.6006076648     4.9655561402    11.2496887865
Ni      9.8292624584     7.0936779366    11.2497790523
Ni      8.6005923525     0.7092879133    11.2497855173
Ni      9.8292759014     2.8374137765    11.2497447049
Ni     11.0579359505     4.9655475740    11.2497845984
Ni     12.2865684471     7.0936538401    11.2498639175
Ni     14.7391954129     8.5053874946    13.3010847204
Ni     11.0533556598     2.1205420069    13.3003654005
Ni     12.2819384065     4.2489802884    13.3002558782
Ni     13.5103467893     6.3773925398    13.3007530786
Ni      7.3672962057     8.5049777364    13.3006989991
Ni      3.6812401444     2.1206540341    13.3001338408
Ni      4.9098002410     4.2493732193    13.3000207852
Ni      6.1381882373     6.3776985746    13.3003153252
Ni      9.8242311837     8.5048752064    13.3007143854
Ni      6.1383593732     2.1205995081    13.2999868066
Ni      7.3669939541     4.2490445944    13.2998326161
Ni      8.5955496543     6.3769186893    13.3002125017
Ni     12.2817854023     8.5052519774    13.3004081257
Ni      8.5960233714     2.1204353698    13.3003308596
Ni      9.8247120599     4.2487050366    13.3000196951
Ni     11.0530692191     6.3770555788    13.3002228229
Cu      2.4474169986     1.4019728227    15.3757472816
Cu      3.6756686191     3.5308527829    15.3737825818
Cu      4.9036035659     5.6607487720    15.3744079550
Cu      6.1328899365     7.7888925832    15.3769078669
Cu      4.9045823208     1.4016165671    15.3756819422
Cu      6.1327560719     3.5311354033    15.3738202605
Cu      7.3613920424     5.6607767706    15.3744393258
Cu      8.5910409811     7.7877581756    15.3770832033
Cu      7.3625965409     1.4027883219    15.3741020434
Cu      8.5913793187     3.5317155458    15.3749395452
Cu      9.8200805410     5.6602094447    15.3747164338
Cu     11.0493594796     7.7879053941    15.3769967294
Cu      9.8203012055     1.4035683723    15.3761132105
Cu     11.0487718729     3.5313486668    15.3758831628
Cu     12.2771071883     5.6597339255    15.3764601720
Cu     13.5056820586     7.7884367744    15.3770409308
Cu      1.2136154385     0.6833120373    17.5694629491
Cu      2.4380769465     2.8169444760    17.5449517422
Cu      3.6630445744     4.9459740568    17.5538936200
Cu      4.8969382739     7.0740293567    17.5661037466
Cu      3.6709517176     0.6800897555    17.5686319010
Cu      4.8969108695     2.8025218727    17.5386359389
Cu      6.1278324574     4.9506719605    17.5410380924
Cu      7.3558004783     7.0767752782    17.5626806666
Cu      6.1305383742     0.6784466264    17.5635386401
Cu      7.3627282909     2.8081234842    17.5514437931
Cu      8.5975278886     4.9466854629    17.5379222592
Cu      9.8178458879     7.0730073496    17.5656987860
Cu      8.5887235544     0.6820664838    17.5625403021
Cu      9.8196368080     2.8105602793    17.5675832248
Cu     11.0464142409     4.9420530687    17.5653620250
Cu     12.2738668996     7.0697968821    17.5711344880
O       5.9827332550     2.9998983003    21.0175181554
O       7.4741480540     4.2637827600    19.0500107604
O       6.0697677981     4.2913219665    23.6566857318
C       6.7420082229     4.1868311255    21.3630714767
C       7.9211473773     4.3515814141    20.4098461863
C       7.2057779800     4.0909243648    22.8102705421
H       6.0686787665     5.0533303232    21.2647467834
H       8.6743117679     3.5621419705    20.5866638927
H       8.4094147087     5.3251847841    20.5800791944
H       7.9797111705     4.8593654794    23.0006075673
H       7.6562812514     3.0963390835    22.9694977291
H       6.4352877308     2.5689357063    20.2654839652
H       4.4060039862     2.9389000619    20.3149323602
H       6.3311808013     4.1041292589    24.5745477700
O       3.5133566378     2.7577219617    19.8934161271
H       3.2994398686     1.8209342798    20.0790484480
80
Step 5 | NEB Image 5 | Cartesian Angstrom
Ni      1.2286497034     0.7093615225    11.2499999440
Ni      2.4572989609     2.8374461750    11.2499999440
Ni      3.6859482184     4.9655308275    11.2499999440
Ni      4.9145974759     7.0936154800    11.2499999440
Ni      3.6859497034     0.7093615225    11.2499999440
Ni      4.9145989609     2.8374461750    11.2499999440
Ni      6.1432482184     4.9655308275    11.2499999440
Ni      7.3718974759     7.0936154800    11.2499999440
Ni      6.1432497034     0.7093615225    11.2499999440
Ni      7.3718989609     2.8374461750    11.2499999440
Ni      8.6005482184     4.9655308275    11.2499999440
Ni      9.8291974759     7.0936154800    11.2499999440
Ni      8.6005497034     0.7093615225    11.2499999440
Ni      9.8291989609     2.8374461750    11.2499999440
Ni     11.0578482184     4.9655308275    11.2499999440
Ni     12.2864974759     7.0936154800    11.2499999440
Ni     14.7391156794     8.5053429999    13.3011712910
Ni     11.0531329642     2.1206495503    13.3008022026
Ni     12.2817169557     4.2489790177    13.3006008466
Ni     13.5101985270     6.3773433856    13.3009432678
Ni      7.3672569131     8.5047181091    13.3011774747
Ni      3.6813641840     2.1207833643    13.3007249066
Ni      4.9098915592     4.2493198517    13.3009123494
Ni      6.1382080000     6.3774560890    13.3011137055
Ni      9.8241033938     8.5046823573    13.3010831736
Ni      6.1383369699     2.1207818321    13.3007716707
Ni      7.3668809566     4.2490234521    13.3008056810
Ni      8.5953896076     6.3767159412    13.3009509974
Ni     12.2816608204     8.5051500252    13.3006066438
Ni      8.5958457422     2.1206092019    13.3010364095
Ni      9.8244550440     4.2487038138    13.3007276120
Ni     11.0528529688     6.3769410074    13.3006611374
Cu      2.4478274055     1.4024593708    15.3768195742
Cu      3.6763308468     3.5307009057    15.3768060474
Cu      4.9041378398     5.6597275336    15.3773448005
Cu      6.1330260451     7.7878910103    15.3784795057
Cu      4.9046987540     1.4026027186    15.3777977550
Cu      6.1325026510     3.5313493756    15.3777258697
Cu      7.3610720952     5.6598451741    15.3779276123
Cu      8.5906751295     7.7868954923    15.3785351588
Cu      7.3621786280     1.4037477983    15.3762151195
Cu      8.5904727564     3.5321453644    15.3780682910
Cu      9.8190628915     5.6596863338    15.3769316534
Cu     11.0489115080     7.7874997832    15.3777154348
Cu      9.8196453802     1.4041813317    15.3774700200
Cu     11.0479045662     3.5315147704    15.3771971651
Cu     12.2765483193     5.6595852924    15.3771299176
Cu     13.5054403579     7.7883030926    15.3772814178
Cu      1.2140125591     0.6836803076    17.5697065574
Cu      2.4431555374     2.8116125893    17.5665702724
Cu      3.6705110760     4.9384343512    17.5687388115
Cu      4.8988742539     7.0688538531    17.5715929661
Cu      3.6716454744     0.6829118137    17.5713989532
Cu      4.8981418913     2.8112417067    17.5722074693
Cu      6.1274353048     4.9410331682    17.5708265763
Cu      7.3554752500     7.0698228126    17.5713297733
Cu      6.1297077779     0.6833063606    17.5689100221
Cu      7.3567237656     2.8135682139    17.5698797004
Cu      8.5851063076     4.9421568820    17.5702368079
Cu      9.8152975701     7.0699596058    17.5700617325
Cu      8.5865082080     0.6855771971    17.5667967496
Cu      9.8144914881     2.8135456562    17.5749499312
Cu     11.0427692018     4.9416447797    17.5690866435
Cu     12.2728600100     7.0692517198    17.5719744219
O       5.4816243728     2.5651691502    20.6539118200
O       7.3508896973     4.2099530947    19.0383354809
O       4.4981563510     3.9587391709    22.9072956728
C       5.9290713561     3.8945947838    20.9960208007
C       7.3297021271     4.1881915565    20.4688911028
C       5.8721709119     4.0116672750    22.5089584937
H       5.2340507257     4.6323215466    20.5533350446
H       8.0432145389     3.4244560240    20.8191443760
H       7.6571223136     5.1738780612    20.8354754738
H       6.3359933253     4.9675285031    22.8148914030
H       6.4497260984     3.1808581747    22.9509168945
H       5.8597578631     2.3152772777    19.7784701378
H       3.6583776659     2.5435355524    20.3168147116
H       4.4610770249     3.8064239805    23.8648388416
O       2.7103082747     2.5416543255    20.0177020144
H       2.4292112216     1.6097423068    20.0822731560
