80
Step 1 | NEB Image 1 | Cartesian Angstrom
Ni      1.2286497034     0.7093615225    11.2499999440
Ni      2.4572989609     2.8374461750    11.2499999440
Ni      3.6859482184     4.9655308275    11.2499999440
Ni      4.9145974759     7.0936154800    11.2499999440
Ni      3.6859497034     0.7093615225    11.2499999440
Ni      4.9145989609     2.8374461750    11.2499999440
Ni      6.1432482184     4.9655308275    11.2499999440
Ni      7.3718974759     7.0936154800    11.2499999440
Ni      6.1432497034     0.7093615225    11.2499999440
Ni      7.3718989609     2.8374461750    11.2499999440
Ni      8.6005482184     4.9655308275    11.2499999440
Ni      9.8291974759     7.0936154800    11.2499999440
Ni      8.6005497034     0.7093615225    11.2499999440
Ni      9.8291989609     2.8374461750    11.2499999440
Ni     11.0578482184     4.9655308275    11.2499999440
Ni     12.2864974759     7.0936154800    11.2499999440
Ni     14.7391156794     8.5053429999    13.3011712910
Ni     11.0531329642     2.1206495503    13.3008022026
Ni     12.2817169557     4.2489790177    13.3006008466
Ni     13.5101985270     6.3773433856    13.3009432678
Ni      7.3672569131     8.5047181091    13.3011774747
Ni      3.6813641840     2.1207833643    13.3007249066
Ni      4.9098915592     4.2493198517    13.3009123494
Ni      6.1382080000     6.3774560890    13.3011137055
Ni      9.8241033938     8.5046823573    13.3010831736
Ni      6.1383369699     2.1207818321    13.3007716707
Ni      7.3668809566     4.2490234521    13.3008056810
Ni      8.5953896076     6.3767159412    13.3009509974
Ni     12.2816608204     8.5051500252    13.3006066438
Ni      8.5958457422     2.1206092019    13.3010364095
Ni      9.8244550440     4.2487038138    13.3007276120
Ni     11.0528529688     6.3769410074    13.3006611374
Cu      2.4478274055     1.4024593708    15.3768195742
Cu      3.6763308468     3.5307009057    15.3768060474
Cu      4.9041378398     5.6597275336    15.3773448005
Cu      6.1330260451     7.7878910103    15.3784795057
Cu      4.9046987540     1.4026027186    15.3777977550
Cu      6.1325026510     3.5313493756    15.3777258697
Cu      7.3610720952     5.6598451741    15.3779276123
Cu      8.5906751295     7.7868954923    15.3785351588
Cu      7.3621786280     1.4037477983    15.3762151195
Cu      8.5904727564     3.5321453644    15.3780682910
Cu      9.8190628915     5.6596863338    15.3769316534
Cu     11.0489115080     7.7874997832    15.3777154348
Cu      9.8196453802     1.4041813317    15.3774700200
Cu     11.0479045662     3.5315147704    15.3771971651
Cu     12.2765483193     5.6595852924    15.3771299176
Cu     13.5054403579     7.7883030926    15.3772814178
Cu      1.2140125591     0.6836803076    17.5697065574
Cu      2.4431555374     2.8116125893    17.5665702724
Cu      3.6705110760     4.9384343512    17.5687388115
Cu      4.8988742539     7.0688538531    17.5715929661
Cu      3.6716454744     0.6829118137    17.5713989532
Cu      4.8981418913     2.8112417067    17.5722074693
Cu      6.1274353048     4.9410331682    17.5708265763
Cu      7.3554752500     7.0698228126    17.5713297733
Cu      6.1297077779     0.6833063606    17.5689100221
Cu      7.3567237656     2.8135682139    17.5698797004
Cu      8.5851063076     4.9421568820    17.5702368079
Cu      9.8152975701     7.0699596058    17.5700617325
Cu      8.5865082080     0.6855771971    17.5667967496
Cu      9.8144914881     2.8135456562    17.5749499312
Cu     11.0427692018     4.9416447797    17.5690866435
Cu     12.2728600100     7.0692517198    17.5719744219
O       7.2288202015     4.2734569284    22.3446828621
O       8.3044696405     5.3171068409    20.0014702420
O       8.8891638945     4.8479579810    24.7349733808
C       8.5251333110     4.9000290628    22.3715153937
C       9.1804211035     4.7744357207    20.9993344800
C       9.4189460410     4.3898719266    23.4895992517
H       8.3072385962     5.9614198807    22.5605187870
H       9.4153356173     3.7172718747    20.7683620669
H      10.1139922737     5.3503076003    20.9408546493
H      10.4461642949     4.7683945991    23.3275539960
H       9.4595638267     3.2836247445    23.4537018323
H       7.3561498138     3.3073831923    22.3295378714
H       7.4071380143     4.9636379387    20.1831718691
H       9.4432595602     4.5017937719    25.4528614775
O       2.4447775074     1.3898406800    19.0162048647
H       2.5328987835     1.2730973609    19.9764139723
80
Step 2 | NEB Image 2 | Cartesian Angstrom
Ni      1.2286133431     0.7093361105    11.2499283507
Ni      2.4572451108     2.8374312363    11.2498549389
Ni      3.6858904185     4.9655514190    11.2497961362
Ni      4.9145561427     7.0936755838    11.2497955198
Ni      3.6859158683     0.7093140392    11.2498697862
Ni      4.9145636544     2.8374154529    11.2497702336
Ni      6.1432292550     4.9655503658    11.2497181702
Ni      7.3719027753     7.0936801059    11.2497587529
Ni      6.1432391249     0.7092958475    11.2498220980
Ni      7.3719097782     2.8374066721    11.2497333589
Ni      8.6005856119     4.9655462446    11.2497227453
Ni      9.8292450016     7.0936675193    11.2497960976
Ni      8.6005745874     0.7092940960    11.2498170008
Ni      9.8292534477     2.8374117727    11.2497727031
Ni     11.0579164254     4.9655413507    11.2498006238
Ni     12.2865558933     7.0936484012    11.2498696297
Ni     14.7391877787     8.5053849456    13.3010815327
Ni     11.0533032266     2.1205396258    13.3004020037
Ni     12.2819003678     4.2489700962    13.3002667409
Ni     13.5103285353     6.3773860002    13.3007502666
Ni      7.3672626480     8.5049400863    13.3007433280
Ni      3.6812550831     2.1206807600    13.3002788911
Ni      4.9097635097     4.2493347880    13.3001981160
Ni      6.1381414764     6.3776452875    13.3004146557
Ni      9.8241977763     8.5048527972    13.3007322301
Ni      6.1383076093     2.1206107893    13.3001479299
Ni      7.3669240743     4.2490098207    13.2999585787
Ni      8.5954935032     6.3768790942    13.3002779941
Ni     12.2817663808     8.5052438335    13.3004076968
Ni      8.5959536501     2.1204378696    13.3004297868
Ni      9.8246429682     4.2486856994    13.3000840479
Ni     11.0530252931     6.3770362578    13.3002407362
Cu      2.4475499984     1.4021154947    15.3758506969
Cu      3.6758525766     3.5307940929    15.3747535413
Cu      4.9033504807     5.6604549866    15.3748697956
Cu      6.1327753854     7.7887455887    15.3770634071
Cu      4.9045518485     1.4019310597    15.3763958238
Cu      6.1323261126     3.5308793100    15.3745189798
Cu      7.3612143766     5.6605720677    15.3747217096
Cu      8.5909016425     7.7876457778    15.3771587972
Cu      7.3623283914     1.4028685622    15.3745318690
Cu      8.5910684280     3.5316591173    15.3753184213
Cu      9.8198082326     5.6600776593    15.3748795331
Cu     11.0492835305     7.7878764601    15.3769692695
Cu      9.8200943672     1.4035875946    15.3762702997
Cu     11.0485892365     3.5313088213    15.3759194654
Cu     12.2770393601     5.6597104479    15.3764149504
Cu     13.5056651569     7.7884344762    15.3770138507
Cu      1.2129056745     0.6826892545    17.5686169482
Cu      2.4404701374     2.8226267777    17.5460430091
Cu      3.6649557866     4.9415028372    17.5612575411
Cu      4.8962066329     7.0730919594    17.5668814644
Cu      3.6727467828     0.6801449665    17.5682457296
Cu      4.8947943374     2.8056904773    17.5570168475
Cu      6.1232165214     4.9488474505    17.5352778322
Cu      7.3549723671     7.0759942011    17.5630697501
Cu      6.1296327789     0.6801499736    17.5658996289
Cu      7.3603697252     2.8060157551    17.5533784055
Cu      8.5917711352     4.9434574723    17.5440111578
Cu      9.8172613175     7.0729319466    17.5651660313
Cu      8.5876028196     0.6826194864    17.5635631428
Cu      9.8181082047     2.8104314055    17.5678485098
Cu     11.0460602212     4.9418363092    17.5645115296
Cu     12.2738694733     7.0698513769    17.5708830459
O       6.5453894493     3.7382965797    21.8558085884
O       7.8183574702     5.0555758670    19.8181461681
O       7.5557722405     4.4872313929    24.5376683696
C       7.6792888068     4.5853064647    22.1545268042
C       8.5980277133     4.6301976108    20.9427215674
C       8.4018551927     4.1948847157    23.4285072547
H       7.2428130338     5.5854302396    22.2984359934
H       9.0489618085     3.6370198100    20.7393007280
H       9.4084779985     5.3599384054    21.0544069598
H       9.3494187267     4.7652248683    23.4808130328
H       8.6639434840     3.1143416299    23.3900131829
H       6.8453450292     2.8372360970    21.7813604025
H       6.9681821423     4.5579747776    19.8665049057
H       8.0063989933     4.2323636932    25.3524081699
O       2.4552075243     1.4161598236    19.0306636904
H       2.5123302506     1.3784263357    19.9370729981
80
Step 3 | NEB Image 3 | Cartesian Angstrom
Ni      1.2286016298     0.7093259160    11.2499017040
Ni      2.4572292449     2.8374256457    11.2497951672
Ni      3.6858810687     4.9655636401    11.2497168586
Ni      4.9145563111     7.0937003092    11.2497293413
Ni      3.6859084828     0.7092964611    11.2498188494
Ni      4.9145641005     2.8374085680    11.2496839681
Ni      6.1432407370     4.9655637192    11.2496297011
Ni      7.3719180233     7.0937030337    11.2496952576
Ni      6.1432462584     0.7092762562    11.2497595723
Ni      7.3719291567     2.8374009871    11.2496521538
Ni      8.6006105414     4.9655564163    11.2496521090
Ni      9.8292670797     7.0936837759    11.2497514754
Ni      8.6005930837     0.7092783089    11.2497639831
Ni      9.8292802594     2.8374078718    11.2497161962
Ni     11.0579426794     4.9655476870    11.2497583583
Ni     12.2865748450     7.0936574585    11.2498460740
Ni     14.7392042579     8.5053927402    13.3010717288
Ni     11.0533698655     2.1205251620    13.3003145960
Ni     12.2819577575     4.2489766952    13.3002099378
Ni     13.5103621280     6.3773971472    13.3007252722
Ni      7.3672933606     8.5050069262    13.3006382403
Ni      3.6812179985     2.1206310926    13.3000709912
Ni      4.9097746743     4.2493688442    13.2999076729
Ni      6.1381753918     6.3777238767    13.3002109273
Ni      9.8242402319     8.5048966328    13.3006649498
Ni      6.1383489514     2.1205671863    13.2999057733
Ni      7.3669947428     4.2490355048    13.2997173192
Ni      8.5955577319     6.3769363573    13.3001205719
Ni     12.2817976592     8.5052638470    13.3003793971
Ni      8.5960278376     2.1204084611    13.3002589915
Ni      9.8247277389     4.2486973156    13.2999364300
Ni     11.0530872206     6.3770655195    13.3001642948
Cu      2.4473681012     1.4018993941    15.3756398306
Cu      3.6755467564     3.5308304989    15.3734267975
Cu      4.9034491067     5.6608748898    15.3739498884
Cu      6.1328433350     7.7890163020    15.3767011542
Cu      4.9045268672     1.4014831895    15.3755198918
Cu      6.1327154989     3.5310049810    15.3733049732
Cu      7.3614051984     5.6608588282    15.3739802183
Cu      8.5910525576     7.7878528784    15.3768853908
Cu      7.3625771643     1.4026592420    15.3739325576
Cu      8.5914035018     3.5316198080    15.3746114598
Cu      9.8201466466     5.6602419900    15.3744289340
Cu     11.0494034682     7.7879555168    15.3768803804
Cu      9.8203196139     1.4034853579    15.3759691787
Cu     11.0488363867     3.5313093166    15.3757018829
Cu     12.2771673838     5.6597471065    15.3763492702
Cu     13.5057115046     7.7884544808    15.3769990473
Cu      1.2136722857     0.6832949900    17.5696366858
Cu      2.4378774192     2.8195537857    17.5404470705
Cu      3.6606451403     4.9462068666    17.5519980230
Cu      4.8964867826     7.0748682661    17.5653205736
Cu      3.6710169872     0.6799437312    17.5687674663
Cu      4.8936969592     2.7993641212    17.5358952779
Cu      6.1292427376     4.9529588419    17.5341993029
Cu      7.3555239817     7.0775523698    17.5615019689
Cu      6.1302749972     0.6781624969    17.5636267200
Cu      7.3632338161     2.8069079928    17.5500355100
Cu      8.5971767003     4.9458713463    17.5341086786
Cu      9.8180841180     7.0734666531    17.5648124358
Cu      8.5885769012     0.6817680400    17.5622501322
Cu      9.8198261453     2.8100590225    17.5664946613
Cu     11.0468795472     4.9420500042    17.5645449467
Cu     12.2740190344     7.0698884193    17.5709449035
O       6.0074554883     3.4957484664    21.2674986309
O       7.4675461463     4.3623370559    19.4376925916
O       6.5036153993     4.2971670834    24.0834044520
C       7.0509108971     4.3967702311    21.7403412529
C       8.1588591940     4.4488137817    20.6937637492
C       7.5682511773     4.0734448649    23.0911936610
H       6.5366033884     5.3851087472    21.7398866117
H       8.8641196825     3.5858736904    20.7679517735
H       8.7350144952     5.3732112176    20.7081234014
H       8.4275607136     4.7202754330    23.3078892016
H       7.9017444577     3.0270779132    23.1201999420
H       6.3424514309     2.5867960981    21.2662777127
H       6.5890248052     3.9364523226    19.6848400223
H       6.8180122522     4.1284205772    24.9004889190
O       3.0635229184     1.7778455115    19.1461539205
H       2.3767553517     1.3862071800    19.7166469970
80
Step 4 | NEB Image 4 | Cartesian Angstrom
Ni      1.2286081555     0.7093308249    11.2499108932
Ni      2.4572394495     2.8374297754    11.2498174089
Ni      3.6858919734     4.9655617295    11.2497496535
Ni      4.9145639337     7.0936917292    11.2497609973
Ni      3.6859150428     0.7093049404    11.2498358342
Ni      4.9145712216     2.8374154953    11.2497176452
Ni      6.1432451195     4.9655625797    11.2496715158
Ni      7.3719187707     7.0936948157    11.2497303161
Ni      6.1432497289     0.7092868871    11.2497818709
Ni      7.3719299034     2.8374086858    11.2496881414
Ni      8.6006075437     4.9655561276    11.2496903008
Ni      9.8292622660     7.0936776949    11.2497801898
Ni      8.6005923203     0.7092883095    11.2497864078
Ni      9.8292757193     2.8374140194    11.2497458821
Ni     11.0579356711     4.9655475686    11.2497856807
Ni     12.2865681822     7.0936536904    11.2498646529
Ni     14.7391950478     8.5053872783    13.3010852550
Ni     11.0533550687     2.1205427002    13.3003674968
Ni     12.2819376051     4.2489804351    13.3002577711
Ni     13.5103461555     6.3773923494    13.3007542233
Ni      7.3672963189     8.5049765300    13.3007015062
Ni      3.6812410581     2.1206549819    13.3001364459
Ni      4.9098012894     4.2493733949    13.3000254638
Ni      6.1381887606     6.3776975264    13.3003196357
Ni      9.8242308072     8.5048743214    13.3007164231
Ni      6.1383597962     2.1206008403    13.2999901624
Ni      7.3669939134     4.2490449646    13.2998373785
Ni      8.5955493150     6.3769179570    13.3002162948
Ni     12.2817848954     8.5052514877    13.3004093085
Ni      8.5960231792     2.1204364781    13.3003338306
Ni      9.8247114061     4.2487053522    13.3000231313
Ni     11.0530684726     6.3770551671    13.3002252350
Cu      2.4474190278     1.4019758631    15.3757517183
Cu      3.6756736588     3.5308536935    15.3737973469
Cu      4.9036098960     5.6607435440    15.3744268713
Cu      6.1328918418     7.7888874715    15.3769163971
Cu      4.9045846005     1.4016220964    15.3756886995
Cu      6.1327576915     3.5311407433    15.3738415611
Cu      7.3613914797     5.6607733675    15.3744582637
Cu      8.5910404879     7.7877542628    15.3770913575
Cu      7.3625973070     1.4027936465    15.3741090732
Cu      8.5913782861     3.5317194812    15.3749530995
Cu      9.8200777867     5.6602080889    15.3747282913
Cu     11.0493576594     7.7879033268    15.3770015170
Cu      9.8203004230     1.4035717928    15.3761191599
Cu     11.0487691948     3.5313502824    15.3758906315
Cu     12.2771047017     5.6597333800    15.3764647331
Cu     13.5056808441     7.7884360450    15.3770426522
Cu      1.2136130136     0.6833126654    17.5694556950
Cu      2.4380854462     2.8168377077    17.5451373579
Cu      3.6631436012     4.9459639403    17.5539725472
Cu      4.8969567780     7.0739947023    17.5661360871
Cu      3.6709492429     0.6800957748    17.5686262731
Cu      4.8970429559     2.8026522734    17.5387509692
Cu      6.1277738397     4.9505775785    17.5413190063
Cu      7.3558117652     7.0767431877    17.5627292474
Cu      6.1305491118     0.6784585278    17.5635352933
Cu      7.3627071955     2.8081732839    17.5515020106
Cu      8.5975416666     4.9467186025    17.5380800109
Cu      9.8178360091     7.0729884281    17.5657352195
Cu      8.5887294601     0.6820788382    17.5625523715
Cu      9.8196288305     2.8105809039    17.5676280794
Cu     11.0463950393     4.9420531692    17.5653955685
Cu     12.2738606355     7.0697931194    17.5711422646
O       5.9801479333     2.9972024725    21.0099751069
O       7.4765879781     4.2624463854    19.0460886472
O       6.0586439110     4.2832503385    23.6978770321
C       6.7488224603     4.1751255076    21.3566900078
C       7.9105286970     4.3586462731    20.4090089985
C       7.1960394817     4.0956753282    22.7894828918
H       6.0537543958     5.0544769010    21.2520649157
H       8.6688587108     3.5534114636    20.5880417697
H       8.4066637087     5.3210222682    20.5787773936
H       7.9651967824     4.8598596982    22.9980858022
H       7.6434359856     3.0948525836    22.9655626463
H       6.4413670802     2.5690449589    20.2506029999
H       4.3926586418     2.9524831803    20.3362116868
H       6.2982558162     4.1128220846    24.5241486394
O       3.5185708468     2.7840601001    19.8953734581
H       3.2969343635     1.7883701451    20.0828781762
80
Step 5 | NEB Image 5 | Cartesian Angstrom
Ni      1.2286497034     0.7093615225    11.2499999440
Ni      2.4572989609     2.8374461750    11.2499999440
Ni      3.6859482184     4.9655308275    11.2499999440
Ni      4.9145974759     7.0936154800    11.2499999440
Ni      3.6859497034     0.7093615225    11.2499999440
Ni      4.9145989609     2.8374461750    11.2499999440
Ni      6.1432482184     4.9655308275    11.2499999440
Ni      7.3718974759     7.0936154800    11.2499999440
Ni      6.1432497034     0.7093615225    11.2499999440
Ni      7.3718989609     2.8374461750    11.2499999440
Ni      8.6005482184     4.9655308275    11.2499999440
Ni      9.8291974759     7.0936154800    11.2499999440
Ni      8.6005497034     0.7093615225    11.2499999440
Ni      9.8291989609     2.8374461750    11.2499999440
Ni     11.0578482184     4.9655308275    11.2499999440
Ni     12.2864974759     7.0936154800    11.2499999440
Ni     14.7391156794     8.5053429999    13.3011712910
Ni     11.0531329642     2.1206495503    13.3008022026
Ni     12.2817169557     4.2489790177    13.3006008466
Ni     13.5101985270     6.3773433856    13.3009432678
Ni      7.3672569131     8.5047181091    13.3011774747
Ni      3.6813641840     2.1207833643    13.3007249066
Ni      4.9098915592     4.2493198517    13.3009123494
Ni      6.1382080000     6.3774560890    13.3011137055
Ni      9.8241033938     8.5046823573    13.3010831736
Ni      6.1383369699     2.1207818321    13.3007716707
Ni      7.3668809566     4.2490234521    13.3008056810
Ni      8.5953896076     6.3767159412    13.3009509974
Ni     12.2816608204     8.5051500252    13.3006066438
Ni      8.5958457422     2.1206092019    13.3010364095
Ni      9.8244550440     4.2487038138    13.3007276120
Ni     11.0528529688     6.3769410074    13.3006611374
Cu      2.4478274055     1.4024593708    15.3768195742
Cu      3.6763308468     3.5307009057    15.3768060474
Cu      4.9041378398     5.6597275336    15.3773448005
Cu      6.1330260451     7.7878910103    15.3784795057
Cu      4.9046987540     1.4026027186    15.3777977550
Cu      6.1325026510     3.5313493756    15.3777258697
Cu      7.3610720952     5.6598451741    15.3779276123
Cu      8.5906751295     7.7868954923    15.3785351588
Cu      7.3621786280     1.4037477983    15.3762151195
Cu      8.5904727564     3.5321453644    15.3780682910
Cu      9.8190628915     5.6596863338    15.3769316534
Cu     11.0489115080     7.7874997832    15.3777154348
Cu      9.8196453802     1.4041813317    15.3774700200
Cu     11.0479045662     3.5315147704    15.3771971651
Cu     12.2765483193     5.6595852924    15.3771299176
Cu     13.5054403579     7.7883030926    15.3772814178
Cu      1.2140125591     0.6836803076    17.5697065574
Cu      2.4431555374     2.8116125893    17.5665702724
Cu      3.6705110760     4.9384343512    17.5687388115
Cu      4.8988742539     7.0688538531    17.5715929661
Cu      3.6716454744     0.6829118137    17.5713989532
Cu      4.8981418913     2.8112417067    17.5722074693
Cu      6.1274353048     4.9410331682    17.5708265763
Cu      7.3554752500     7.0698228126    17.5713297733
Cu      6.1297077779     0.6833063606    17.5689100221
Cu      7.3567237656     2.8135682139    17.5698797004
Cu      8.5851063076     4.9421568820    17.5702368079
Cu      9.8152975701     7.0699596058    17.5700617325
Cu      8.5865082080     0.6855771971    17.5667967496
Cu      9.8144914881     2.8135456562    17.5749499312
Cu     11.0427692018     4.9416447797    17.5690866435
Cu     12.2728600100     7.0692517198    17.5719744219
O       5.4816243728     2.5651691502    20.6539118200
O       7.3508896973     4.2099530947    19.0383354809
O       4.4981563510     3.9587391709    22.9072956728
C       5.9290713561     3.8945947838    20.9960208007
C       7.3297021271     4.1881915565    20.4688911028
C       5.8721709119     4.0116672750    22.5089584937
H       5.2340507257     4.6323215466    20.5533350446
H       8.0432145389     3.4244560240    20.8191443760
H       7.6571223136     5.1738780612    20.8354754738
H       6.3359933253     4.9675285031    22.8148914030
H       6.4497260984     3.1808581747    22.9509168945
H       5.8597578631     2.3152772777    19.7784701378
H       3.6583776659     2.5435355524    20.3168147116
H       4.4610770249     3.8064239805    23.8648388416
O       2.7103082747     2.5416543255    20.0177020144
H       2.4292112216     1.6097423068    20.0822731560
