80
Step 1 | NEB Image 1 | Cartesian Angstrom
Ni      1.2286497034     0.7093615225    11.2499999440
Ni      2.4572989609     2.8374461750    11.2499999440
Ni      3.6859482184     4.9655308275    11.2499999440
Ni      4.9145974759     7.0936154800    11.2499999440
Ni      3.6859497034     0.7093615225    11.2499999440
Ni      4.9145989609     2.8374461750    11.2499999440
Ni      6.1432482184     4.9655308275    11.2499999440
Ni      7.3718974759     7.0936154800    11.2499999440
Ni      6.1432497034     0.7093615225    11.2499999440
Ni      7.3718989609     2.8374461750    11.2499999440
Ni      8.6005482184     4.9655308275    11.2499999440
Ni      9.8291974759     7.0936154800    11.2499999440
Ni      8.6005497034     0.7093615225    11.2499999440
Ni      9.8291989609     2.8374461750    11.2499999440
Ni     11.0578482184     4.9655308275    11.2499999440
Ni     12.2864974759     7.0936154800    11.2499999440
Ni     14.7391156794     8.5053429999    13.3011712910
Ni     11.0531329642     2.1206495503    13.3008022026
Ni     12.2817169557     4.2489790177    13.3006008466
Ni     13.5101985270     6.3773433856    13.3009432678
Ni      7.3672569131     8.5047181091    13.3011774747
Ni      3.6813641840     2.1207833643    13.3007249066
Ni      4.9098915592     4.2493198517    13.3009123494
Ni      6.1382080000     6.3774560890    13.3011137055
Ni      9.8241033938     8.5046823573    13.3010831736
Ni      6.1383369699     2.1207818321    13.3007716707
Ni      7.3668809566     4.2490234521    13.3008056810
Ni      8.5953896076     6.3767159412    13.3009509974
Ni     12.2816608204     8.5051500252    13.3006066438
Ni      8.5958457422     2.1206092019    13.3010364095
Ni      9.8244550440     4.2487038138    13.3007276120
Ni     11.0528529688     6.3769410074    13.3006611374
Cu      2.4478274055     1.4024593708    15.3768195742
Cu      3.6763308468     3.5307009057    15.3768060474
Cu      4.9041378398     5.6597275336    15.3773448005
Cu      6.1330260451     7.7878910103    15.3784795057
Cu      4.9046987540     1.4026027186    15.3777977550
Cu      6.1325026510     3.5313493756    15.3777258697
Cu      7.3610720952     5.6598451741    15.3779276123
Cu      8.5906751295     7.7868954923    15.3785351588
Cu      7.3621786280     1.4037477983    15.3762151195
Cu      8.5904727564     3.5321453644    15.3780682910
Cu      9.8190628915     5.6596863338    15.3769316534
Cu     11.0489115080     7.7874997832    15.3777154348
Cu      9.8196453802     1.4041813317    15.3774700200
Cu     11.0479045662     3.5315147704    15.3771971651
Cu     12.2765483193     5.6595852924    15.3771299176
Cu     13.5054403579     7.7883030926    15.3772814178
Cu      1.2140125591     0.6836803076    17.5697065574
Cu      2.4431555374     2.8116125893    17.5665702724
Cu      3.6705110760     4.9384343512    17.5687388115
Cu      4.8988742539     7.0688538531    17.5715929661
Cu      3.6716454744     0.6829118137    17.5713989532
Cu      4.8981418913     2.8112417067    17.5722074693
Cu      6.1274353048     4.9410331682    17.5708265763
Cu      7.3554752500     7.0698228126    17.5713297733
Cu      6.1297077779     0.6833063606    17.5689100221
Cu      7.3567237656     2.8135682139    17.5698797004
Cu      8.5851063076     4.9421568820    17.5702368079
Cu      9.8152975701     7.0699596058    17.5700617325
Cu      8.5865082080     0.6855771971    17.5667967496
Cu      9.8144914881     2.8135456562    17.5749499312
Cu     11.0427692018     4.9416447797    17.5690866435
Cu     12.2728600100     7.0692517198    17.5719744219
O       7.2288202015     4.2734569284    22.3446828621
O       8.3044696405     5.3171068409    20.0014702420
O       8.8891638945     4.8479579810    24.7349733808
C       8.5251333110     4.9000290628    22.3715153937
C       9.1804211035     4.7744357207    20.9993344800
C       9.4189460410     4.3898719266    23.4895992517
H       8.3072385962     5.9614198807    22.5605187870
H       9.4153356173     3.7172718747    20.7683620669
H      10.1139922737     5.3503076003    20.9408546493
H      10.4461642949     4.7683945991    23.3275539960
H       9.4595638267     3.2836247445    23.4537018323
H       7.3561498138     3.3073831923    22.3295378714
H       7.4071380143     4.9636379387    20.1831718691
H       9.4432595602     4.5017937719    25.4528614775
O       2.4447775074     1.3898406800    19.0162048647
H       2.5328987835     1.2730973609    19.9764139723
80
Step 2 | NEB Image 2 | Cartesian Angstrom
Ni      1.2286131800     0.7093359684    11.2499279783
Ni      2.4572448903     2.8374311587    11.2498541041
Ni      3.6858902898     4.9655515904    11.2497950297
Ni      4.9145561470     7.0936759292    11.2497945973
Ni      3.6859157661     0.7093137942    11.2498690743
Ni      4.9145636625     2.8374153578    11.2497690291
Ni      6.1432294175     4.9655505533    11.2497169368
Ni      7.3719029898     7.0936804262    11.2497578690
Ni      6.1432392261     0.7092955747    11.2498212245
Ni      7.3719100509     2.8374065941    11.2497322262
Ni      8.6005859617     4.9655463875    11.2497217617
Ni      9.8292453108     7.0936677464    11.2497954774
Ni      8.6005748473     0.7092938765    11.2498162610
Ni      9.8292538235     2.8374117194    11.2497719160
Ni     11.0579167928     4.9655414398    11.2498000364
Ni     12.2865561581     7.0936485276    11.2498693032
Ni     14.7391880081     8.5053850538    13.3010813982
Ni     11.0533041599     2.1205394269    13.3004007880
Ni     12.2819011697     4.2489701899    13.3002659543
Ni     13.5103290036     6.3773861558    13.3007499224
Ni      7.3672630806     8.5049410185    13.3007418664
Ni      3.6812545675     2.1206800677    13.3002759844
Ni      4.9097636733     4.2493352679    13.3001940619
Ni      6.1381419566     6.3776463859    13.3004118185
Ni      9.8241983709     8.5048534079    13.3007312970
Ni      6.1383081933     2.1206101847    13.3001445463
Ni      7.3669250677     4.2490101843    13.2999552167
Ni      8.5954944042     6.3768798948    13.3002758048
Ni     12.2817668174     8.5052441118    13.3004073064
Ni      8.5959546921     2.1204374631    13.3004274042
Ni      9.8246441560     4.2486858648    13.3000819941
Ni     11.0530261591     6.3770366666    13.3002396767
Cu      2.4475474536     1.4021124755    15.3758477602
Cu      3.6758483086     3.5307946107    15.3747349799
Cu      4.9033519079     5.6604608576    15.3748569812
Cu      6.1327763530     7.7887493627    15.3770583677
Cu      4.9045515118     1.4019247974    15.3763835503
Cu      6.1323315981     3.5308811111    15.3745020453
Cu      7.3612170562     5.6605760782    15.3747114042
Cu      8.5909037614     7.7876486649    15.3771550048
Cu      7.3623318944     1.4028656529    15.3745234869
Cu      8.5910731329     3.5316585896    15.3753085670
Cu      9.8198129735     5.6600799614    15.3748732728
Cu     11.0492852053     7.7878775586    15.3769680501
Cu      9.8200975294     1.4035861789    15.3762661035
Cu     11.0485926946     3.5313088386    15.3759164536
Cu     12.2770411444     5.6597109599    15.3764140559
Cu     13.5056658008     7.7884347528    15.3770136535
Cu      1.2129164385     0.6826977758    17.5686312406
Cu      2.4404337350     2.8225828870    17.5459655073
Cu      3.6648958054     4.9415689168    17.5611278448
Cu      4.8962106901     7.0731167153    17.5668597227
Cu      3.6727224440     0.6801421753    17.5682530299
Cu      4.8947797492     2.8056023529    17.5567205871
Cu      6.1233008832     4.9489046596    17.5352644582
Cu      7.3549801954     7.0760159061    17.5630480151
Cu      6.1296418777     0.6801221033    17.5658676478
Cu      7.3604098631     2.8060286185    17.5533317717
Cu      8.5918472316     4.9434916255    17.5438729234
Cu      9.8172728240     7.0729393445    17.5651612916
Cu      8.5876165540     0.6826075929    17.5635447573
Cu      9.8181323101     2.8104263009    17.5678297591
Cu     11.0460716195     4.9418393146    17.5645122134
Cu     12.2738715364     7.0698518738    17.5708839653
O       6.5508864699     3.7521378047    21.8810689172
O       7.8482408154     5.0987624368    19.8646569807
O       7.5534739143     4.4321248211    24.5777260858
C       7.6863973776     4.5796217168    22.1973542918
C       8.6122158067     4.6440867434    20.9878685917
C       8.4077541185     4.1612922092    23.4644738057
H       7.2532518027     5.5782326482    22.3576380890
H       9.0585568845     3.6543370865    20.7704561078
H       9.4266722299     5.3673535463    21.1236501786
H       9.3516515121     4.7338798718    23.5348129297
H       8.6688805419     3.0866702533    23.4067341583
H       6.8531781794     2.8297650709    21.7998407147
H       6.9951455229     4.6042768525    19.8923081563
H       8.0165507351     4.1852896426    25.3919796608
O       2.4477642267     1.4148154892    18.9977265557
H       2.5179200966     1.3837763697    19.9640578789
80
Step 3 | NEB Image 3 | Cartesian Angstrom
Ni      1.2286013611     0.7093256663    11.2499009767
Ni      2.4572289089     2.8374255382    11.2497935691
Ni      3.6858809711     4.9655640209    11.2497148065
Ni      4.9145564733     7.0937009830    11.2497277161
Ni      3.6859083635     0.7092960309    11.2498174471
Ni      4.9145642619     2.8374084735    11.2496816940
Ni      6.1432412215     4.9655641548    11.2496275182
Ni      7.3719185627     7.0937036531    11.2496937944
Ni      6.1432465748     0.7092758010    11.2497578806
Ni      7.3719298381     2.8374009497    11.2496501010
Ni      8.6006113368     4.9655567600    11.2496504646
Ni      9.8292677398     7.0936842099    11.2497505308
Ni      8.6005937038     0.7092779714    11.2497626208
Ni      9.8292810879     2.8374078639    11.2497148630
Ni     11.0579434380     4.9655479023    11.2497574662
Ni     12.2865753597     7.0936576925    11.2498456455
Ni     14.7392046353     8.5053928961    13.3010716693
Ni     11.0533718524     2.1205250247    13.3003126770
Ni     12.2819593166     4.2489769988    13.3002089668
Ni     13.5103629549     6.3773974319    13.3007250071
Ni      7.3672944769     8.5050086000    13.3006359263
Ni      3.6812171969     2.1206298756    13.3000651882
Ni      4.9097756042     4.2493701082    13.2999001065
Ni      6.1381768318     6.3777260373    13.3002061552
Ni      9.8242414978     8.5048976817    13.3006636933
Ni      6.1383505950     2.1205663781    13.2998991813
Ni      7.3669971548     4.2490365817    13.2997114900
Ni      8.5955597669     6.3769379480    13.3001171250
Ni     12.2817984725     8.5052642813    13.3003790381
Ni      8.5960302920     2.1204080251    13.3002546564
Ni      9.8247303176     4.2486978797    13.2999331349
Ni     11.0530889645     6.3770663129    13.3001629177
Cu      2.4473628939     1.4018935353    15.3756348783
Cu      3.6755388485     3.5308322262    15.3733887973
Cu      4.9034557957     5.6608866279    15.3739280558
Cu      6.1328466658     7.7890229637    15.3766931191
Cu      4.9045271931     1.4014706453    15.3754932477
Cu      6.1327297486     3.5310120862    15.3732742547
Cu      7.3614114759     5.6608669314    15.3739645401
Cu      8.5910574973     7.7878579736    15.3768802192
Cu      7.3625861285     1.4026548049    15.3739155797
Cu      8.5914145017     3.5316205020    15.3745941697
Cu      9.8201568657     5.6602469428    15.3744195881
Cu     11.0494066508     7.7879571633    15.3768798105
Cu      9.8203269624     1.4034836173    15.3759619058
Cu     11.0488435032     3.5313101741    15.3756982768
Cu     12.2771704982     5.6597480849    15.3763493817
Cu     13.5057124686     7.7884547901    15.3769994332
Cu      1.2136974196     0.6833161731    17.5696680228
Cu      2.4377925702     2.8193924325    17.5403509603
Cu      3.6605482370     4.9463635699    17.5517202663
Cu      4.8965060552     7.0749113979    17.5652836549
Cu      3.6709561405     0.6799399340    17.5687825026
Cu      4.8937278923     2.7992141363    17.5352278768
Cu      6.1294197330     4.9530513011    17.5343083120
Cu      7.3555488465     7.0775893248    17.5614732619
Cu      6.1303026958     0.6781002570    17.5635467194
Cu      7.3633214560     2.8069646219    17.5499506968
Cu      8.5973699895     4.9459717001    17.5338497921
Cu      9.8181073087     7.0734752200    17.5648192155
Cu      8.5886135127     0.6817451509    17.5622112025
Cu      9.8198811462     2.8100569307    17.5664713819
Cu     11.0468977681     4.9420574143    17.5645635482
Cu     12.2740209252     7.0698877372    17.5709510791
O       5.9754299436     3.4792551663    21.4008263552
O       7.4709751000     4.3571899886    19.5412597575
O       6.4837538277     4.2822920843    24.1712190580
C       7.0050472988     4.3852804986    21.8542362228
C       8.1280591706     4.4241204410    20.8142273585
C       7.5278242065     4.0578809037    23.2305931974
H       6.4991212948     5.3610827416    21.8693382506
H       8.8255398484     3.5729309304    20.9076533029
H       8.7020885771     5.3588306516    20.8470568037
H       8.4062592232     4.7020538955    23.4271903162
H       7.8757956449     3.0059775747    23.2402432282
H       6.2977346558     2.5604270233    21.4552573661
H       6.5992498383     3.9068722934    19.7327698980
H       6.8209674437     4.0757003566    25.0657199469
O       3.1168350066     1.8029442036    19.1379118106
H       2.4375309568     1.4292221504    19.7338117181
80
Step 4 | NEB Image 4 | Cartesian Angstrom
Ni      1.2286068863     0.7093298662    11.2499090766
Ni      2.4572374720     2.8374289775    11.2498130255
Ni      3.6858898823     4.9655621266    11.2497432160
Ni      4.9145624915     7.0936934250    11.2497548135
Ni      3.6859137797     0.7093032844    11.2498324715
Ni      4.9145698751     2.8374141642    11.2497110205
Ni      6.1432443234     4.9655628342    11.2496633445
Ni      7.3719186736     7.0936964377    11.2497234961
Ni      6.1432490928     0.7092848180    11.2497774688
Ni      7.3719298184     2.8374072122    11.2496810940
Ni      8.6006081835     4.9655562118    11.2496828670
Ni      9.8292632413     7.0936788931    11.2497746254
Ni      8.6005925186     0.7092863708    11.2497820094
Ni      9.8292766565     2.8374128446    11.2497400993
Ni     11.0579370738     4.9655476094    11.2497803866
Ni     12.2865694983     7.0936544299    11.2498610680
Ni     14.7391968388     8.5053883348    13.3010826664
Ni     11.0533580629     2.1205393387    13.3003572303
Ni     12.2819415861     4.2489797464    13.3002485527
Ni     13.5103492763     6.3773932898    13.3007486711
Ni      7.3672958482     8.5049824773    13.3006892265
Ni      3.6812365859     2.1206503161    13.3001234532
Ni      4.9097962844     4.2493726325    13.3000023256
Ni      6.1381863289     6.3777027421    13.3002984685
Ni      9.8242327144     8.5048786717    13.3007064853
Ni      6.1383578637     2.1205943440    13.2999734864
Ni      7.3669942757     4.2490432488    13.2998139539
Ni      8.5955510947     6.3769216061    13.3001977199
Ni     12.2817874021     8.5052538851    13.3004035650
Ni      8.5960242765     2.1204310898    13.3003191695
Ni      9.8247147437     4.2487038649    13.3000062924
Ni     11.0530722010     6.3770572116    13.3002134787
Cu      2.4474088604     1.4019607619    15.3757299286
Cu      3.6756487514     3.5308494093    15.3737233577
Cu      4.9035797500     5.6607696240    15.3743339197
Cu      6.1328828584     7.7889126419    15.3768746054
Cu      4.9045736008     1.4015945041    15.3756542040
Cu      6.1327508373     3.5311154128    15.3737364734
Cu      7.3613946307     5.6607903759    15.3743656294
Cu      8.5910432109     7.7877735296    15.3770515798
Cu      7.3625942175     1.4027675995    15.3740739226
Cu      8.5913840324     3.5317005019    15.3748863831
Cu      9.8200918032     5.6602149829    15.3746703226
Cu     11.0493666781     7.7879134345    15.3769783312
Cu      9.8203047098     1.4035551362    15.3760898979
Cu     11.0487826304     3.5313425302    15.3758542748
Cu     12.2771169375     5.6597360845    15.3764426886
Cu     13.5056867819     7.7884395925    15.3770343561
Cu      1.2136264597     0.6833110802    17.5694929143
Cu      2.4380385387     2.8173428492    17.5442333671
Cu      3.6626581918     4.9460235885    17.5535719221
Cu      4.8968686362     7.0741652033    17.5659771992
Cu      3.6709570382     0.6800664128    17.5686545128
Cu      4.8964064711     2.8020115418    17.5381490957
Cu      6.1280693693     4.9510402270    17.5399683278
Cu      7.3557588994     7.0769008693    17.5624924048
Cu      6.1304990964     0.6783967227    17.5635459927
Cu      7.3628151917     2.8079363953    17.5512147322
Cu      8.5974882977     4.9465652571    17.5372995820
Cu      9.8178853596     7.0730804955    17.5655595370
Cu      8.5887034160     0.6820175393    17.5624913513
Cu      9.8196711684     2.8104810455    17.5674096235
Cu     11.0464891229     4.9420531911    17.5652346687
Cu     12.2738910503     7.0698112644    17.5711050899
O       6.0058366508     2.9745065329    21.0473328750
O       7.4649819720     4.2593670980    19.0516030993
O       6.1271593781     4.2868021420    23.6873001253
C       6.7555531088     4.1707185764    21.3778511598
C       7.9194561261     4.3536868526    20.4101714353
C       7.2458853552     4.0861430849    22.8180839848
H       6.0678996106     5.0285124628    21.2924489890
H       8.6865961694     3.5766647693    20.5799316186
H       8.3919815038     5.3346928616    20.5763094554
H       8.0200647076     4.8591305960    22.9884245597
H       7.7049620824     3.0946348794    22.9755093314
H       6.4426944574     2.5577557339    20.2758065440
H       4.4052315012     2.9419028765    20.3639840905
H       6.4068587988     4.1012901727    24.5986252502
O       3.5111083039     2.7815978329    19.9401352246
H       3.3029619164     1.8402824053    20.0921518134
80
Step 5 | NEB Image 5 | Cartesian Angstrom
Ni      1.2286497034     0.7093615225    11.2499999440
Ni      2.4572989609     2.8374461750    11.2499999440
Ni      3.6859482184     4.9655308275    11.2499999440
Ni      4.9145974759     7.0936154800    11.2499999440
Ni      3.6859497034     0.7093615225    11.2499999440
Ni      4.9145989609     2.8374461750    11.2499999440
Ni      6.1432482184     4.9655308275    11.2499999440
Ni      7.3718974759     7.0936154800    11.2499999440
Ni      6.1432497034     0.7093615225    11.2499999440
Ni      7.3718989609     2.8374461750    11.2499999440
Ni      8.6005482184     4.9655308275    11.2499999440
Ni      9.8291974759     7.0936154800    11.2499999440
Ni      8.6005497034     0.7093615225    11.2499999440
Ni      9.8291989609     2.8374461750    11.2499999440
Ni     11.0578482184     4.9655308275    11.2499999440
Ni     12.2864974759     7.0936154800    11.2499999440
Ni     14.7391156794     8.5053429999    13.3011712910
Ni     11.0531329642     2.1206495503    13.3008022026
Ni     12.2817169557     4.2489790177    13.3006008466
Ni     13.5101985270     6.3773433856    13.3009432678
Ni      7.3672569131     8.5047181091    13.3011774747
Ni      3.6813641840     2.1207833643    13.3007249066
Ni      4.9098915592     4.2493198517    13.3009123494
Ni      6.1382080000     6.3774560890    13.3011137055
Ni      9.8241033938     8.5046823573    13.3010831736
Ni      6.1383369699     2.1207818321    13.3007716707
Ni      7.3668809566     4.2490234521    13.3008056810
Ni      8.5953896076     6.3767159412    13.3009509974
Ni     12.2816608204     8.5051500252    13.3006066438
Ni      8.5958457422     2.1206092019    13.3010364095
Ni      9.8244550440     4.2487038138    13.3007276120
Ni     11.0528529688     6.3769410074    13.3006611374
Cu      2.4478274055     1.4024593708    15.3768195742
Cu      3.6763308468     3.5307009057    15.3768060474
Cu      4.9041378398     5.6597275336    15.3773448005
Cu      6.1330260451     7.7878910103    15.3784795057
Cu      4.9046987540     1.4026027186    15.3777977550
Cu      6.1325026510     3.5313493756    15.3777258697
Cu      7.3610720952     5.6598451741    15.3779276123
Cu      8.5906751295     7.7868954923    15.3785351588
Cu      7.3621786280     1.4037477983    15.3762151195
Cu      8.5904727564     3.5321453644    15.3780682910
Cu      9.8190628915     5.6596863338    15.3769316534
Cu     11.0489115080     7.7874997832    15.3777154348
Cu      9.8196453802     1.4041813317    15.3774700200
Cu     11.0479045662     3.5315147704    15.3771971651
Cu     12.2765483193     5.6595852924    15.3771299176
Cu     13.5054403579     7.7883030926    15.3772814178
Cu      1.2140125591     0.6836803076    17.5697065574
Cu      2.4431555374     2.8116125893    17.5665702724
Cu      3.6705110760     4.9384343512    17.5687388115
Cu      4.8988742539     7.0688538531    17.5715929661
Cu      3.6716454744     0.6829118137    17.5713989532
Cu      4.8981418913     2.8112417067    17.5722074693
Cu      6.1274353048     4.9410331682    17.5708265763
Cu      7.3554752500     7.0698228126    17.5713297733
Cu      6.1297077779     0.6833063606    17.5689100221
Cu      7.3567237656     2.8135682139    17.5698797004
Cu      8.5851063076     4.9421568820    17.5702368079
Cu      9.8152975701     7.0699596058    17.5700617325
Cu      8.5865082080     0.6855771971    17.5667967496
Cu      9.8144914881     2.8135456562    17.5749499312
Cu     11.0427692018     4.9416447797    17.5690866435
Cu     12.2728600100     7.0692517198    17.5719744219
O       5.4816243728     2.5651691502    20.6539118200
O       7.3508896973     4.2099530947    19.0383354809
O       4.4981563510     3.9587391709    22.9072956728
C       5.9290713561     3.8945947838    20.9960208007
C       7.3297021271     4.1881915565    20.4688911028
C       5.8721709119     4.0116672750    22.5089584937
H       5.2340507257     4.6323215466    20.5533350446
H       8.0432145389     3.4244560240    20.8191443760
H       7.6571223136     5.1738780612    20.8354754738
H       6.3359933253     4.9675285031    22.8148914030
H       6.4497260984     3.1808581747    22.9509168945
H       5.8597578631     2.3152772777    19.7784701378
H       3.6583776659     2.5435355524    20.3168147116
H       4.4610770249     3.8064239805    23.8648388416
O       2.7103082747     2.5416543255    20.0177020144
H       2.4292112216     1.6097423068    20.0822731560
