80
Step 1 | NEB Image 1 | Cartesian Angstrom
Ni      1.2286497034     0.7093615225    11.2499999440
Ni      2.4572989609     2.8374461750    11.2499999440
Ni      3.6859482184     4.9655308275    11.2499999440
Ni      4.9145974759     7.0936154800    11.2499999440
Ni      3.6859497034     0.7093615225    11.2499999440
Ni      4.9145989609     2.8374461750    11.2499999440
Ni      6.1432482184     4.9655308275    11.2499999440
Ni      7.3718974759     7.0936154800    11.2499999440
Ni      6.1432497034     0.7093615225    11.2499999440
Ni      7.3718989609     2.8374461750    11.2499999440
Ni      8.6005482184     4.9655308275    11.2499999440
Ni      9.8291974759     7.0936154800    11.2499999440
Ni      8.6005497034     0.7093615225    11.2499999440
Ni      9.8291989609     2.8374461750    11.2499999440
Ni     11.0578482184     4.9655308275    11.2499999440
Ni     12.2864974759     7.0936154800    11.2499999440
Ni     14.7391156794     8.5053429999    13.3011712910
Ni     11.0531329642     2.1206495503    13.3008022026
Ni     12.2817169557     4.2489790177    13.3006008466
Ni     13.5101985270     6.3773433856    13.3009432678
Ni      7.3672569131     8.5047181091    13.3011774747
Ni      3.6813641840     2.1207833643    13.3007249066
Ni      4.9098915592     4.2493198517    13.3009123494
Ni      6.1382080000     6.3774560890    13.3011137055
Ni      9.8241033938     8.5046823573    13.3010831736
Ni      6.1383369699     2.1207818321    13.3007716707
Ni      7.3668809566     4.2490234521    13.3008056810
Ni      8.5953896076     6.3767159412    13.3009509974
Ni     12.2816608204     8.5051500252    13.3006066438
Ni      8.5958457422     2.1206092019    13.3010364095
Ni      9.8244550440     4.2487038138    13.3007276120
Ni     11.0528529688     6.3769410074    13.3006611374
Cu      2.4478274055     1.4024593708    15.3768195742
Cu      3.6763308468     3.5307009057    15.3768060474
Cu      4.9041378398     5.6597275336    15.3773448005
Cu      6.1330260451     7.7878910103    15.3784795057
Cu      4.9046987540     1.4026027186    15.3777977550
Cu      6.1325026510     3.5313493756    15.3777258697
Cu      7.3610720952     5.6598451741    15.3779276123
Cu      8.5906751295     7.7868954923    15.3785351588
Cu      7.3621786280     1.4037477983    15.3762151195
Cu      8.5904727564     3.5321453644    15.3780682910
Cu      9.8190628915     5.6596863338    15.3769316534
Cu     11.0489115080     7.7874997832    15.3777154348
Cu      9.8196453802     1.4041813317    15.3774700200
Cu     11.0479045662     3.5315147704    15.3771971651
Cu     12.2765483193     5.6595852924    15.3771299176
Cu     13.5054403579     7.7883030926    15.3772814178
Cu      1.2140125591     0.6836803076    17.5697065574
Cu      2.4431555374     2.8116125893    17.5665702724
Cu      3.6705110760     4.9384343512    17.5687388115
Cu      4.8988742539     7.0688538531    17.5715929661
Cu      3.6716454744     0.6829118137    17.5713989532
Cu      4.8981418913     2.8112417067    17.5722074693
Cu      6.1274353048     4.9410331682    17.5708265763
Cu      7.3554752500     7.0698228126    17.5713297733
Cu      6.1297077779     0.6833063606    17.5689100221
Cu      7.3567237656     2.8135682139    17.5698797004
Cu      8.5851063076     4.9421568820    17.5702368079
Cu      9.8152975701     7.0699596058    17.5700617325
Cu      8.5865082080     0.6855771971    17.5667967496
Cu      9.8144914881     2.8135456562    17.5749499312
Cu     11.0427692018     4.9416447797    17.5690866435
Cu     12.2728600100     7.0692517198    17.5719744219
O       7.2288202015     4.2734569284    22.3446828621
O       8.3044696405     5.3171068409    20.0014702420
O       8.8891638945     4.8479579810    24.7349733808
C       8.5251333110     4.9000290628    22.3715153937
C       9.1804211035     4.7744357207    20.9993344800
C       9.4189460410     4.3898719266    23.4895992517
H       8.3072385962     5.9614198807    22.5605187870
H       9.4153356173     3.7172718747    20.7683620669
H      10.1139922737     5.3503076003    20.9408546493
H      10.4461642949     4.7683945991    23.3275539960
H       9.4595638267     3.2836247445    23.4537018323
H       7.3561498138     3.3073831923    22.3295378714
H       7.4071380143     4.9636379387    20.1831718691
H       9.4432595602     4.5017937719    25.4528614775
O       2.4447775074     1.3898406800    19.0162048647
H       2.5328987835     1.2730973609    19.9764139723
80
Step 2 | NEB Image 2 | Cartesian Angstrom
Ni      1.2286107181     0.7093338169    11.2499223133
Ni      2.4572415712     2.8374299953    11.2498414152
Ni      3.6858883896     4.9655542148    11.2497782376
Ni      4.9145562704     7.0936811853    11.2497806285
Ni      3.6859142417     0.7093100846    11.2498582385
Ni      4.9145638403     2.8374139460    11.2497507339
Ni      6.1432319537     4.9655534317    11.2496982572
Ni      7.3719063000     7.0936852971    11.2497445200
Ni      6.1432408103     0.7092914538    11.2498079399
Ni      7.3719142554     2.8374054509    11.2497150530
Ni      8.6005913255     4.9655485867    11.2497069022
Ni      9.8292500365     7.0936711971    11.2497861427
Ni      8.6005788436     0.7092905721    11.2498050367
Ni      9.8292595773     2.8374109448    11.2497600190
Ni     11.0579223977     4.9655428104    11.2497911962
Ni     12.2865601857     7.0936504458    11.2498644145
Ni     14.7391914713     8.5053866793    13.3010794296
Ni     11.0533184206     2.1205364950    13.3003824647
Ni     12.2819133666     4.2489716615    13.3002542000
Ni     13.5103360953     6.3773885147    13.3007448405
Ni      7.3672697646     8.5049551448    13.3007198329
Ni      3.6812468004     2.1206695855    13.3002317138
Ni      4.9097663943     4.2493426941    13.3001325148
Ni      6.1381494528     6.3776631025    13.3003689444
Ni      9.8242074564     8.5048626453    13.3007173156
Ni      6.1383172689     2.1206011270    13.3000930739
Ni      7.3669403603     4.2490158535    13.2999043453
Ni      8.5955082158     6.3768920842    13.3002428093
Ni     12.2817734446     8.5052483044    13.3004015197
Ni      8.5959707029     2.1204314147    13.3003912749
Ni      9.8246623253     4.2486884717    13.3000510188
Ni     11.0530393546     6.3770428847    13.3002238196
Cu      2.4475086478     1.4020665547    15.3758033767
Cu      3.6757835358     3.5308027582    15.3744519227
Cu      4.9033750970     5.6605502824    15.3746632308
Cu      6.1327916194     7.7888065117    15.3769823828
Cu      4.9045467609     1.4018294031    15.3761958078
Cu      6.1324163939     3.5309098710    15.3742452926
Cu      7.3612582188     5.6606371965    15.3745562986
Cu      8.5909363017     7.7876923843    15.3770981522
Cu      7.3623859914     1.4028218609    15.3743957295
Cu      8.5911453996     3.5316512145    15.3751593829
Cu      9.8198854658     5.6601151577    15.3747791172
Cu     11.0493106533     7.7878940818    15.3769501841
Cu      9.8201460837     1.4035650269    15.3762026114
Cu     11.0486454444     3.5313094130    15.3758714923
Cu     12.2770681509     5.6597187411    15.3764011507
Cu     13.5056754870     7.7884388742    15.3770109453
Cu      1.2130817585     0.6828291385    17.5688499827
Cu      2.4398747005     2.8218865147    17.5448072899
Cu      3.6639909019     4.9425847199    17.5591453776
Cu      4.8962767108     7.0734913815    17.5665310390
Cu      3.6723471154     0.6801003351    17.5683643927
Cu      4.8945802856     2.8042699884    17.5521796535
Cu      6.1245890025     4.9497677544    17.5351121069
Cu      7.3551029192     7.0763440726    17.5627225347
Cu      6.1297840642     0.6796951265    17.5653744477
Cu      7.3610240256     2.8062362445    17.5526246500
Cu      8.5930218714     4.9440239677    17.5417740038
Cu      9.8174481575     7.0730496725    17.5650952493
Cu      8.5878292135     0.6824267714    17.5632638948
Cu      9.8185020493     2.8103516190    17.5675495318
Cu     11.0462435050     4.9418856225    17.5645291488
Cu     12.2739021150     7.0698588079    17.5708996099
O       6.4942529600     3.7258966879    21.9061751916
O       7.8938123163     5.2066249325    20.0171677111
O       7.4065451935     4.1849394450    24.6748274478
C       7.6214925422     4.5226039267    22.3138866257
C       8.5911630477     4.6620874492    21.1423166132
C       8.3004654038     4.0088258902    23.5721146010
H       7.1885426599     5.5090432926    22.5314313727
H       9.0363232768     3.6827023624    20.8816123043
H       9.4080416389     5.3606897960    21.3713965807
H       9.2363708435     4.5791880392    23.7233628255
H       8.5724269892     2.9438256396    23.4410638054
H       6.7943108288     2.8050871835    21.7851270783
H       7.0348879439     4.7287730392    19.9661352174
H       7.8503187725     3.8918442288    25.4828410125
O       2.4492319109     1.4156343372    18.9942384582
H       2.5375397083     1.4065736305    19.9593685929
80
Step 3 | NEB Image 3 | Cartesian Angstrom
Ni      1.2285995509     0.7093240379    11.2498964703
Ni      2.4572265507     2.8374247439    11.2497835726
Ni      3.6858799172     4.9655662459    11.2497017740
Ni      4.9145570291     7.0937051608    11.2497171308
Ni      3.6859073900     0.7092932241    11.2498087930
Ni      4.9145648368     2.8374076217    11.2496673748
Ni      6.1432437360     4.9655666510    11.2496133329
Ni      7.3719215537     7.0937075092    11.2496839600
Ni      6.1432481884     0.7092727538    11.2497473571
Ni      7.3719336253     2.8374003822    11.2496369160
Ni      8.6006159372     4.9655587012    11.2496394686
Ni      9.8292716658     7.0936869265    11.2497438994
Ni      8.6005972173     0.7092756144    11.2497539390
Ni      9.8292859452     2.8374075339    11.2497060071
Ni     11.0579480184     4.9655491158    11.2497511936
Ni     12.2865785560     7.0936591800    11.2498423797
Ni     14.7392071801     8.5053940238    13.3010707078
Ni     11.0533836839     2.1205234402    13.3002994575
Ni     12.2819689973     4.2489785278    13.3002012996
Ni     13.5103683348     6.3773992516    13.3007221760
Ni      7.3673006011     8.5050193993    13.3006200098
Ni      3.6812116305     2.1206219402    13.3000296007
Ni      4.9097795838     4.2493769863    13.2998521985
Ni      6.1381842882     6.3777393796    13.3001743414
Ni      9.8242490358     8.5049046011    13.3006542561
Ni      6.1383593099     2.1205602823    13.2998582894
Ni      7.3670107221     4.2490421828    13.2996732198
Ni      8.5955715718     6.3769477245    13.3000933471
Ni     12.2818036264     8.5052672913    13.3003756357
Ni      8.5960442749     2.1204042788    13.3002268666
Ni      9.8247455393     4.2487006710    13.2999106279
Ni     11.0530996165     6.3770712435    13.3001523642
Cu      2.4473313221     1.4018571229    15.3756019067
Cu      3.6754886014     3.5308408373    15.3731584528
Cu      4.9034858486     5.6609585640    15.3737834527
Cu      6.1328630961     7.7890663100    15.3766380572
Cu      4.9045263405     1.4013938365    15.3753359653
Cu      6.1328077154     3.5310456349    15.3730770440
Cu      7.3614473227     5.6609163490    15.3738544068
Cu      8.5910857637     7.7878911304    15.3768416493
Cu      7.3626354725     1.4026236772    15.3738121564
Cu      8.5914773697     3.5316197664    15.3744813288
Cu      9.8202173814     5.6602762968    15.3743532686
Cu     11.0494266288     7.7879688217    15.3768709899
Cu      9.8203690704     1.4034698411    15.3759141491
Cu     11.0488865385     3.5313130820    15.3756692871
Cu     12.2771908766     5.6597542100    15.3763446460
Cu     13.5057192991     7.7884573812    15.3769995728
Cu      1.2138411460     0.6834341668    17.5698521932
Cu      2.4373069997     2.8186135199    17.5395941190
Cu      3.6598887118     4.9472537858    17.5500706742
Cu      4.8965923323     7.0751938804    17.5650387173
Cu      3.6706180009     0.6799115760    17.5688733952
Cu      4.8937460420     2.7982202158    17.5313518853
Cu      6.1304806872     4.9536804577    17.5345891733
Cu      7.3556749501     7.0778341723    17.5612552649
Cu      6.1304453285     0.6777374133    17.5631022467
Cu      7.3638374721     2.8072235036    17.5494068975
Cu      8.5984371889     4.9464952399    17.5322133306
Cu      9.8182489036     7.0735454748    17.5648143978
Cu      8.5888117803     0.6816023372    17.5619788158
Cu      9.8201988030     2.8100209676    17.5662881854
Cu     11.0470224635     4.9420988300    17.5646283888
Cu     12.2740388846     7.0698883360    17.5709765542
O       5.7943714608     3.2999120205    21.8435584725
O       7.2195663205     4.3123657493    19.8476684694
O       6.3809373442     4.2182826914    24.5633530109
C       6.8042507550     4.2640150752    22.2076042010
C       7.8779861212     4.2987421401    21.1171009833
C       7.3944809570     4.0057338777    23.5795420348
H       6.2687134123     5.2236524376    22.2153789473
H       8.5485296065     3.4216718456    21.1855211786
H       8.4918538724     5.2079181739    21.1780243234
H       8.2531947891     4.6876534812    23.7296892502
H       7.7824047650     2.9687081929    23.6160520572
H       6.1600931623     2.4056307761    21.9703752721
H       6.4053047912     3.7674418329    19.9595088384
H       6.7467707838     4.0144352797    25.4350850314
O       3.6187016876     2.0884697751    19.0011888316
H       3.2756643382     1.9804641202    19.9076500307
80
Step 4 | NEB Image 4 | Cartesian Angstrom
Ni      1.2286023789     0.7093262895    11.2499013647
Ni      2.4572307528     2.8374263699    11.2497949946
Ni      3.6858837244     4.9655646280    11.2497178200
Ni      4.9145590881     7.0937006048    11.2497316900
Ni      3.6859098385     0.7092971106    11.2498179908
Ni      4.9145667344     2.8374101252    11.2496842886
Ni      6.1432438970     4.9655651413    11.2496326589
Ni      7.3719203872     7.0937032132    11.2496992040
Ni      6.1432484918     0.7092774066    11.2497590420
Ni      7.3719320875     2.8374029878    11.2496540039
Ni      8.6006128818     4.9655577088    11.2496562068
Ni      9.8292683725     7.0936838113    11.2497557216
Ni      8.6005953478     0.7092797539    11.2497648040
Ni      9.8292823011     2.8374095571    11.2497191613
Ni     11.0579437527     4.9655485143    11.2497624253
Ni     12.2865750404     7.0936573410    11.2498495514
Ni     14.7392031935     8.5053918374    13.3010752691
Ni     11.0533736708     2.1205295119    13.3003217047
Ni     12.2819583578     4.2489789526    13.3002194185
Ni     13.5103609706     6.3773969446    13.3007322992
Ni      7.3672986468     8.5050051234    13.3006466658
Ni      3.6812212368     2.1206329028    13.3000660890
Ni      4.9097858229     4.2493751650    13.2999103435
Ni      6.1381848790     6.3777251490    13.3002222245
Ni      9.8242426571     8.5048945918    13.3006743067
Ni      6.1383585466     2.1205733570    13.2999030075
Ni      7.3670041475     4.2490424494    13.2997275634
Ni      8.5955635112     6.3769375732    13.3001335367
Ni     12.2817973432     8.5052621302    13.3003863172
Ni      8.5960363423     2.1204145445    13.3002625750
Ni      9.8247334792     4.2487018142    13.2999474818
Ni     11.0530889515     6.3770657977    13.3001758139
Cu      2.4473615212     1.4018973450    15.3756512962
Cu      3.6755506072     3.5308438779    15.3733784761
Cu      4.9035207396     5.6608851000    15.3739958867
Cu      6.1328701904     7.7890069337    15.3767291707
Cu      4.9045442944     1.4014718705    15.3754605927
Cu      6.1327842136     3.5310712861    15.3733321188
Cu      7.3614264463     5.6608673321    15.3740511010
Cu      8.5910689212     7.7878456906    15.3769222567
Cu      7.3626186035     1.4026790547    15.3739140294
Cu      8.5914404052     3.5316504195    15.3746378042
Cu      9.8201682411     5.6602523087    15.3744752071
Cu     11.0494033887     7.7879475181    15.3769119376
Cu      9.8203436122     1.4035025454    15.3759820125
Cu     11.0488460512     3.5313241845    15.3757401942
Cu     12.2771623188     5.6597471815    15.3763819648
Cu     13.5057067923     7.7884505675    15.3770127678
Cu      1.2137561452     0.6833845569    17.5697113312
Cu      2.4375965354     2.8181505408    17.5413731091
Cu      3.6609558246     4.9467650730    17.5514398294
Cu      4.8966950515     7.0747965957    17.5654008533
Cu      3.6707549727     0.6799710268    17.5687881029
Cu      4.8947550922     2.7996832993    17.5340265005
Cu      6.1295395962     4.9526631361    17.5366233735
Cu      7.3557037001     7.0774740037    17.5617300631
Cu      6.1304622193     0.6779965202    17.5632815679
Cu      7.3634368654     2.8074876364    17.5501062660
Cu      8.5980508603     4.9465089191    17.5341835905
Cu      9.8181074714     7.0733673093    17.5650972587
Cu      8.5887657806     0.6817634010    17.5621790179
Cu      9.8199907724     2.8101964290    17.5667182239
Cu     11.0468170182     4.9420804928    17.5648568448
Cu     12.2739823469     7.0698590765    17.5710246998
O       6.0521240673     2.8764637417    21.1430819134
O       7.4220707865     4.2505094263    19.0789258979
O       6.1893045596     4.2072111478    23.7744721906
C       6.7551044714     4.1084603740    21.4439841154
C       7.8813486986     4.3465463171    20.4372396482
C       7.2913366723     4.0525035981    22.8727046869
H       6.0190244668     4.9263112572    21.3836481059
H       8.6815107197     3.5998213769    20.5923099746
H       8.3159135221     5.3440166563    20.6120852585
H       8.0341614627     4.8586268524    23.0218030504
H       7.7955158510     3.0821554454    23.0231922343
H       6.5120845600     2.4431957778    20.3979884591
H       4.5172518664     2.9500973391    20.4229947503
H       6.5048458309     4.0433127334    24.6786392871
O       3.6405019627     2.8705551703    19.9417913112
H       3.3443685916     1.9541898911    20.0920348091
80
Step 5 | NEB Image 5 | Cartesian Angstrom
Ni      1.2286497034     0.7093615225    11.2499999440
Ni      2.4572989609     2.8374461750    11.2499999440
Ni      3.6859482184     4.9655308275    11.2499999440
Ni      4.9145974759     7.0936154800    11.2499999440
Ni      3.6859497034     0.7093615225    11.2499999440
Ni      4.9145989609     2.8374461750    11.2499999440
Ni      6.1432482184     4.9655308275    11.2499999440
Ni      7.3718974759     7.0936154800    11.2499999440
Ni      6.1432497034     0.7093615225    11.2499999440
Ni      7.3718989609     2.8374461750    11.2499999440
Ni      8.6005482184     4.9655308275    11.2499999440
Ni      9.8291974759     7.0936154800    11.2499999440
Ni      8.6005497034     0.7093615225    11.2499999440
Ni      9.8291989609     2.8374461750    11.2499999440
Ni     11.0578482184     4.9655308275    11.2499999440
Ni     12.2864974759     7.0936154800    11.2499999440
Ni     14.7391156794     8.5053429999    13.3011712910
Ni     11.0531329642     2.1206495503    13.3008022026
Ni     12.2817169557     4.2489790177    13.3006008466
Ni     13.5101985270     6.3773433856    13.3009432678
Ni      7.3672569131     8.5047181091    13.3011774747
Ni      3.6813641840     2.1207833643    13.3007249066
Ni      4.9098915592     4.2493198517    13.3009123494
Ni      6.1382080000     6.3774560890    13.3011137055
Ni      9.8241033938     8.5046823573    13.3010831736
Ni      6.1383369699     2.1207818321    13.3007716707
Ni      7.3668809566     4.2490234521    13.3008056810
Ni      8.5953896076     6.3767159412    13.3009509974
Ni     12.2816608204     8.5051500252    13.3006066438
Ni      8.5958457422     2.1206092019    13.3010364095
Ni      9.8244550440     4.2487038138    13.3007276120
Ni     11.0528529688     6.3769410074    13.3006611374
Cu      2.4478274055     1.4024593708    15.3768195742
Cu      3.6763308468     3.5307009057    15.3768060474
Cu      4.9041378398     5.6597275336    15.3773448005
Cu      6.1330260451     7.7878910103    15.3784795057
Cu      4.9046987540     1.4026027186    15.3777977550
Cu      6.1325026510     3.5313493756    15.3777258697
Cu      7.3610720952     5.6598451741    15.3779276123
Cu      8.5906751295     7.7868954923    15.3785351588
Cu      7.3621786280     1.4037477983    15.3762151195
Cu      8.5904727564     3.5321453644    15.3780682910
Cu      9.8190628915     5.6596863338    15.3769316534
Cu     11.0489115080     7.7874997832    15.3777154348
Cu      9.8196453802     1.4041813317    15.3774700200
Cu     11.0479045662     3.5315147704    15.3771971651
Cu     12.2765483193     5.6595852924    15.3771299176
Cu     13.5054403579     7.7883030926    15.3772814178
Cu      1.2140125591     0.6836803076    17.5697065574
Cu      2.4431555374     2.8116125893    17.5665702724
Cu      3.6705110760     4.9384343512    17.5687388115
Cu      4.8988742539     7.0688538531    17.5715929661
Cu      3.6716454744     0.6829118137    17.5713989532
Cu      4.8981418913     2.8112417067    17.5722074693
Cu      6.1274353048     4.9410331682    17.5708265763
Cu      7.3554752500     7.0698228126    17.5713297733
Cu      6.1297077779     0.6833063606    17.5689100221
Cu      7.3567237656     2.8135682139    17.5698797004
Cu      8.5851063076     4.9421568820    17.5702368079
Cu      9.8152975701     7.0699596058    17.5700617325
Cu      8.5865082080     0.6855771971    17.5667967496
Cu      9.8144914881     2.8135456562    17.5749499312
Cu     11.0427692018     4.9416447797    17.5690866435
Cu     12.2728600100     7.0692517198    17.5719744219
O       5.4816243728     2.5651691502    20.6539118200
O       7.3508896973     4.2099530947    19.0383354809
O       4.4981563510     3.9587391709    22.9072956728
C       5.9290713561     3.8945947838    20.9960208007
C       7.3297021271     4.1881915565    20.4688911028
C       5.8721709119     4.0116672750    22.5089584937
H       5.2340507257     4.6323215466    20.5533350446
H       8.0432145389     3.4244560240    20.8191443760
H       7.6571223136     5.1738780612    20.8354754738
H       6.3359933253     4.9675285031    22.8148914030
H       6.4497260984     3.1808581747    22.9509168945
H       5.8597578631     2.3152772777    19.7784701378
H       3.6583776659     2.5435355524    20.3168147116
H       4.4610770249     3.8064239805    23.8648388416
O       2.7103082747     2.5416543255    20.0177020144
H       2.4292112216     1.6097423068    20.0822731560
