80
Step 1 | NEB Image 1 | Cartesian Angstrom
Ni      1.2286497034     0.7093615225    11.2499999440
Ni      2.4572989609     2.8374461750    11.2499999440
Ni      3.6859482184     4.9655308275    11.2499999440
Ni      4.9145974759     7.0936154800    11.2499999440
Ni      3.6859497034     0.7093615225    11.2499999440
Ni      4.9145989609     2.8374461750    11.2499999440
Ni      6.1432482184     4.9655308275    11.2499999440
Ni      7.3718974759     7.0936154800    11.2499999440
Ni      6.1432497034     0.7093615225    11.2499999440
Ni      7.3718989609     2.8374461750    11.2499999440
Ni      8.6005482184     4.9655308275    11.2499999440
Ni      9.8291974759     7.0936154800    11.2499999440
Ni      8.6005497034     0.7093615225    11.2499999440
Ni      9.8291989609     2.8374461750    11.2499999440
Ni     11.0578482184     4.9655308275    11.2499999440
Ni     12.2864974759     7.0936154800    11.2499999440
Ni     14.7391156794     8.5053429999    13.3011712910
Ni     11.0531329642     2.1206495503    13.3008022026
Ni     12.2817169557     4.2489790177    13.3006008466
Ni     13.5101985270     6.3773433856    13.3009432678
Ni      7.3672569131     8.5047181091    13.3011774747
Ni      3.6813641840     2.1207833643    13.3007249066
Ni      4.9098915592     4.2493198517    13.3009123494
Ni      6.1382080000     6.3774560890    13.3011137055
Ni      9.8241033938     8.5046823573    13.3010831736
Ni      6.1383369699     2.1207818321    13.3007716707
Ni      7.3668809566     4.2490234521    13.3008056810
Ni      8.5953896076     6.3767159412    13.3009509974
Ni     12.2816608204     8.5051500252    13.3006066438
Ni      8.5958457422     2.1206092019    13.3010364095
Ni      9.8244550440     4.2487038138    13.3007276120
Ni     11.0528529688     6.3769410074    13.3006611374
Cu      2.4478274055     1.4024593708    15.3768195742
Cu      3.6763308468     3.5307009057    15.3768060474
Cu      4.9041378398     5.6597275336    15.3773448005
Cu      6.1330260451     7.7878910103    15.3784795057
Cu      4.9046987540     1.4026027186    15.3777977550
Cu      6.1325026510     3.5313493756    15.3777258697
Cu      7.3610720952     5.6598451741    15.3779276123
Cu      8.5906751295     7.7868954923    15.3785351588
Cu      7.3621786280     1.4037477983    15.3762151195
Cu      8.5904727564     3.5321453644    15.3780682910
Cu      9.8190628915     5.6596863338    15.3769316534
Cu     11.0489115080     7.7874997832    15.3777154348
Cu      9.8196453802     1.4041813317    15.3774700200
Cu     11.0479045662     3.5315147704    15.3771971651
Cu     12.2765483193     5.6595852924    15.3771299176
Cu     13.5054403579     7.7883030926    15.3772814178
Cu      1.2140125591     0.6836803076    17.5697065574
Cu      2.4431555374     2.8116125893    17.5665702724
Cu      3.6705110760     4.9384343512    17.5687388115
Cu      4.8988742539     7.0688538531    17.5715929661
Cu      3.6716454744     0.6829118137    17.5713989532
Cu      4.8981418913     2.8112417067    17.5722074693
Cu      6.1274353048     4.9410331682    17.5708265763
Cu      7.3554752500     7.0698228126    17.5713297733
Cu      6.1297077779     0.6833063606    17.5689100221
Cu      7.3567237656     2.8135682139    17.5698797004
Cu      8.5851063076     4.9421568820    17.5702368079
Cu      9.8152975701     7.0699596058    17.5700617325
Cu      8.5865082080     0.6855771971    17.5667967496
Cu      9.8144914881     2.8135456562    17.5749499312
Cu     11.0427692018     4.9416447797    17.5690866435
Cu     12.2728600100     7.0692517198    17.5719744219
O       7.2288202015     4.2734569284    22.3446828621
O       8.3044696405     5.3171068409    20.0014702420
O       8.8891638945     4.8479579810    24.7349733808
C       8.5251333110     4.9000290628    22.3715153937
C       9.1804211035     4.7744357207    20.9993344800
C       9.4189460410     4.3898719266    23.4895992517
H       8.3072385962     5.9614198807    22.5605187870
H       9.4153356173     3.7172718747    20.7683620669
H      10.1139922737     5.3503076003    20.9408546493
H      10.4461642949     4.7683945991    23.3275539960
H       9.4595638267     3.2836247445    23.4537018323
H       7.3561498138     3.3073831923    22.3295378714
H       7.4071380143     4.9636379387    20.1831718691
H       9.4432595602     4.5017937719    25.4528614775
O       2.4447775074     1.3898406800    19.0162048647
H       2.5328987835     1.2730973609    19.9764139723
80
Step 2 | NEB Image 2 | Cartesian Angstrom
Ni      1.2286126693     0.7093355229    11.2499268091
Ni      2.4572442004     2.8374309163    11.2498514835
Ni      3.6858898897     4.9655521297    11.2497915583
Ni      4.9145561646     7.0936770141    11.2497917051
Ni      3.6859154474     0.7093130260    11.2498668384
Ni      4.9145636917     2.8374150618    11.2497652490
Ni      6.1432299324     4.9655511438    11.2497130698
Ni      7.3719036669     7.0936814319    11.2497551003
Ni      6.1432395470     0.7092947202    11.2498184818
Ni      7.3719109111     2.8374063523    11.2497286735
Ni      8.6005870630     4.9655468381    11.2497186806
Ni      9.8292462833     7.0936684591    11.2497935371
Ni      8.6005756663     0.7092931898    11.2498139401
Ni      9.8292550062     2.8374115546    11.2497694501
Ni     11.0579179475     4.9655417206    11.2497981988
Ni     12.2865569895     7.0936489241    11.2498682834
Ni     14.7391887265     8.5053853922    13.3010809815
Ni     11.0533070949     2.1205388089    13.3003969828
Ni     12.2819036875     4.2489704875    13.3002634993
Ni     13.5103304718     6.3773866436    13.3007488527
Ni      7.3672644462     8.5049439416    13.3007372910
Ni      3.6812529539     2.1206778973    13.3002668535
Ni      4.9097642037     4.2493367840    13.3001813406
Ni      6.1381434781     6.3776498354    13.3004029300
Ni      9.8242002408     8.5048553219    13.3007283823
Ni      6.1383100408     2.1206082962    13.3001339216
Ni      7.3669281999     4.2490113356    13.2999446791
Ni      8.5954972408     6.3768824092    13.3002689521
Ni     12.2817681873     8.5052449827    13.3004060914
Ni      8.5959579752     2.1204361964    13.3004199309
Ni      9.8246478928     4.2486863905    13.3000755642
Ni     11.0530288800     6.3770379503    13.3002363684
Cu      2.4475394563     1.4021029955    15.3758385594
Cu      3.6758349177     3.5307962556    15.3746766468
Cu      4.9033564943     5.6604793008    15.3748168278
Cu      6.1327794302     7.7887611945    15.3770425920
Cu      4.9045504808     1.4019051242    15.3763449374
Cu      6.1323489188     3.5308868634    15.3744489313
Cu      7.3612254986     5.6605886791    15.3746791628
Cu      8.5909104366     7.7876577164    15.3771431560
Cu      7.3623429512     1.4028565505    15.3744971490
Cu      8.5910879560     3.5316569791    15.3752776755
Cu      9.8198278867     5.6600872024    15.3748536917
Cu     11.0492904623     7.7878809945    15.3769642698
Cu      9.8201074909     1.4035817607    15.3762529516
Cu     11.0486035636     3.5313089150    15.3759070571
Cu     12.2770467375     5.6597125670    15.3764112972
Cu     13.5056678151     7.7884356153    15.3770130551
Cu      1.2129503498     0.6827246564    17.5686762134
Cu      2.4403190553     2.8224430295    17.5457236233
Cu      3.6647079979     4.9417771615    17.5607199184
Cu      4.8962237356     7.0731943131    17.5667915989
Cu      3.6726456584     0.6801334548    17.5682759752
Cu      4.8947355373     2.8053262216    17.5557878911
Cu      6.1235661229     4.9490837881    17.5352260935
Cu      7.3550050351     7.0760839176    17.5629801326
Cu      6.1296707164     0.6800343756    17.5657667501
Cu      7.3605361518     2.8060698589    17.5531855019
Cu      8.5920873884     4.9435997771    17.5434391411
Cu      9.8173089758     7.0729624172    17.5651468394
Cu      8.5876599454     0.6825702542    17.5634869424
Cu      9.8182082181     2.8104104833    17.5677712374
Cu     11.0461073033     4.9418487936    17.5645148247
Cu     12.2738779573     7.0698533896    17.5708869700
O       6.5335420806     3.7449738830    21.8771416139
O       7.8471315423     5.0983670351    19.8778185807
O       7.5151645796     4.3978209518    24.5885965251
C       7.6672925511     4.5702690647    22.2093093425
C       8.6025188330     4.6440752589    21.0069377898
C       8.3792428020     4.1408705200    23.4764837821
H       7.2321266385     5.5673982185    22.3735303468
H       9.0563435288     3.6567801279    20.7908933485
H       9.4121216927     5.3708305200    21.1535861724
H       9.3202664569     4.7153291350    23.5614293646
H       8.6431504179     3.0677758217    23.4111110155
H       6.8356989574     2.8220708661    21.7980351162
H       6.9941957771     4.6048248556    19.9004922790
H       7.9750823360     4.1513653580    25.4021205131
O       2.4533000017     1.4179091714    18.9974812353
H       2.5195060085     1.3889421096    19.9644282379
80
Step 3 | NEB Image 3 | Cartesian Angstrom
Ni      1.2286007403     0.7093251083    11.2498994348
Ni      2.4572280993     2.8374252652    11.2497901477
Ni      3.6858806060     4.9655647809    11.2497103441
Ni      4.9145566590     7.0937024125    11.2497240890
Ni      3.6859080281     0.7092950691    11.2498144863
Ni      4.9145644544     2.8374081794    11.2496767922
Ni      6.1432420770     4.9655650069    11.2496226579
Ni      7.3719195826     7.0937049727    11.2496904218
Ni      6.1432471235     0.7092747561    11.2497542794
Ni      7.3719311296     2.8374007522    11.2496455849
Ni      8.6006129076     4.9655574224    11.2496466941
Ni      9.8292690815     7.0936851397    11.2497482540
Ni      8.6005949027     0.7092771623    11.2497596478
Ni      9.8292827471     2.8374077482    11.2497118269
Ni     11.0579450040     4.9655483163    11.2497553125
Ni     12.2865764535     7.0936582019    11.2498445220
Ni     14.7392055081     8.5053932836    13.3010713344
Ni     11.0533758960     2.1205244752    13.3003081405
Ni     12.2819626292     4.2489775184    13.3002063269
Ni     13.5103647983     6.3773980551    13.3007240266
Ni      7.3672965645     8.5050122994    13.3006304645
Ni      3.6812152863     2.1206271564    13.3000530151
Ni      4.9097769481     4.2493724521    13.2998837038
Ni      6.1381793685     6.3777306021    13.3001952471
Ni      9.8242440740     8.5049000535    13.3006604477
Ni      6.1383535623     2.1205642815    13.2998851890
Ni      7.3670017833     4.2490384875    13.2996983737
Ni      8.5955637981     6.3769412924    13.3001089649
Ni     12.2818002371     8.5052653144    13.3003778622
Ni      8.5960350643     2.1204067328    13.3002451384
Ni      9.8247355184     4.2486988278    13.2999254129
Ni     11.0530926077     6.3770680001    13.3001592864
Cu      2.4473520980     1.4018810751    15.3756235737
Cu      3.6755216432     3.5308351517    15.3733100322
Cu      4.9034659651     5.6609112340    15.3738784844
Cu      6.1328522457     7.7890378160    15.3766742261
Cu      4.9045268727     1.4014443731    15.3754395090
Cu      6.1327563231     3.5310234608    15.3732067072
Cu      7.3614237110     5.6608838325    15.3739267265
Cu      8.5910671457     7.7878693345    15.3768669568
Cu      7.3626029504     1.4026441177    15.3738802094
Cu      8.5914359602     3.5316202000    15.3745555024
Cu      9.8201775442     5.6602569735    15.3743968118
Cu     11.0494134892     7.7879611670    15.3768767396
Cu      9.8203413361     1.4034788737    15.3759455382
Cu     11.0488582179     3.5313111451    15.3756882911
Cu     12.2771774818     5.6597501813    15.3763477071
Cu     13.5057148143     7.7884556834    15.3769994585
Cu      1.2137464781     0.6833564141    17.5697309399
Cu      2.4376268254     2.8191281201    17.5400903838
Cu      3.6603219796     4.9466673655    17.5511565447
Cu      4.8965352454     7.0750082060    17.5651996839
Cu      3.6708408287     0.6799301826    17.5688135802
Cu      4.8937323699     2.7988734053    17.5339042326
Cu      6.1297823989     4.9532671391    17.5344004734
Cu      7.3555917157     7.0776732618    17.5613982701
Cu      6.1303512104     0.6779763318    17.5633951473
Cu      7.3634977496     2.8070522838    17.5497644445
Cu      8.5977338466     4.9461498566    17.5332895270
Cu      9.8181557368     7.0734994303    17.5648170995
Cu      8.5886810678     0.6816962750    17.5621317757
Cu      9.8199896066     2.8100443957    17.5664083093
Cu     11.0469405525     4.9420715404    17.5645852310
Cu     12.2740271326     7.0698879902    17.5709596681
O       5.9287361308     3.4475174879    21.4399178705
O       7.4361928703     4.3147750587    19.5784897212
O       6.4199756685     4.2644043241    24.2123357625
C       6.9499493636     4.3619154593    21.8906609555
C       8.0792304593     4.4018036853    20.8554415255
C       7.4673917168     4.0450891553    23.2743989362
H       6.4384341144     5.3353210855    21.8997000413
H       8.7850366625     3.5595002817    20.9673451470
H       8.6434960305     5.3422780886    20.8883552008
H       8.3415113814     4.6951536742    23.4730969214
H       7.8226542574     2.9946111933    23.2894496969
H       6.2536065090     2.5310499237    21.5101014374
H       6.5669733113     3.8602724558    19.7653590254
H       6.7498070235     4.0537920321    25.1023730721
O       3.1789994665     1.8412641868    19.1347019229
H       2.5017489737     1.4724234139    19.7345708999
80
Step 4 | NEB Image 4 | Cartesian Angstrom
Ni      1.2286064646     0.7093295443    11.2499084485
Ni      2.4572368208     2.8374287168    11.2498115213
Ni      3.6858892121     4.9655622797    11.2497410279
Ni      4.9145620456     7.0936940109    11.2497527363
Ni      3.6859133706     0.7093027285    11.2498313049
Ni      4.9145694596     2.8374137352    11.2497087571
Ni      6.1432441055     4.9655629460    11.2496605971
Ni      7.3719186812     7.0936969964    11.2497212286
Ni      6.1432489136     0.7092841294    11.2497759519
Ni      7.3719298400     2.8374067421    11.2496787124
Ni      8.6006084432     4.9655562631    11.2496803919
Ni      9.8292635976     7.0936793040    11.2497727932
Ni      8.6005926256     0.7092857318    11.2497805172
Ni      9.8292770129     2.8374124713    11.2497381701
Ni     11.0579375728     4.9655476377    11.2497786439
Ni     12.2865699525     7.0936546812    11.2498599004
Ni     14.7391974338     8.5053886809    13.3010818411
Ni     11.0533591543     2.1205382628    13.3003538372
Ni     12.2819429600     4.2489795497    13.3002455596
Ni     13.5103503250     6.3773936084    13.3007468912
Ni      7.3672957785     8.5049844830    13.3006851667
Ni      3.6812351102     2.1206487494    13.3001189184
Ni      4.9097947633     4.2493724809    13.2999944473
Ni      6.1381856603     6.3777045504    13.3002914146
Ni      9.8242334096     8.5048801262    13.3007032437
Ni      6.1383573680     2.1205922259    13.2999677272
Ni      7.3669945626     4.2490427814    13.2998061086
Ni      8.5955518043     6.3769228768    13.3001915827
Ni     12.2817882551     8.5052546764    13.3004017177
Ni      8.5960247996     2.1204293498    13.3003142103
Ni      9.8247159862     4.2487034334    13.3000007166
Ni     11.0530735079     6.3770579166    13.3002096518
Cu      2.4474052643     1.4019555544    15.3757226644
Cu      3.6756402875     3.5308481736    15.3736971808
Cu      4.9035706656     5.6607787328    15.3743028814
Cu      6.1328802467     7.7889211002    15.3768607774
Cu      4.9045701352     1.4015848581    15.3756413630
Cu      6.1327496795     3.5311078854    15.3737009523
Cu      7.3613960778     5.6607963483    15.3743351307
Cu      8.5910444268     7.7877800037    15.3770385947
Cu      7.3625938768     1.4027590218    15.3740615632
Cu      8.5913866393     3.5316945317    15.3748639897
Cu      9.8200969775     5.6602175227    15.3746512703
Cu     11.0493697655     7.7879167578    15.3769709367
Cu      9.8203065934     1.4035497291    15.3760800983
Cu     11.0487873992     3.5313401326    15.3758424865
Cu     12.2771210404     5.6597370121    15.3764357047
Cu     13.5056887339     7.7884407397    15.3770317523
Cu      1.2136325167     0.6833120880    17.5695069538
Cu      2.4380176105     2.8174915586    17.5439397950
Cu      3.6624973245     4.9460536815    17.5534250491
Cu      4.8968420546     7.0742223567    17.5659241722
Cu      3.6709551716     0.6800568293    17.5686645418
Cu      4.8962068033     2.8017976258    17.5379106073
Cu      6.1281757239     4.9511935583    17.5395477071
Cu      7.3557439051     7.0769535164    17.5624152385
Cu      6.1304852082     0.6783726816    17.5635436814
Cu      7.3628556944     2.8078652997    17.5511175682
Cu      8.5974851541     4.9465237768    17.5370335925
Cu      9.8179026658     7.0731103073    17.5655042993
Cu      8.5886977663     0.6819964649    17.5624692214
Cu      9.8196885188     2.8104492242    17.5673386759
Cu     11.0465202627     4.9420537265    17.5651849626
Cu     12.2739008317     7.0698169709    17.5710937396
O       6.0244552520     2.9460084191    21.0482395667
O       7.4562744061     4.2559270553    19.0442738717
O       6.1431595175     4.2783412226    23.6915680830
C       6.7551008330     4.1543123902    21.3726324941
C       7.9127905571     4.3534294261    20.4009804858
C       7.2560244034     4.0824844921    22.8083781872
H       6.0545098343     5.0028663101    21.2869448092
H       8.6899118763     3.5848513448    20.5665676967
H       8.3734765857     5.3403676744    20.5661940092
H       8.0243358317     4.8624624637    22.9687175563
H       7.7234054227     3.0955613102    22.9678683930
H       6.4414880160     2.5525944297    20.2543741645
H       4.3980995474     2.9417488157    20.4075430922
H       6.4298458711     4.0987943414    24.5922253348
O       3.5016719830     2.8015749900    19.9850887361
H       3.3014406358     1.8532795974    20.0977216408
80
Step 5 | NEB Image 5 | Cartesian Angstrom
Ni      1.2286497034     0.7093615225    11.2499999440
Ni      2.4572989609     2.8374461750    11.2499999440
Ni      3.6859482184     4.9655308275    11.2499999440
Ni      4.9145974759     7.0936154800    11.2499999440
Ni      3.6859497034     0.7093615225    11.2499999440
Ni      4.9145989609     2.8374461750    11.2499999440
Ni      6.1432482184     4.9655308275    11.2499999440
Ni      7.3718974759     7.0936154800    11.2499999440
Ni      6.1432497034     0.7093615225    11.2499999440
Ni      7.3718989609     2.8374461750    11.2499999440
Ni      8.6005482184     4.9655308275    11.2499999440
Ni      9.8291974759     7.0936154800    11.2499999440
Ni      8.6005497034     0.7093615225    11.2499999440
Ni      9.8291989609     2.8374461750    11.2499999440
Ni     11.0578482184     4.9655308275    11.2499999440
Ni     12.2864974759     7.0936154800    11.2499999440
Ni     14.7391156794     8.5053429999    13.3011712910
Ni     11.0531329642     2.1206495503    13.3008022026
Ni     12.2817169557     4.2489790177    13.3006008466
Ni     13.5101985270     6.3773433856    13.3009432678
Ni      7.3672569131     8.5047181091    13.3011774747
Ni      3.6813641840     2.1207833643    13.3007249066
Ni      4.9098915592     4.2493198517    13.3009123494
Ni      6.1382080000     6.3774560890    13.3011137055
Ni      9.8241033938     8.5046823573    13.3010831736
Ni      6.1383369699     2.1207818321    13.3007716707
Ni      7.3668809566     4.2490234521    13.3008056810
Ni      8.5953896076     6.3767159412    13.3009509974
Ni     12.2816608204     8.5051500252    13.3006066438
Ni      8.5958457422     2.1206092019    13.3010364095
Ni      9.8244550440     4.2487038138    13.3007276120
Ni     11.0528529688     6.3769410074    13.3006611374
Cu      2.4478274055     1.4024593708    15.3768195742
Cu      3.6763308468     3.5307009057    15.3768060474
Cu      4.9041378398     5.6597275336    15.3773448005
Cu      6.1330260451     7.7878910103    15.3784795057
Cu      4.9046987540     1.4026027186    15.3777977550
Cu      6.1325026510     3.5313493756    15.3777258697
Cu      7.3610720952     5.6598451741    15.3779276123
Cu      8.5906751295     7.7868954923    15.3785351588
Cu      7.3621786280     1.4037477983    15.3762151195
Cu      8.5904727564     3.5321453644    15.3780682910
Cu      9.8190628915     5.6596863338    15.3769316534
Cu     11.0489115080     7.7874997832    15.3777154348
Cu      9.8196453802     1.4041813317    15.3774700200
Cu     11.0479045662     3.5315147704    15.3771971651
Cu     12.2765483193     5.6595852924    15.3771299176
Cu     13.5054403579     7.7883030926    15.3772814178
Cu      1.2140125591     0.6836803076    17.5697065574
Cu      2.4431555374     2.8116125893    17.5665702724
Cu      3.6705110760     4.9384343512    17.5687388115
Cu      4.8988742539     7.0688538531    17.5715929661
Cu      3.6716454744     0.6829118137    17.5713989532
Cu      4.8981418913     2.8112417067    17.5722074693
Cu      6.1274353048     4.9410331682    17.5708265763
Cu      7.3554752500     7.0698228126    17.5713297733
Cu      6.1297077779     0.6833063606    17.5689100221
Cu      7.3567237656     2.8135682139    17.5698797004
Cu      8.5851063076     4.9421568820    17.5702368079
Cu      9.8152975701     7.0699596058    17.5700617325
Cu      8.5865082080     0.6855771971    17.5667967496
Cu      9.8144914881     2.8135456562    17.5749499312
Cu     11.0427692018     4.9416447797    17.5690866435
Cu     12.2728600100     7.0692517198    17.5719744219
O       5.4816243728     2.5651691502    20.6539118200
O       7.3508896973     4.2099530947    19.0383354809
O       4.4981563510     3.9587391709    22.9072956728
C       5.9290713561     3.8945947838    20.9960208007
C       7.3297021271     4.1881915565    20.4688911028
C       5.8721709119     4.0116672750    22.5089584937
H       5.2340507257     4.6323215466    20.5533350446
H       8.0432145389     3.4244560240    20.8191443760
H       7.6571223136     5.1738780612    20.8354754738
H       6.3359933253     4.9675285031    22.8148914030
H       6.4497260984     3.1808581747    22.9509168945
H       5.8597578631     2.3152772777    19.7784701378
H       3.6583776659     2.5435355524    20.3168147116
H       4.4610770249     3.8064239805    23.8648388416
O       2.7103082747     2.5416543255    20.0177020144
H       2.4292112216     1.6097423068    20.0822731560
