80
Step 1 | NEB Image 1 | Cartesian Angstrom
Ni      1.2286497034     0.7093615225    11.2499999440
Ni      2.4572989609     2.8374461750    11.2499999440
Ni      3.6859482184     4.9655308275    11.2499999440
Ni      4.9145974759     7.0936154800    11.2499999440
Ni      3.6859497034     0.7093615225    11.2499999440
Ni      4.9145989609     2.8374461750    11.2499999440
Ni      6.1432482184     4.9655308275    11.2499999440
Ni      7.3718974759     7.0936154800    11.2499999440
Ni      6.1432497034     0.7093615225    11.2499999440
Ni      7.3718989609     2.8374461750    11.2499999440
Ni      8.6005482184     4.9655308275    11.2499999440
Ni      9.8291974759     7.0936154800    11.2499999440
Ni      8.6005497034     0.7093615225    11.2499999440
Ni      9.8291989609     2.8374461750    11.2499999440
Ni     11.0578482184     4.9655308275    11.2499999440
Ni     12.2864974759     7.0936154800    11.2499999440
Ni     14.7391156794     8.5053429999    13.3011712910
Ni     11.0531329642     2.1206495503    13.3008022026
Ni     12.2817169557     4.2489790177    13.3006008466
Ni     13.5101985270     6.3773433856    13.3009432678
Ni      7.3672569131     8.5047181091    13.3011774747
Ni      3.6813641840     2.1207833643    13.3007249066
Ni      4.9098915592     4.2493198517    13.3009123494
Ni      6.1382080000     6.3774560890    13.3011137055
Ni      9.8241033938     8.5046823573    13.3010831736
Ni      6.1383369699     2.1207818321    13.3007716707
Ni      7.3668809566     4.2490234521    13.3008056810
Ni      8.5953896076     6.3767159412    13.3009509974
Ni     12.2816608204     8.5051500252    13.3006066438
Ni      8.5958457422     2.1206092019    13.3010364095
Ni      9.8244550440     4.2487038138    13.3007276120
Ni     11.0528529688     6.3769410074    13.3006611374
Cu      2.4478274055     1.4024593708    15.3768195742
Cu      3.6763308468     3.5307009057    15.3768060474
Cu      4.9041378398     5.6597275336    15.3773448005
Cu      6.1330260451     7.7878910103    15.3784795057
Cu      4.9046987540     1.4026027186    15.3777977550
Cu      6.1325026510     3.5313493756    15.3777258697
Cu      7.3610720952     5.6598451741    15.3779276123
Cu      8.5906751295     7.7868954923    15.3785351588
Cu      7.3621786280     1.4037477983    15.3762151195
Cu      8.5904727564     3.5321453644    15.3780682910
Cu      9.8190628915     5.6596863338    15.3769316534
Cu     11.0489115080     7.7874997832    15.3777154348
Cu      9.8196453802     1.4041813317    15.3774700200
Cu     11.0479045662     3.5315147704    15.3771971651
Cu     12.2765483193     5.6595852924    15.3771299176
Cu     13.5054403579     7.7883030926    15.3772814178
Cu      1.2140125591     0.6836803076    17.5697065574
Cu      2.4431555374     2.8116125893    17.5665702724
Cu      3.6705110760     4.9384343512    17.5687388115
Cu      4.8988742539     7.0688538531    17.5715929661
Cu      3.6716454744     0.6829118137    17.5713989532
Cu      4.8981418913     2.8112417067    17.5722074693
Cu      6.1274353048     4.9410331682    17.5708265763
Cu      7.3554752500     7.0698228126    17.5713297733
Cu      6.1297077779     0.6833063606    17.5689100221
Cu      7.3567237656     2.8135682139    17.5698797004
Cu      8.5851063076     4.9421568820    17.5702368079
Cu      9.8152975701     7.0699596058    17.5700617325
Cu      8.5865082080     0.6855771971    17.5667967496
Cu      9.8144914881     2.8135456562    17.5749499312
Cu     11.0427692018     4.9416447797    17.5690866435
Cu     12.2728600100     7.0692517198    17.5719744219
O       7.2288202015     4.2734569284    22.3446828621
O       8.3044696405     5.3171068409    20.0014702420
O       8.8891638945     4.8479579810    24.7349733808
C       8.5251333110     4.9000290628    22.3715153937
C       9.1804211035     4.7744357207    20.9993344800
C       9.4189460410     4.3898719266    23.4895992517
H       8.3072385962     5.9614198807    22.5605187870
H       9.4153356173     3.7172718747    20.7683620669
H      10.1139922737     5.3503076003    20.9408546493
H      10.4461642949     4.7683945991    23.3275539960
H       9.4595638267     3.2836247445    23.4537018323
H       7.3561498138     3.3073831923    22.3295378714
H       7.4071380143     4.9636379387    20.1831718691
H       9.4432595602     4.5017937719    25.4528614775
O       2.4447775074     1.3898406800    19.0162048647
H       2.5328987835     1.2730973609    19.9764139723
80
Step 2 | NEB Image 2 | Cartesian Angstrom
Ni      1.2286131778     0.7093359664    11.2499279732
Ni      2.4572448873     2.8374311576    11.2498540926
Ni      3.6858902880     4.9655515927    11.2497950145
Ni      4.9145561471     7.0936759340    11.2497945845
Ni      3.6859157647     0.7093137908    11.2498690645
Ni      4.9145636626     2.8374153565    11.2497690125
Ni      6.1432294198     4.9655505558    11.2497169198
Ni      7.3719029928     7.0936804306    11.2497578568
Ni      6.1432392275     0.7092955710    11.2498212124
Ni      7.3719100546     2.8374065931    11.2497322106
Ni      8.6005859665     4.9655463895    11.2497217481
Ni      9.8292453151     7.0936677495    11.2497954689
Ni      8.6005748508     0.7092938735    11.2498162508
Ni      9.8292538287     2.8374117186    11.2497719052
Ni     11.0579167978     4.9655414410    11.2498000283
Ni     12.2865561617     7.0936485293    11.2498692987
Ni     14.7391880112     8.5053850553    13.3010813964
Ni     11.0533041727     2.1205394241    13.3004007712
Ni     12.2819011807     4.2489701912    13.3002659434
Ni     13.5103290100     6.3773861579    13.3007499177
Ni      7.3672630865     8.5049410313    13.3007418462
Ni      3.6812545604     2.1206800582    13.3002759444
Ni      4.9097636756     4.2493352745    13.3001940060
Ni      6.1381419632     6.3776464010    13.3004117794
Ni      9.8241983791     8.5048534163    13.3007312842
Ni      6.1383082014     2.1206101764    13.3001444997
Ni      7.3669250814     4.2490101892    13.2999551703
Ni      8.5954944166     6.3768799058    13.3002757746
Ni     12.2817668234     8.5052441156    13.3004073010
Ni      8.5959547064     2.1204374575    13.3004273714
Ni      9.8246441723     4.2486858671    13.3000819658
Ni     11.0530261711     6.3770366722    13.3002396621
Cu      2.4475474186     1.4021124338    15.3758477197
Cu      3.6758482498     3.5307946177    15.3747347242
Cu      4.9033519273     5.6604609385    15.3748568045
Cu      6.1327763663     7.7887494147    15.3770582982
Cu      4.9045515071     1.4019247111    15.3763833813
Cu      6.1323316735     3.5308811357    15.3745018119
Cu      7.3612170931     5.6605761334    15.3747112619
Cu      8.5909037906     7.7876487047    15.3771549524
Cu      7.3623319425     1.4028656127    15.3745233714
Cu      8.5910731977     3.5316585823    15.3753084312
Cu      9.8198130388     5.6600799931    15.3748731864
Cu     11.0492852284     7.7878775738    15.3769680332
Cu      9.8200975729     1.4035861593    15.3762660457
Cu     11.0485927423     3.5313088388    15.3759164120
Cu     12.2770411690     5.6597109669    15.3764140435
Cu     13.5056658097     7.7884347566    15.3770136507
Cu      1.2129165866     0.6826978930    17.5686314374
Cu      2.4404332341     2.8225822862    17.5459644364
Cu      3.6648949778     4.9415698259    17.5611260589
Cu      4.8962107454     7.0731170567    17.5668594228
Cu      3.6727221094     0.6801421367    17.5682531305
Cu      4.8947795451     2.8056011374    17.5567165095
Cu      6.1233020450     4.9489054489    17.5352642667
Cu      7.3549803028     7.0760162055    17.5630477149
Cu      6.1296420026     0.6801217196    17.5658672080
Cu      7.3604104157     2.8060287941    17.5533311288
Cu      8.5918482779     4.9434920943    17.5438710179
Cu      9.8172729825     7.0729394468    17.5651612255
Cu      8.5876167427     0.6826074289    17.5635445041
Cu      9.8181326418     2.8104262301    17.5678295000
Cu     11.0460717767     4.9418393560    17.5645122219
Cu     12.2738715649     7.0698518807    17.5708839777
O       6.5506079437     3.7516143528    21.8807867484
O       7.8475781630     5.0981118806    19.8639667012
O       7.5554640817     4.4311560674    24.5842030514
C       7.6865694391     4.5791312697    22.1966978878
C       8.6117237456     4.6438746432    20.9872352487
C       8.4080755261     4.1613342889    23.4622189780
H       7.2527731516     5.5784943742    22.3571406829
H       9.0584437228     3.6539691278    20.7704524638
H       9.4264807455     5.3674597201    21.1231480588
H       9.3513409743     4.7341197577    23.5344368162
H       8.6685982989     3.0870192196    23.4066266666
H       6.8528760885     2.8300061169    21.7996570226
H       6.9949965437     4.6036930204    19.8921016390
H       8.0130357727     4.1874013320    25.3866067007
O       2.4484707925     1.4151238448    18.9998835202
H       2.5176980474     1.3838070583    19.9619982867
80
Step 3 | NEB Image 3 | Cartesian Angstrom
Ni      1.2286013690     0.7093256733    11.2499009961
Ni      2.4572289192     2.8374255417    11.2497936121
Ni      3.6858809758     4.9655640114    11.2497148628
Ni      4.9145564711     7.0937009650    11.2497277619
Ni      3.6859083678     0.7092960430    11.2498174843
Ni      4.9145642596     2.8374084772    11.2496817557
Ni      6.1432412109     4.9655641442    11.2496275795
Ni      7.3719185500     7.0937036365    11.2496938371
Ni      6.1432465680     0.7092758142    11.2497579260
Ni      7.3719298219     2.8374009523    11.2496501579
Ni      8.6006113171     4.9655567517    11.2496505123
Ni      9.8292677230     7.0936841982    11.2497505597
Ni      8.6005936888     0.7092779817    11.2497626583
Ni      9.8292810670     2.8374078654    11.2497149014
Ni     11.0579434183     4.9655478972    11.2497574935
Ni     12.2865753460     7.0936576861    11.2498456598
Ni     14.7392046243     8.5053928912    13.3010716737
Ni     11.0533718016     2.1205250318    13.3003127345
Ni     12.2819592749     4.2489769923    13.3002090005
Ni     13.5103629317     6.3773974241    13.3007250198
Ni      7.3672944508     8.5050085533    13.3006359955
Ni      3.6812172211     2.1206299099    13.3000653413
Ni      4.9097755877     4.2493700789    13.2999003132
Ni      6.1381768003     6.3777259799    13.3002062930
Ni      9.8242414655     8.5048976518    13.3006637346
Ni      6.1383505580     2.1205664048    13.2998993574
Ni      7.3669970969     4.2490365580    13.2997116556
Ni      8.5955597164     6.3769379059    13.3001172283
Ni     12.2817984502     8.5052642683    13.3003790532
Ni      8.5960302323     2.1204080416    13.3002547764
Ni      9.8247302523     4.2486978680    13.2999332327
Ni     11.0530889187     6.3770662916    13.3001629639
Cu      2.4473630296     1.4018936921    15.3756350212
Cu      3.6755390653     3.5308321899    15.3733897871
Cu      4.9034556707     5.6608863184    15.3739286821
Cu      6.1328465967     7.7890227762    15.3766933582
Cu      4.9045271979     1.4014709757    15.3754939219
Cu      6.1327294169     3.5310119458    15.3732751065
Cu      7.3614113227     5.6608667189    15.3739650193
Cu      8.5910573765     7.7878578302    15.3768803878
Cu      7.3625859184     1.4026549403    15.3739160243
Cu      8.5914142330     3.5316205071    15.3745946578
Cu      9.8201566063     5.6602468170    15.3744198769
Cu     11.0494065647     7.7879571126    15.3768798505
Cu      9.8203267824     1.4034836778    15.3759621124
Cu     11.0488433183     3.5313101625    15.3756984042
Cu     12.2771704100     5.6597480585    15.3763494042
Cu     13.5057124389     7.7884547787    15.3769994334
Cu      1.2136968055     0.6833156701    17.5696672337
Cu      2.4377946453     2.8193957007    17.5403542815
Cu      3.6605510996     4.9463597681    17.5517273413
Cu      4.8965056965     7.0749101758    17.5652847158
Cu      3.6709575814     0.6799400579    17.5687821121
Cu      4.8937278814     2.7992184408    17.5352444652
Cu      6.1294151787     4.9530485703    17.5343072554
Cu      7.3555483144     7.0775882644    17.5614742161
Cu      6.1303020929     0.6781018104    17.5635486133
Cu      7.3633192446     2.8069635428    17.5499530453
Cu      8.5973654449     4.9459694840    17.5338568507
Cu      9.8181066999     7.0734749109    17.5648192543
Cu      8.5886126701     0.6817457662    17.5622121996
Cu      9.8198797874     2.8100570944    17.5664721858
Cu     11.0468972267     4.9420572377    17.5645632885
Cu     12.2740208454     7.0698877327    17.5709509744
O       5.9756434682     3.4808465397    21.3996586851
O       7.4712437851     4.3571531611    19.5411830637
O       6.4867292371     4.2808803687    24.1791604221
C       7.0071599747     4.3815342713    21.8548155435
C       8.1286124353     4.4257827162    20.8122559151
C       7.5287240381     4.0585224597    23.2271908287
H       6.4988152735     5.3635278485    21.8682949610
H       8.8259367948     3.5730260137    20.9065152875
H       8.7023353236     5.3583383234    20.8457783386
H       8.4072751900     4.7022923616    23.4263827654
H       7.8763939854     3.0061669897    23.2390509232
H       6.2987211595     2.5603026707    21.4541781425
H       6.6003806520     3.9077518656    19.7318878924
H       6.8187276963     4.0778418321    25.0572352715
O       3.1158581248     1.8023047161    19.1372704468
H       2.4366091677     1.4286096231    19.7335475495
80
Step 4 | NEB Image 4 | Cartesian Angstrom
Ni      1.2286068978     0.7093298750    11.2499090937
Ni      2.4572374898     2.8374289846    11.2498130665
Ni      3.6858899006     4.9655621224    11.2497432758
Ni      4.9145625037     7.0936934090    11.2497548702
Ni      3.6859137909     0.7093032996    11.2498325033
Ni      4.9145698865     2.8374141759    11.2497110822
Ni      6.1432443294     4.9655628312    11.2496634195
Ni      7.3719186734     7.0936964225    11.2497235580
Ni      6.1432490977     0.7092848369    11.2497775101
Ni      7.3719298178     2.8374072250    11.2496811590
Ni      8.6006081764     4.9655562105    11.2496829345
Ni      9.8292632315     7.0936788819    11.2497746754
Ni      8.6005925157     0.7092863882    11.2497820501
Ni      9.8292766468     2.8374128547    11.2497401519
Ni     11.0579370602     4.9655476087    11.2497804342
Ni     12.2865694859     7.0936544231    11.2498610999
Ni     14.7391968226     8.5053883253    13.3010826889
Ni     11.0533580332     2.1205393681    13.3003573229
Ni     12.2819415487     4.2489797518    13.3002486344
Ni     13.5103492476     6.3773932811    13.3007487197
Ni      7.3672958501     8.5049824226    13.3006893374
Ni      3.6812366261     2.1206503588    13.3001235768
Ni      4.9097963260     4.2493726367    13.3000025405
Ni      6.1381863472     6.3777026928    13.3002986610
Ni      9.8242326954     8.5048786320    13.3007065738
Ni      6.1383578773     2.1205944018    13.2999736435
Ni      7.3669942680     4.2490432616    13.2998141680
Ni      8.5955510754     6.3769215714    13.3001978875
Ni     12.2817873788     8.5052538635    13.3004036155
Ni      8.5960242623     2.1204311374    13.3003193049
Ni      9.8247147099     4.2487038767    13.3000064446
Ni     11.0530721654     6.3770571923    13.3002135833
Cu      2.4474089584     1.4019609039    15.3757301269
Cu      3.6756489823     3.5308494431    15.3737240714
Cu      4.9035799986     5.6607693756    15.3743347670
Cu      6.1328829299     7.7889124110    15.3768749830
Cu      4.9045736955     1.4015947672    15.3756545537
Cu      6.1327508695     3.5311156188    15.3737374428
Cu      7.3613945914     5.6607902131    15.3743664622
Cu      8.5910431779     7.7877733529    15.3770519344
Cu      7.3625942272     1.4027678337    15.3740742596
Cu      8.5913839616     3.5317006651    15.3748869943
Cu      9.8200916623     5.6602149137    15.3746708429
Cu     11.0493665939     7.7879133437    15.3769785333
Cu      9.8203046586     1.4035552839    15.3760901654
Cu     11.0487825004     3.5313425958    15.3758545968
Cu     12.2771168255     5.6597360592    15.3764428795
Cu     13.5056867286     7.7884395611    15.3770344272
Cu      1.2136262953     0.6833110536    17.5694925320
Cu      2.4380391070     2.8173387782    17.5442413858
Cu      3.6626625838     4.9460227729    17.5535759238
Cu      4.8968693634     7.0741636432    17.5659786468
Cu      3.6709570865     0.6800666745    17.5686542394
Cu      4.8964119291     2.8020173813    17.5381555842
Cu      6.1280664705     4.9510360407    17.5399798275
Cu      7.3557593103     7.0768994322    17.5624945124
Cu      6.1304994772     0.6783973770    17.5635460524
Cu      7.3628140886     2.8079383408    17.5512173839
Cu      8.5974883920     4.9465663951    17.5373068399
Cu      9.8178848876     7.0730796811    17.5655610469
Cu      8.5887035720     0.6820181142    17.5624919543
Cu      9.8196706967     2.8104819150    17.5674115614
Cu     11.0464882727     4.9420531768    17.5652360279
Cu     12.2738907830     7.0698111085    17.5711054004
O       6.0070456136     2.9760478006    21.0470428853
O       7.4653924646     4.2594611981    19.0531953566
O       6.1286439066     4.2863423242    23.6882056192
C       6.7534418902     4.1679274594    21.3761330647
C       7.9200021620     4.3536284347    20.4071493648
C       7.2441625023     4.0859027182    22.8203914937
H       6.0673451424     5.0292462540    21.2918803452
H       8.6862099823     3.5766254430    20.5797740561
H       8.3920558948     5.3347548510    20.5760464178
H       8.0200934812     4.8596218409    22.9882121695
H       7.7043830694     3.0950175818    22.9749379149
H       6.4426699828     2.5580291818    20.2752834351
H       4.4040272005     2.9414136934    20.3640420571
H       6.4054344237     4.1018473419    24.5956200612
O       3.5106046966     2.7798233802    19.9399236362
H       3.3039039564     1.8421441076    20.0917985417
80
Step 5 | NEB Image 5 | Cartesian Angstrom
Ni      1.2286497034     0.7093615225    11.2499999440
Ni      2.4572989609     2.8374461750    11.2499999440
Ni      3.6859482184     4.9655308275    11.2499999440
Ni      4.9145974759     7.0936154800    11.2499999440
Ni      3.6859497034     0.7093615225    11.2499999440
Ni      4.9145989609     2.8374461750    11.2499999440
Ni      6.1432482184     4.9655308275    11.2499999440
Ni      7.3718974759     7.0936154800    11.2499999440
Ni      6.1432497034     0.7093615225    11.2499999440
Ni      7.3718989609     2.8374461750    11.2499999440
Ni      8.6005482184     4.9655308275    11.2499999440
Ni      9.8291974759     7.0936154800    11.2499999440
Ni      8.6005497034     0.7093615225    11.2499999440
Ni      9.8291989609     2.8374461750    11.2499999440
Ni     11.0578482184     4.9655308275    11.2499999440
Ni     12.2864974759     7.0936154800    11.2499999440
Ni     14.7391156794     8.5053429999    13.3011712910
Ni     11.0531329642     2.1206495503    13.3008022026
Ni     12.2817169557     4.2489790177    13.3006008466
Ni     13.5101985270     6.3773433856    13.3009432678
Ni      7.3672569131     8.5047181091    13.3011774747
Ni      3.6813641840     2.1207833643    13.3007249066
Ni      4.9098915592     4.2493198517    13.3009123494
Ni      6.1382080000     6.3774560890    13.3011137055
Ni      9.8241033938     8.5046823573    13.3010831736
Ni      6.1383369699     2.1207818321    13.3007716707
Ni      7.3668809566     4.2490234521    13.3008056810
Ni      8.5953896076     6.3767159412    13.3009509974
Ni     12.2816608204     8.5051500252    13.3006066438
Ni      8.5958457422     2.1206092019    13.3010364095
Ni      9.8244550440     4.2487038138    13.3007276120
Ni     11.0528529688     6.3769410074    13.3006611374
Cu      2.4478274055     1.4024593708    15.3768195742
Cu      3.6763308468     3.5307009057    15.3768060474
Cu      4.9041378398     5.6597275336    15.3773448005
Cu      6.1330260451     7.7878910103    15.3784795057
Cu      4.9046987540     1.4026027186    15.3777977550
Cu      6.1325026510     3.5313493756    15.3777258697
Cu      7.3610720952     5.6598451741    15.3779276123
Cu      8.5906751295     7.7868954923    15.3785351588
Cu      7.3621786280     1.4037477983    15.3762151195
Cu      8.5904727564     3.5321453644    15.3780682910
Cu      9.8190628915     5.6596863338    15.3769316534
Cu     11.0489115080     7.7874997832    15.3777154348
Cu      9.8196453802     1.4041813317    15.3774700200
Cu     11.0479045662     3.5315147704    15.3771971651
Cu     12.2765483193     5.6595852924    15.3771299176
Cu     13.5054403579     7.7883030926    15.3772814178
Cu      1.2140125591     0.6836803076    17.5697065574
Cu      2.4431555374     2.8116125893    17.5665702724
Cu      3.6705110760     4.9384343512    17.5687388115
Cu      4.8988742539     7.0688538531    17.5715929661
Cu      3.6716454744     0.6829118137    17.5713989532
Cu      4.8981418913     2.8112417067    17.5722074693
Cu      6.1274353048     4.9410331682    17.5708265763
Cu      7.3554752500     7.0698228126    17.5713297733
Cu      6.1297077779     0.6833063606    17.5689100221
Cu      7.3567237656     2.8135682139    17.5698797004
Cu      8.5851063076     4.9421568820    17.5702368079
Cu      9.8152975701     7.0699596058    17.5700617325
Cu      8.5865082080     0.6855771971    17.5667967496
Cu      9.8144914881     2.8135456562    17.5749499312
Cu     11.0427692018     4.9416447797    17.5690866435
Cu     12.2728600100     7.0692517198    17.5719744219
O       5.4816243728     2.5651691502    20.6539118200
O       7.3508896973     4.2099530947    19.0383354809
O       4.4981563510     3.9587391709    22.9072956728
C       5.9290713561     3.8945947838    20.9960208007
C       7.3297021271     4.1881915565    20.4688911028
C       5.8721709119     4.0116672750    22.5089584937
H       5.2340507257     4.6323215466    20.5533350446
H       8.0432145389     3.4244560240    20.8191443760
H       7.6571223136     5.1738780612    20.8354754738
H       6.3359933253     4.9675285031    22.8148914030
H       6.4497260984     3.1808581747    22.9509168945
H       5.8597578631     2.3152772777    19.7784701378
H       3.6583776659     2.5435355524    20.3168147116
H       4.4610770249     3.8064239805    23.8648388416
O       2.7103082747     2.5416543255    20.0177020144
H       2.4292112216     1.6097423068    20.0822731560
