80
Step 1 | NEB Image 1 | Cartesian Angstrom
Ni      1.2286497034     0.7093615225    11.2499999440
Ni      2.4572989609     2.8374461750    11.2499999440
Ni      3.6859482184     4.9655308275    11.2499999440
Ni      4.9145974759     7.0936154800    11.2499999440
Ni      3.6859497034     0.7093615225    11.2499999440
Ni      4.9145989609     2.8374461750    11.2499999440
Ni      6.1432482184     4.9655308275    11.2499999440
Ni      7.3718974759     7.0936154800    11.2499999440
Ni      6.1432497034     0.7093615225    11.2499999440
Ni      7.3718989609     2.8374461750    11.2499999440
Ni      8.6005482184     4.9655308275    11.2499999440
Ni      9.8291974759     7.0936154800    11.2499999440
Ni      8.6005497034     0.7093615225    11.2499999440
Ni      9.8291989609     2.8374461750    11.2499999440
Ni     11.0578482184     4.9655308275    11.2499999440
Ni     12.2864974759     7.0936154800    11.2499999440
Ni     14.7391156794     8.5053429999    13.3011712910
Ni     11.0531329642     2.1206495503    13.3008022026
Ni     12.2817169557     4.2489790177    13.3006008466
Ni     13.5101985270     6.3773433856    13.3009432678
Ni      7.3672569131     8.5047181091    13.3011774747
Ni      3.6813641840     2.1207833643    13.3007249066
Ni      4.9098915592     4.2493198517    13.3009123494
Ni      6.1382080000     6.3774560890    13.3011137055
Ni      9.8241033938     8.5046823573    13.3010831736
Ni      6.1383369699     2.1207818321    13.3007716707
Ni      7.3668809566     4.2490234521    13.3008056810
Ni      8.5953896076     6.3767159412    13.3009509974
Ni     12.2816608204     8.5051500252    13.3006066438
Ni      8.5958457422     2.1206092019    13.3010364095
Ni      9.8244550440     4.2487038138    13.3007276120
Ni     11.0528529688     6.3769410074    13.3006611374
Cu      2.4478274055     1.4024593708    15.3768195742
Cu      3.6763308468     3.5307009057    15.3768060474
Cu      4.9041378398     5.6597275336    15.3773448005
Cu      6.1330260451     7.7878910103    15.3784795057
Cu      4.9046987540     1.4026027186    15.3777977550
Cu      6.1325026510     3.5313493756    15.3777258697
Cu      7.3610720952     5.6598451741    15.3779276123
Cu      8.5906751295     7.7868954923    15.3785351588
Cu      7.3621786280     1.4037477983    15.3762151195
Cu      8.5904727564     3.5321453644    15.3780682910
Cu      9.8190628915     5.6596863338    15.3769316534
Cu     11.0489115080     7.7874997832    15.3777154348
Cu      9.8196453802     1.4041813317    15.3774700200
Cu     11.0479045662     3.5315147704    15.3771971651
Cu     12.2765483193     5.6595852924    15.3771299176
Cu     13.5054403579     7.7883030926    15.3772814178
Cu      1.2140125591     0.6836803076    17.5697065574
Cu      2.4431555374     2.8116125893    17.5665702724
Cu      3.6705110760     4.9384343512    17.5687388115
Cu      4.8988742539     7.0688538531    17.5715929661
Cu      3.6716454744     0.6829118137    17.5713989532
Cu      4.8981418913     2.8112417067    17.5722074693
Cu      6.1274353048     4.9410331682    17.5708265763
Cu      7.3554752500     7.0698228126    17.5713297733
Cu      6.1297077779     0.6833063606    17.5689100221
Cu      7.3567237656     2.8135682139    17.5698797004
Cu      8.5851063076     4.9421568820    17.5702368079
Cu      9.8152975701     7.0699596058    17.5700617325
Cu      8.5865082080     0.6855771971    17.5667967496
Cu      9.8144914881     2.8135456562    17.5749499312
Cu     11.0427692018     4.9416447797    17.5690866435
Cu     12.2728600100     7.0692517198    17.5719744219
O       7.2288202015     4.2734569284    22.3446828621
O       8.3044696405     5.3171068409    20.0014702420
O       8.8891638945     4.8479579810    24.7349733808
C       8.5251333110     4.9000290628    22.3715153937
C       9.1804211035     4.7744357207    20.9993344800
C       9.4189460410     4.3898719266    23.4895992517
H       8.3072385962     5.9614198807    22.5605187870
H       9.4153356173     3.7172718747    20.7683620669
H      10.1139922737     5.3503076003    20.9408546493
H      10.4461642949     4.7683945991    23.3275539960
H       9.4595638267     3.2836247445    23.4537018323
H       7.3561498138     3.3073831923    22.3295378714
H       7.4071380143     4.9636379387    20.1831718691
H       9.4432595602     4.5017937719    25.4528614775
O       2.4447775074     1.3898406800    19.0162048647
H       2.5328987835     1.2730973609    19.9764139723
80
Step 2 | NEB Image 2 | Cartesian Angstrom
Ni      1.2286127465     0.7093355903    11.2499269859
Ni      2.4572443046     2.8374309529    11.2498518798
Ni      3.6858899500     4.9655520480    11.2497920832
Ni      4.9145561617     7.0936768500    11.2497921423
Ni      3.6859154955     0.7093131422    11.2498671766
Ni      4.9145636871     2.8374151064    11.2497658206
Ni      6.1432298543     4.9655510544    11.2497136544
Ni      7.3719035643     7.0936812798    11.2497555187
Ni      6.1432394983     0.7092948494    11.2498188966
Ni      7.3719107807     2.8374063887    11.2497292107
Ni      8.6005868963     4.9655467699    11.2497191462
Ni      9.8292461361     7.0936683513    11.2497938302
Ni      8.6005755423     0.7092932936    11.2498142910
Ni      9.8292548272     2.8374115794    11.2497698228
Ni     11.0579177728     4.9655416780    11.2497984764
Ni     12.2865568637     7.0936488642    11.2498684374
Ni     14.7391886179     8.5053853411    13.3010810443
Ni     11.0533066507     2.1205389020    13.3003975577
Ni     12.2819033067     4.2489704423    13.3002638698
Ni     13.5103302498     6.3773865699    13.3007490139
Ni      7.3672642393     8.5049434997    13.3007379823
Ni      3.6812531977     2.1206782254    13.3002682348
Ni      4.9097641226     4.2493365542    13.3001832643
Ni      6.1381432473     6.3776493136    13.3004042734
Ni      9.8241999578     8.5048550326    13.3007288224
Ni      6.1383097606     2.1206085813    13.3001355286
Ni      7.3669277255     4.2490111609    13.2999462720
Ni      8.5954968113     6.3768820289    13.3002699875
Ni     12.2817679801     8.5052448512    13.3004062746
Ni      8.5959574780     2.1204363875    13.3004210608
Ni      9.8246473273     4.2486863106    13.3000765357
Ni     11.0530284684     6.3770377561    13.3002368678
Cu      2.4475406663     1.4021044294    15.3758399500
Cu      3.6758369425     3.5307960058    15.3746854724
Cu      4.9033557951     5.6604765108    15.3748228968
Cu      6.1327789628     7.7887594059    15.3770449757
Cu      4.9045506354     1.4019081003    15.3763507815
Cu      6.1323462940     3.5308859884    15.3744569618
Cu      7.3612242202     5.6605867727    15.3746840333
Cu      8.5909094259     7.7876563481    15.3771449451
Cu      7.3623412759     1.4028579256    15.3745011336
Cu      8.5910857114     3.5316572203    15.3752823453
Cu      9.8198256296     5.6600861066    15.3748566494
Cu     11.0492896673     7.7878804755    15.3769648391
Cu      9.8201059826     1.4035824275    15.3762549396
Cu     11.0486019191     3.5313089023    15.3759084752
Cu     12.2770458920     5.6597123240    15.3764117118
Cu     13.5056675108     7.7884354852    15.3770131445
Cu      1.2129452148     0.6827205843    17.5686694063
Cu      2.4403364202     2.8224642888    17.5457601327
Cu      3.6647363766     4.9417456251    17.5607816532
Cu      4.8962217466     7.0731825833    17.5668018953
Cu      3.6726572911     0.6801347715    17.5682725035
Cu      4.8947421420     2.8053679571    17.5559290893
Cu      6.1235259871     4.9490567208    17.5352317086
Cu      7.3550012647     7.0760736381    17.5629903811
Cu      6.1296663406     0.6800476557    17.5657820357
Cu      7.3605170372     2.8060635773    17.5532076172
Cu      8.5920510014     4.9435833719    17.5435047374
Cu      9.8173035067     7.0729589355    17.5651490031
Cu      8.5876533686     0.6825759013    17.5634956914
Cu      9.8181967256     2.8104128648    17.5677800706
Cu     11.0461019116     4.9418473578    17.5645144057
Cu     12.2738769891     7.0698531626    17.5708865094
O       6.5371964694     3.7479110817    21.8793828443
O       7.8484215145     5.0994006842    19.8783366832
O       7.5238107851     4.3996667819    24.5880823507
C       7.6699990309     4.5710368350    22.2062498154
C       8.6049646763     4.6453551252    21.0053238385
C       8.3812615839     4.1448551902    23.4779873327
H       7.2360543626     5.5690300920    22.3736637610
H       9.0568636794     3.6575355948    20.7891202064
H       9.4143922939     5.3700163370    21.1511551895
H       9.3262295038     4.7175194608    23.5590400253
H       8.6482551874     3.0683618931    23.4101631474
H       6.8386468363     2.8230048869    21.7990761656
H       6.9951276996     4.6066559619    19.9005806435
H       7.9814328614     4.1556795162    25.4003235348
O       2.4533957871     1.4179555285    18.9959514535
H       2.5194695366     1.3882554012    19.9662548054
80
Step 3 | NEB Image 3 | Cartesian Angstrom
Ni      1.2286008041     0.7093251658    11.2498995945
Ni      2.4572281822     2.8374252931    11.2497905017
Ni      3.6858806424     4.9655647017    11.2497108053
Ni      4.9145566383     7.0937022645    11.2497244631
Ni      3.6859080621     0.7092951683    11.2498147931
Ni      4.9145644331     2.8374082090    11.2496772992
Ni      6.1432419869     4.9655649180    11.2496231592
Ni      7.3719194758     7.0937048361    11.2496907686
Ni      6.1432470655     0.7092748636    11.2497546523
Ni      7.3719309944     2.8374007715    11.2496460512
Ni      8.6006127439     4.9655573532    11.2496470821
Ni      9.8292689420     7.0936850435    11.2497484874
Ni      8.6005947774     0.7092772452    11.2497599550
Ni      9.8292825744     2.8374077593    11.2497121395
Ni     11.0579448415     4.9655482731    11.2497555332
Ni     12.2865763402     7.0936581492    11.2498446364
Ni     14.7392054184     8.5053932440    13.3010713672
Ni     11.0533754756     2.1205245298    13.3003086061
Ni     12.2819622862     4.2489774635    13.3002065950
Ni     13.5103646082     6.3773979908    13.3007241243
Ni      7.3672963457     8.5050119176    13.3006310251
Ni      3.6812154823     2.1206274368    13.3000542771
Ni      4.9097768032     4.2493722063    13.2998853995
Ni      6.1381791011     6.3777301292    13.3001963698
Ni      9.8242438062     8.5048998092    13.3006607786
Ni      6.1383532502     2.1205644951    13.2998866382
Ni      7.3670012995     4.2490382867    13.2996997254
Ni      8.5955633780     6.3769409457    13.3001098023
Ni     12.2818000547     8.5052652084    13.3003779802
Ni      8.5960345661     2.1204068633    13.3002461213
Ni      9.8247349773     4.2486987273    13.2999262060
Ni     11.0530922299     6.3770678254    13.3001596561
Cu      2.4473532185     1.4018823653    15.3756247373
Cu      3.6755234213     3.5308348420    15.3733182069
Cu      4.9034648752     5.6609086828    15.3738835890
Cu      6.1328516542     7.7890362843    15.3766761660
Cu      4.9045268967     1.4014470973    15.3754451002
Cu      6.1327535375     3.5310222491    15.3732136816
Cu      7.3614224339     5.6608820794    15.3739306015
Cu      8.5910661388     7.7878681629    15.3768683095
Cu      7.3626011882     1.4026452130    15.3738838787
Cu      8.5914337206     3.5316202151    15.3745594891
Cu      9.8201753933     5.6602559302    15.3743991440
Cu     11.0494127817     7.7879607570    15.3768770407
Cu      9.8203398364     1.4034793554    15.3759472249
Cu     11.0488566903     3.5313110368    15.3756893041
Cu     12.2771767619     5.6597499644    15.3763478632
Cu     13.5057145741     7.7884555931    15.3769994486
Cu      1.2137413582     0.6833522035    17.5697243910
Cu      2.4376441217     2.8191562052    17.5401168566
Cu      3.6603452254     4.9466356401    17.5512151629
Cu      4.8965321157     7.0749982277    17.5652083296
Cu      3.6708528971     0.6799311771    17.5688103540
Cu      4.8937313498     2.7989084904    17.5340421645
Cu      6.1297447201     4.9532449634    17.5343896624
Cu      7.3555871857     7.0776646187    17.5614059089
Cu      6.1303460924     0.6779892409    17.5634110111
Cu      7.3634794028     2.8070429090    17.5497836775
Cu      8.5976957407     4.9461310884    17.5333474544
Cu      9.8181507140     7.0734969777    17.5648171685
Cu      8.5886739789     0.6817013343    17.5621400309
Cu      9.8199782983     2.8100456203    17.5664147173
Cu     11.0469361588     4.9420700628    17.5645828235
Cu     12.2740265097     7.0698879795    17.5709587375
O       5.9340515157     3.4513469602    21.4361550829
O       7.4410817872     4.3203649310    19.5750422457
O       6.4252579956     4.2676487545    24.2019196674
C       6.9544148805     4.3663209003    21.8869153169
C       8.0855778784     4.4024952834    20.8523228227
C       7.4739434977     4.0452982478    23.2721190860
H       6.4454675395     5.3368931617    21.8974787591
H       8.7891473500     3.5616813723    20.9621436078
H       8.6504575651     5.3448970578    20.8855620017
H       8.3491112480     4.6957473481    23.4686087446
H       7.8286501059     2.9957754798    23.2845990699
H       6.2586487007     2.5335066114    21.5047124245
H       6.5710458775     3.8650295556    19.7625028531
H       6.7591173954     4.0539934785    25.1035986828
O       3.1708713151     1.8364628259    19.1351332258
H       2.4939102476     1.4678314775    19.7339592397
80
Step 4 | NEB Image 4 | Cartesian Angstrom
Ni      1.2286064913     0.7093295654    11.2499084938
Ni      2.4572368606     2.8374287323    11.2498116272
Ni      3.6858892489     4.9655622652    11.2497411775
Ni      4.9145620663     7.0936939688    11.2497528727
Ni      3.6859133940     0.7093027650    11.2498313898
Ni      4.9145694786     2.8374137593    11.2497089143
Ni      6.1432441087     4.9655629327    11.2496607782
Ni      7.3719186717     7.0936969566    11.2497213723
Ni      6.1432489176     0.7092841732    11.2497760601
Ni      7.3719298273     2.8374067674    11.2496788721
Ni      8.6006084161     4.9655562545    11.2496805496
Ni      9.8292635678     7.0936792751    11.2497729052
Ni      8.6005926095     0.7092857710    11.2497806185
Ni      9.8292769801     2.8374124910    11.2497382938
Ni     11.0579375338     4.9655476326    11.2497787503
Ni     12.2865699199     7.0936546640    11.2498599689
Ni     14.7391973962     8.5053886601    13.3010818854
Ni     11.0533590634     2.1205383215    13.3003540476
Ni     12.2819428615     4.2489795548    13.3002457330
Ni     13.5103502560     6.3773935869    13.3007469890
Ni      7.3672957632     8.5049843495    13.3006854188
Ni      3.6812352012     2.1206488522    13.3001192546
Ni      4.9097948272     4.2493724674    13.2999949886
Ni      6.1381856709     6.3777044190    13.3002918653
Ni      9.8242333516     8.5048800322    13.3007034349
Ni      6.1383573661     2.1205923506    13.2999681409
Ni      7.3669945067     4.2490427876    13.2998066187
Ni      8.5955517326     6.3769227832    13.3001919629
Ni     12.2817881966     8.5052546276    13.3004018206
Ni      8.5960247305     2.1204294484    13.3003145438
Ni      9.8247158773     4.2487034464    13.3000010648
Ni     11.0530734098     6.3770578662    13.3002098758
Cu      2.4474055411     1.4019559268    15.3757231292
Cu      3.6756408654     3.5308482091    15.3736991976
Cu      4.9035710283     5.6607780562    15.3743048787
Cu      6.1328803270     7.7889205438    15.3768616385
Cu      4.9045703113     1.4015855766    15.3756424882
Cu      6.1327494984     3.5311081594    15.3737033353
Cu      7.3613958954     5.6607958978    15.3743369953
Cu      8.5910442792     7.7877795779    15.3770393630
Cu      7.3625937426     1.4027595467    15.3740624991
Cu      8.5913863160     3.5316948329    15.3748654568
Cu      9.8200965329     5.6602173055    15.3746524275
Cu     11.0493695497     7.7879165556    15.3769713340
Cu      9.8203063700     1.4035500421    15.3760807354
Cu     11.0487870285     3.5313402438    15.3758431655
Cu     12.2771207725     5.6597369469    15.3764360689
Cu     13.5056886153     7.7884406743    15.3770318822
Cu      1.2136317728     0.6833116758    17.5695056862
Cu      2.4380201472     2.8174865018    17.5439568135
Cu      3.6625074006     4.9460494453    17.5534374604
Cu      4.8968431209     7.0742186292    17.5659275780
Cu      3.6709563019     0.6800573960    17.5686637610
Cu      4.8962167440     2.8018113831    17.5379344321
Cu      6.1281671461     4.9511839526    17.5395679043
Cu      7.3557442692     7.0769501298    17.5624197703
Cu      6.1304854662     0.6783749978    17.5635451600
Cu      7.3628520844     2.8078680653    17.5511241002
Cu      8.5974820392     4.9465242482    17.5370519272
Cu      9.8179013652     7.0731085994    17.5655070795
Cu      8.5886974412     0.6819979579    17.5624710419
Cu      9.8196866762     2.8104509276    17.5673427896
Cu     11.0465183213     4.9420535727    17.5651872523
Cu     12.2739002869     7.0698166833    17.5710942297
O       6.0248472016     2.9475080157    21.0477456962
O       7.4566977550     4.2563481958    19.0452073344
O       6.1425539513     4.2802928184    23.6843830857
C       6.7553276165     4.1564534019    21.3739854575
C       7.9140452382     4.3535061566    20.4017352707
C       7.2564305512     4.0827161368    22.8104274147
H       6.0564976786     5.0043676492    21.2885747178
H       8.6897806099     3.5839424626    20.5676413442
H       8.3758656522     5.3399162289    20.5668760505
H       8.0259255542     4.8620711183    22.9701287987
H       7.7235945293     3.0954151115    22.9682859574
H       6.4408596916     2.5550275985    20.2569770292
H       4.3982969128     2.9439454781    20.4044632834
H       6.4321685260     4.0988491126    24.5985413886
O       3.5044942853     2.7998787729    19.9800645354
H       3.3023391037     1.8510563536    20.0993285641
80
Step 5 | NEB Image 5 | Cartesian Angstrom
Ni      1.2286497034     0.7093615225    11.2499999440
Ni      2.4572989609     2.8374461750    11.2499999440
Ni      3.6859482184     4.9655308275    11.2499999440
Ni      4.9145974759     7.0936154800    11.2499999440
Ni      3.6859497034     0.7093615225    11.2499999440
Ni      4.9145989609     2.8374461750    11.2499999440
Ni      6.1432482184     4.9655308275    11.2499999440
Ni      7.3718974759     7.0936154800    11.2499999440
Ni      6.1432497034     0.7093615225    11.2499999440
Ni      7.3718989609     2.8374461750    11.2499999440
Ni      8.6005482184     4.9655308275    11.2499999440
Ni      9.8291974759     7.0936154800    11.2499999440
Ni      8.6005497034     0.7093615225    11.2499999440
Ni      9.8291989609     2.8374461750    11.2499999440
Ni     11.0578482184     4.9655308275    11.2499999440
Ni     12.2864974759     7.0936154800    11.2499999440
Ni     14.7391156794     8.5053429999    13.3011712910
Ni     11.0531329642     2.1206495503    13.3008022026
Ni     12.2817169557     4.2489790177    13.3006008466
Ni     13.5101985270     6.3773433856    13.3009432678
Ni      7.3672569131     8.5047181091    13.3011774747
Ni      3.6813641840     2.1207833643    13.3007249066
Ni      4.9098915592     4.2493198517    13.3009123494
Ni      6.1382080000     6.3774560890    13.3011137055
Ni      9.8241033938     8.5046823573    13.3010831736
Ni      6.1383369699     2.1207818321    13.3007716707
Ni      7.3668809566     4.2490234521    13.3008056810
Ni      8.5953896076     6.3767159412    13.3009509974
Ni     12.2816608204     8.5051500252    13.3006066438
Ni      8.5958457422     2.1206092019    13.3010364095
Ni      9.8244550440     4.2487038138    13.3007276120
Ni     11.0528529688     6.3769410074    13.3006611374
Cu      2.4478274055     1.4024593708    15.3768195742
Cu      3.6763308468     3.5307009057    15.3768060474
Cu      4.9041378398     5.6597275336    15.3773448005
Cu      6.1330260451     7.7878910103    15.3784795057
Cu      4.9046987540     1.4026027186    15.3777977550
Cu      6.1325026510     3.5313493756    15.3777258697
Cu      7.3610720952     5.6598451741    15.3779276123
Cu      8.5906751295     7.7868954923    15.3785351588
Cu      7.3621786280     1.4037477983    15.3762151195
Cu      8.5904727564     3.5321453644    15.3780682910
Cu      9.8190628915     5.6596863338    15.3769316534
Cu     11.0489115080     7.7874997832    15.3777154348
Cu      9.8196453802     1.4041813317    15.3774700200
Cu     11.0479045662     3.5315147704    15.3771971651
Cu     12.2765483193     5.6595852924    15.3771299176
Cu     13.5054403579     7.7883030926    15.3772814178
Cu      1.2140125591     0.6836803076    17.5697065574
Cu      2.4431555374     2.8116125893    17.5665702724
Cu      3.6705110760     4.9384343512    17.5687388115
Cu      4.8988742539     7.0688538531    17.5715929661
Cu      3.6716454744     0.6829118137    17.5713989532
Cu      4.8981418913     2.8112417067    17.5722074693
Cu      6.1274353048     4.9410331682    17.5708265763
Cu      7.3554752500     7.0698228126    17.5713297733
Cu      6.1297077779     0.6833063606    17.5689100221
Cu      7.3567237656     2.8135682139    17.5698797004
Cu      8.5851063076     4.9421568820    17.5702368079
Cu      9.8152975701     7.0699596058    17.5700617325
Cu      8.5865082080     0.6855771971    17.5667967496
Cu      9.8144914881     2.8135456562    17.5749499312
Cu     11.0427692018     4.9416447797    17.5690866435
Cu     12.2728600100     7.0692517198    17.5719744219
O       5.4816243728     2.5651691502    20.6539118200
O       7.3508896973     4.2099530947    19.0383354809
O       4.4981563510     3.9587391709    22.9072956728
C       5.9290713561     3.8945947838    20.9960208007
C       7.3297021271     4.1881915565    20.4688911028
C       5.8721709119     4.0116672750    22.5089584937
H       5.2340507257     4.6323215466    20.5533350446
H       8.0432145389     3.4244560240    20.8191443760
H       7.6571223136     5.1738780612    20.8354754738
H       6.3359933253     4.9675285031    22.8148914030
H       6.4497260984     3.1808581747    22.9509168945
H       5.8597578631     2.3152772777    19.7784701378
H       3.6583776659     2.5435355524    20.3168147116
H       4.4610770249     3.8064239805    23.8648388416
O       2.7103082747     2.5416543255    20.0177020144
H       2.4292112216     1.6097423068    20.0822731560
