80
Step 1 | NEB Image 1 | Cartesian Angstrom
Ni      1.2286497034     0.7093615225    11.2499999440
Ni      2.4572989609     2.8374461750    11.2499999440
Ni      3.6859482184     4.9655308275    11.2499999440
Ni      4.9145974759     7.0936154800    11.2499999440
Ni      3.6859497034     0.7093615225    11.2499999440
Ni      4.9145989609     2.8374461750    11.2499999440
Ni      6.1432482184     4.9655308275    11.2499999440
Ni      7.3718974759     7.0936154800    11.2499999440
Ni      6.1432497034     0.7093615225    11.2499999440
Ni      7.3718989609     2.8374461750    11.2499999440
Ni      8.6005482184     4.9655308275    11.2499999440
Ni      9.8291974759     7.0936154800    11.2499999440
Ni      8.6005497034     0.7093615225    11.2499999440
Ni      9.8291989609     2.8374461750    11.2499999440
Ni     11.0578482184     4.9655308275    11.2499999440
Ni     12.2864974759     7.0936154800    11.2499999440
Ni     14.7391156794     8.5053429999    13.3011712910
Ni     11.0531329642     2.1206495503    13.3008022026
Ni     12.2817169557     4.2489790177    13.3006008466
Ni     13.5101985270     6.3773433856    13.3009432678
Ni      7.3672569131     8.5047181091    13.3011774747
Ni      3.6813641840     2.1207833643    13.3007249066
Ni      4.9098915592     4.2493198517    13.3009123494
Ni      6.1382080000     6.3774560890    13.3011137055
Ni      9.8241033938     8.5046823573    13.3010831736
Ni      6.1383369699     2.1207818321    13.3007716707
Ni      7.3668809566     4.2490234521    13.3008056810
Ni      8.5953896076     6.3767159412    13.3009509974
Ni     12.2816608204     8.5051500252    13.3006066438
Ni      8.5958457422     2.1206092019    13.3010364095
Ni      9.8244550440     4.2487038138    13.3007276120
Ni     11.0528529688     6.3769410074    13.3006611374
Cu      2.4478274055     1.4024593708    15.3768195742
Cu      3.6763308468     3.5307009057    15.3768060474
Cu      4.9041378398     5.6597275336    15.3773448005
Cu      6.1330260451     7.7878910103    15.3784795057
Cu      4.9046987540     1.4026027186    15.3777977550
Cu      6.1325026510     3.5313493756    15.3777258697
Cu      7.3610720952     5.6598451741    15.3779276123
Cu      8.5906751295     7.7868954923    15.3785351588
Cu      7.3621786280     1.4037477983    15.3762151195
Cu      8.5904727564     3.5321453644    15.3780682910
Cu      9.8190628915     5.6596863338    15.3769316534
Cu     11.0489115080     7.7874997832    15.3777154348
Cu      9.8196453802     1.4041813317    15.3774700200
Cu     11.0479045662     3.5315147704    15.3771971651
Cu     12.2765483193     5.6595852924    15.3771299176
Cu     13.5054403579     7.7883030926    15.3772814178
Cu      1.2140125591     0.6836803076    17.5697065574
Cu      2.4431555374     2.8116125893    17.5665702724
Cu      3.6705110760     4.9384343512    17.5687388115
Cu      4.8988742539     7.0688538531    17.5715929661
Cu      3.6716454744     0.6829118137    17.5713989532
Cu      4.8981418913     2.8112417067    17.5722074693
Cu      6.1274353048     4.9410331682    17.5708265763
Cu      7.3554752500     7.0698228126    17.5713297733
Cu      6.1297077779     0.6833063606    17.5689100221
Cu      7.3567237656     2.8135682139    17.5698797004
Cu      8.5851063076     4.9421568820    17.5702368079
Cu      9.8152975701     7.0699596058    17.5700617325
Cu      8.5865082080     0.6855771971    17.5667967496
Cu      9.8144914881     2.8135456562    17.5749499312
Cu     11.0427692018     4.9416447797    17.5690866435
Cu     12.2728600100     7.0692517198    17.5719744219
O       7.2288202015     4.2734569284    22.3446828621
O       8.3044696405     5.3171068409    20.0014702420
O       8.8891638945     4.8479579810    24.7349733808
C       8.5251333110     4.9000290628    22.3715153937
C       9.1804211035     4.7744357207    20.9993344800
C       9.4189460410     4.3898719266    23.4895992517
H       8.3072385962     5.9614198807    22.5605187870
H       9.4153356173     3.7172718747    20.7683620669
H      10.1139922737     5.3503076003    20.9408546493
H      10.4461642949     4.7683945991    23.3275539960
H       9.4595638267     3.2836247445    23.4537018323
H       7.3561498138     3.3073831923    22.3295378714
H       7.4071380143     4.9636379387    20.1831718691
H       9.4432595602     4.5017937719    25.4528614775
O       2.4447775074     1.3898406800    19.0162048647
H       2.5328987835     1.2730973609    19.9764139723
80
Step 2 | NEB Image 2 | Cartesian Angstrom
Ni      1.2286108569     0.7093339385    11.2499226347
Ni      2.4572417579     2.8374300605    11.2498421346
Ni      3.6858884947     4.9655540651    11.2497791884
Ni      4.9145562607     7.0936808871    11.2497814179
Ni      3.6859143268     0.7093102942    11.2498588535
Ni      4.9145638276     2.8374140245    11.2497517705
Ni      6.1432318069     4.9655532672    11.2496993131
Ni      7.3719061101     7.0936850208    11.2497452727
Ni      6.1432407183     0.7092916863    11.2498086934
Ni      7.3719140143     2.8374055138    11.2497160246
Ni      8.6005910192     4.9655484608    11.2497077404
Ni      9.8292497674     7.0936710015    11.2497866676
Ni      8.6005786149     0.7092907580    11.2498056721
Ni      9.8292592492     2.8374109871    11.2497606904
Ni     11.0579220789     4.9655427319    11.2497916932
Ni     12.2865599573     7.0936503372    11.2498646882
Ni     14.7391912761     8.5053865881    13.3010795377
Ni     11.0533176086     2.1205366569    13.3003834963
Ni     12.2819126747     4.2489715759    13.3002548570
Ni     13.5103356945     6.3773883812    13.3007451216
Ni      7.3672693806     8.5049543459    13.3007210735
Ni      3.6812472375     2.1206701779    13.3002342278
Ni      4.9097662292     4.2493422670    13.3001360006
Ni      6.1381490187     6.3776621538    13.3003713634
Ni      9.8242069391     8.5048621237    13.3007180989
Ni      6.1383167451     2.1206016344    13.3000959940
Ni      7.3669394843     4.2490155254    13.2999072186
Ni      8.5955074273     6.3768913922    13.3002446668
Ni     12.2817730693     8.5052480685    13.3004018409
Ni      8.5959697871     2.1204317516    13.3003933192
Ni      9.8246612899     4.2486883195    13.3000527636
Ni     11.0530386051     6.3770425320    13.3002247071
Cu      2.4475108537     1.4020691594    15.3758058811
Cu      3.6757872032     3.5308022833    15.3744680131
Cu      4.9033737127     5.6605452039    15.3746741673
Cu      6.1327907279     7.7888032818    15.3769866621
Cu      4.9045470131     1.4018348209    15.3762065067
Cu      6.1324115206     3.5309081761    15.3742598184
Cu      7.3612558650     5.6606337241    15.3745650205
Cu      8.5909344414     7.7876899134    15.3771013385
Cu      7.3623828847     1.4028243236    15.3744029887
Cu      8.5911412676     3.5316516026    15.3751678127
Cu      9.8198813359     5.6601131527    15.3747844085
Cu     11.0493092111     7.7878931531    15.3769511658
Cu      9.8201433083     1.4035662090    15.3762061975
Cu     11.0486424452     3.5313093659    15.3758740032
Cu     12.2770666252     5.6597183000    15.3764018502
Cu     13.5056749426     7.7884386445    15.3770110854
Cu      1.2130723065     0.6828216056    17.5688375118
Cu      2.4399066602     2.8219273551    17.5448720311
Cu      3.6640418869     4.9425266003    17.5592582863
Cu      4.8962727653     7.0734702160    17.5665495898
Cu      3.6723686445     0.6801026799    17.5683580606
Cu      4.8945905570     2.8043451929    17.5524388528
Cu      6.1245157038     4.9497191244    17.5351183734
Cu      7.3550957878     7.0763255492    17.5627407596
Cu      6.1297758224     0.6797194890    17.5654027387
Cu      7.3609890174     2.8062239102    17.5526646594
Cu      8.5929544404     4.9439931724    17.5418928942
Cu      9.8174381971     7.0730435163    17.5650987141
Cu      8.5878169757     0.6824370246    17.5632798832
Cu      9.8184809322     2.8103557176    17.5675651962
Cu     11.0462338239     4.9418829681    17.5645278841
Cu     12.2739004177     7.0698584436    17.5708986452
O       6.4896871820     3.7209012165    21.8961027012
O       7.8739539801     5.1698754073    19.9843433145
O       7.4028362031     4.2270066113    24.6525440346
C       7.6148903722     4.5251373873    22.2882452700
C       8.5826935904     4.6553447389    21.1166841311
C       8.2964110012     4.0359378953    23.5563885127
H       7.1780973975     5.5180099659    22.4941127475
H       9.0347644121     3.6729881451    20.8705378574
H       9.3919267659     5.3625800536    21.3283977373
H       9.2319507991     4.6088288198    23.6948765386
H       8.5703750816     2.9676479116    23.4383650219
H       6.7903088889     2.8013108777    21.7898876464
H       7.0186106669     4.6844641168    19.9476036623
H       7.8505814917     3.9474686634    25.4696492737
O       2.4508284131     1.4169461449    18.9942916806
H       2.5381676926     1.4102231123    19.9632063689
80
Step 3 | NEB Image 3 | Cartesian Angstrom
Ni      1.2285992445     0.7093237674    11.2498957452
Ni      2.4572261424     2.8374246027    11.2497819542
Ni      3.6858797007     4.9655665898    11.2496996438
Ni      4.9145570717     7.0937058333    11.2497153737
Ni      3.6859072089     0.7092927578    11.2498074041
Ni      4.9145648849     2.8374074569    11.2496650469
Ni      6.1432440897     4.9655670315    11.2496109815
Ni      7.3719219983     7.0937081315    11.2496822973
Ni      6.1432484118     0.7092722399    11.2497456594
Ni      7.3719341893     2.8374002559    11.2496347459
Ni      8.6006166432     4.9655589939    11.2496376149
Ni      9.8292722804     7.0936873665    11.2497427511
Ni      8.6005977483     0.7092752073    11.2497525169
Ni      9.8292866981     2.8374074515    11.2497045199
Ni     11.0579487429     4.9655492984    11.2497501065
Ni     12.2865790711     7.0936594233    11.2498417904
Ni     14.7392076111     8.5053942222    13.3010704912
Ni     11.0533855377     2.1205231087    13.3002971916
Ni     12.2819705571     4.2489787371    13.3001998936
Ni     13.5103692271     6.3773995502    13.3007215964
Ni      7.3673015038     8.5050211817    13.3006172839
Ni      3.6812106721     2.1206206222    13.3000239128
Ni      4.9097800382     4.2493779936    13.2998443826
Ni      6.1381853350     6.3777415217    13.3001689879
Ni      9.8242502168     8.5049057583    13.3006525651
Ni      6.1383605589     2.1205591879    13.2998517045
Ni      7.3670127614     4.2490429722    13.2996668373
Ni      8.5955733874     6.3769492894    13.3000892684
Ni     12.2818044677     8.5052678088    13.3003749653
Ni      8.5960463970     2.1204035670    13.3002222979
Ni      9.8247479097     4.2487010466    13.2999067881
Ni     11.0531013145     6.3770720385    13.3001504551
Cu      2.4473263142     1.4018512523    15.3755963626
Cu      3.6754803859     3.5308420046    15.3731219212
Cu      4.9034894954     5.6609700564    15.3737592112
Cu      6.1328653007     7.7890735009    15.3766286466
Cu      4.9045259036     1.4013815729    15.3753114719
Cu      6.1328191833     3.5310499400    15.3730445932
Cu      7.3614527726     5.6609242183    15.3738353296
Cu      8.5910900678     7.7878966313    15.3768347619
Cu      7.3626427654     1.4026182891    15.3737956996
Cu      8.5914869338     3.5316191225    15.3744625756
Cu      9.8202268264     5.6602808809    15.3743417193
Cu     11.0494298703     7.7879708497    15.3768690185
Cu      9.8203754886     1.4034673121    15.3759061835
Cu     11.0488933528     3.5313132989    15.3756639287
Cu     12.2771942686     5.6597552021    15.3763433177
Cu     13.5057204877     7.7884578685    15.3769993603
Cu      1.2138630199     0.6834517693    17.5698807846
Cu      2.4372330585     2.8185112352    17.5394554975
Cu      3.6597764193     4.9473886040    17.5498126924
Cu      4.8966027565     7.0752409245    17.5649976151
Cu      3.6705676482     0.6799065088    17.5688877834
Cu      4.8937308526     2.7980535421    17.5307552629
Cu      6.1306476763     4.9537875681    17.5345931854
Cu      7.3556923230     7.0778752271    17.5612159992
Cu      6.1304652537     0.6776814080    17.5630360725
Cu      7.3639176852     2.8072555584    17.5493174862
Cu      8.5985952977     4.9465692268    17.5319466291
Cu      9.8182714687     7.0735585718    17.5648087354
Cu      8.5888407006     0.6815792537    17.5619423437
Cu      9.8202475026     2.8100127800    17.5662546416
Cu     11.0470437594     4.9421050247    17.5646335603
Cu     12.2740424261     7.0698889359    17.5709793185
O       5.7829447791     3.3226247668    21.7526870466
O       7.2502504399     4.2667440407    19.7898049556
O       6.3194135981     4.2231096690    24.4827910372
C       6.7935477362     4.2764179925    22.1414546101
C       7.8881149663     4.3086706384    21.0741765098
C       7.3571476339     4.0097897491    23.5162360303
H       6.2617114501     5.2390726618    22.1398316551
H       8.5795363142     3.4476862044    21.1732956264
H       8.4799291348     5.2325213777    21.1188282887
H       8.2132834159     4.6862683108    23.6894196016
H       7.7372542726     2.9704162263    23.5578721335
H       6.1348473422     2.4215322271    21.8815522825
H       6.4190444733     3.7488241735    19.9270258901
H       6.6715410196     4.0106696575    25.3663086866
O       3.5507861625     2.0479018464    19.0334787026
H       3.0645785064     1.8387397763    19.8524728582
80
Step 4 | NEB Image 4 | Cartesian Angstrom
Ni      1.2286032152     0.7093269629    11.2499028673
Ni      2.4572319822     2.8374268409    11.2497984803
Ni      3.6858847947     4.9655641018    11.2497226763
Ni      4.9145596218     7.0936992068    11.2497360465
Ni      3.6859105388     0.7092982728    11.2498208221
Ni      4.9145672237     2.8374108354    11.2496894309
Ni      6.1432438395     4.9655646333    11.2496384472
Ni      7.3719199521     7.0937018983    11.2497037153
Ni      6.1432485089     0.7092787853    11.2497626199
Ni      7.3719315202     2.8374037141    11.2496591476
Ni      8.6006118720     4.9655573629    11.2496611681
Ni      9.8292673255     7.0936828611    11.2497591802
Ni      8.6005947019     0.7092809663    11.2497680865
Ni      9.8292811219     2.8374101167    11.2497230690
Ni     11.0579424169     4.9655483032    11.2497657100
Ni     12.2865739627     7.0936567847    11.2498516190
Ni     14.7392020148     8.5053912017    13.3010765394
Ni     11.0533704918     2.1205312150    13.3003282430
Ni     12.2819550961     4.2489790058    13.3002246189
Ni     13.5103587660     6.3773962486    13.3007351464
Ni      7.3672978731     8.5050008349    13.3006545029
Ni      3.6812240543     2.1206361816    13.3000773712
Ni      4.9097873477     4.2493743969    13.2999279683
Ni      6.1381847390     6.3777207706    13.3002364318
Ni      9.8242406319     8.5048916112    13.3006800999
Ni      6.1383579904     2.1205771323    13.2999167249
Ni      7.3670018272     4.2490422964    13.2997437745
Ni      8.5955608604     6.3769344394    13.3001453438
Ni     12.2817954396     8.5052606157    13.3003893381
Ni      8.5960336386     2.1204174669    13.3002733333
Ni      9.8247296113     4.2487020107    13.2999583372
Ni     11.0530856438     6.3770641292    13.3001825696
Cu      2.4473709438     1.4019096685    15.3756659568
Cu      3.6755693684     3.5308443530    15.3734471399
Cu      4.9035289534     5.6608623735    15.3740590568
Cu      6.1328714459     7.7889891597    15.3767559850
Cu      4.9045491765     1.4014960267    15.3755005628
Cu      6.1327747356     3.5310768647    15.3734089161
Cu      7.3614193692     5.6608521114    15.3741086363
Cu      8.5910632379     7.7878320891    15.3769455716
Cu      7.3626120663     1.4026952581    15.3739456918
Cu      8.5914278986     3.5316587260    15.3746845884
Cu      9.8201525412     5.6602446522    15.3745107969
Cu     11.0493963109     7.7879412974    15.3769233486
Cu      9.8203350464     1.4035119295    15.3760022554
Cu     11.0488333901     3.5313270656    15.3757605050
Cu     12.2771537891     5.6597450376    15.3763922318
Cu     13.5057031409     7.7884486236    15.3770163251
Cu      1.2137274196     0.6833664212    17.5696658973
Cu      2.4376942219     2.8180568195    17.5418838723
Cu      3.6612704589     4.9465973493    17.5518757944
Cu      4.8967193215     7.0746779736    17.5655084762
Cu      3.6708055416     0.6799882188    17.5687614210
Cu      4.8950268245     2.8001182863    17.5349044038
Cu      6.1292428633     4.9523631662    17.5371613605
Cu      7.3557063972     7.0773669156    17.5618670246
Cu      6.1304610501     0.6780810601    17.5633478435
Cu      7.3633079646     2.8075485568    17.5503169539
Cu      8.5979036723     4.9464915806    17.5347813369
Cu      9.8180635939     7.0733163791    17.5651738297
Cu      8.5887453948     0.6818126284    17.5622424116
Cu      9.8199218393     2.8102452514    17.5668417014
Cu     11.0467565349     4.9420738776    17.5649159271
Cu     12.2739663592     7.0698511519    17.5710366765
O       6.0439716305     2.8870859387    21.1178366358
O       7.4284575467     4.2494695900    19.0708097936
O       6.1740684896     4.2138948528    23.7542833009
C       6.7498865263     4.1150535104    21.4258673961
C       7.8845409348     4.3500700005    20.4306145679
C       7.2769565952     4.0539917115    22.8572860535
H       6.0198060868     4.9404454138    21.3618756189
H       8.6829444674     3.6028056785    20.5899683620
H       8.3178046546     5.3473247717    20.6025225643
H       8.0248333997     4.8561900304    23.0083842345
H       7.7766174931     3.0806323111    23.0068503352
H       6.4764932196     2.4834510250    20.3388658978
H       4.4742010061     2.9367902035    20.4300375646
H       6.4868241962     4.0549130710    24.6599037468
O       3.5916979609     2.8479805437    19.9677872001
H       3.3138283280     1.9243369097    20.1077466218
80
Step 5 | NEB Image 5 | Cartesian Angstrom
Ni      1.2286497034     0.7093615225    11.2499999440
Ni      2.4572989609     2.8374461750    11.2499999440
Ni      3.6859482184     4.9655308275    11.2499999440
Ni      4.9145974759     7.0936154800    11.2499999440
Ni      3.6859497034     0.7093615225    11.2499999440
Ni      4.9145989609     2.8374461750    11.2499999440
Ni      6.1432482184     4.9655308275    11.2499999440
Ni      7.3718974759     7.0936154800    11.2499999440
Ni      6.1432497034     0.7093615225    11.2499999440
Ni      7.3718989609     2.8374461750    11.2499999440
Ni      8.6005482184     4.9655308275    11.2499999440
Ni      9.8291974759     7.0936154800    11.2499999440
Ni      8.6005497034     0.7093615225    11.2499999440
Ni      9.8291989609     2.8374461750    11.2499999440
Ni     11.0578482184     4.9655308275    11.2499999440
Ni     12.2864974759     7.0936154800    11.2499999440
Ni     14.7391156794     8.5053429999    13.3011712910
Ni     11.0531329642     2.1206495503    13.3008022026
Ni     12.2817169557     4.2489790177    13.3006008466
Ni     13.5101985270     6.3773433856    13.3009432678
Ni      7.3672569131     8.5047181091    13.3011774747
Ni      3.6813641840     2.1207833643    13.3007249066
Ni      4.9098915592     4.2493198517    13.3009123494
Ni      6.1382080000     6.3774560890    13.3011137055
Ni      9.8241033938     8.5046823573    13.3010831736
Ni      6.1383369699     2.1207818321    13.3007716707
Ni      7.3668809566     4.2490234521    13.3008056810
Ni      8.5953896076     6.3767159412    13.3009509974
Ni     12.2816608204     8.5051500252    13.3006066438
Ni      8.5958457422     2.1206092019    13.3010364095
Ni      9.8244550440     4.2487038138    13.3007276120
Ni     11.0528529688     6.3769410074    13.3006611374
Cu      2.4478274055     1.4024593708    15.3768195742
Cu      3.6763308468     3.5307009057    15.3768060474
Cu      4.9041378398     5.6597275336    15.3773448005
Cu      6.1330260451     7.7878910103    15.3784795057
Cu      4.9046987540     1.4026027186    15.3777977550
Cu      6.1325026510     3.5313493756    15.3777258697
Cu      7.3610720952     5.6598451741    15.3779276123
Cu      8.5906751295     7.7868954923    15.3785351588
Cu      7.3621786280     1.4037477983    15.3762151195
Cu      8.5904727564     3.5321453644    15.3780682910
Cu      9.8190628915     5.6596863338    15.3769316534
Cu     11.0489115080     7.7874997832    15.3777154348
Cu      9.8196453802     1.4041813317    15.3774700200
Cu     11.0479045662     3.5315147704    15.3771971651
Cu     12.2765483193     5.6595852924    15.3771299176
Cu     13.5054403579     7.7883030926    15.3772814178
Cu      1.2140125591     0.6836803076    17.5697065574
Cu      2.4431555374     2.8116125893    17.5665702724
Cu      3.6705110760     4.9384343512    17.5687388115
Cu      4.8988742539     7.0688538531    17.5715929661
Cu      3.6716454744     0.6829118137    17.5713989532
Cu      4.8981418913     2.8112417067    17.5722074693
Cu      6.1274353048     4.9410331682    17.5708265763
Cu      7.3554752500     7.0698228126    17.5713297733
Cu      6.1297077779     0.6833063606    17.5689100221
Cu      7.3567237656     2.8135682139    17.5698797004
Cu      8.5851063076     4.9421568820    17.5702368079
Cu      9.8152975701     7.0699596058    17.5700617325
Cu      8.5865082080     0.6855771971    17.5667967496
Cu      9.8144914881     2.8135456562    17.5749499312
Cu     11.0427692018     4.9416447797    17.5690866435
Cu     12.2728600100     7.0692517198    17.5719744219
O       5.4816243728     2.5651691502    20.6539118200
O       7.3508896973     4.2099530947    19.0383354809
O       4.4981563510     3.9587391709    22.9072956728
C       5.9290713561     3.8945947838    20.9960208007
C       7.3297021271     4.1881915565    20.4688911028
C       5.8721709119     4.0116672750    22.5089584937
H       5.2340507257     4.6323215466    20.5533350446
H       8.0432145389     3.4244560240    20.8191443760
H       7.6571223136     5.1738780612    20.8354754738
H       6.3359933253     4.9675285031    22.8148914030
H       6.4497260984     3.1808581747    22.9509168945
H       5.8597578631     2.3152772777    19.7784701378
H       3.6583776659     2.5435355524    20.3168147116
H       4.4610770249     3.8064239805    23.8648388416
O       2.7103082747     2.5416543255    20.0177020144
H       2.4292112216     1.6097423068    20.0822731560
