80
Step 1 | NEB Image 1 | Cartesian Angstrom
Ni      1.2286497034     0.7093615225    11.2499999440
Ni      2.4572989609     2.8374461750    11.2499999440
Ni      3.6859482184     4.9655308275    11.2499999440
Ni      4.9145974759     7.0936154800    11.2499999440
Ni      3.6859497034     0.7093615225    11.2499999440
Ni      4.9145989609     2.8374461750    11.2499999440
Ni      6.1432482184     4.9655308275    11.2499999440
Ni      7.3718974759     7.0936154800    11.2499999440
Ni      6.1432497034     0.7093615225    11.2499999440
Ni      7.3718989609     2.8374461750    11.2499999440
Ni      8.6005482184     4.9655308275    11.2499999440
Ni      9.8291974759     7.0936154800    11.2499999440
Ni      8.6005497034     0.7093615225    11.2499999440
Ni      9.8291989609     2.8374461750    11.2499999440
Ni     11.0578482184     4.9655308275    11.2499999440
Ni     12.2864974759     7.0936154800    11.2499999440
Ni     14.7391156794     8.5053429999    13.3011712910
Ni     11.0531329642     2.1206495503    13.3008022026
Ni     12.2817169557     4.2489790177    13.3006008466
Ni     13.5101985270     6.3773433856    13.3009432678
Ni      7.3672569131     8.5047181091    13.3011774747
Ni      3.6813641840     2.1207833643    13.3007249066
Ni      4.9098915592     4.2493198517    13.3009123494
Ni      6.1382080000     6.3774560890    13.3011137055
Ni      9.8241033938     8.5046823573    13.3010831736
Ni      6.1383369699     2.1207818321    13.3007716707
Ni      7.3668809566     4.2490234521    13.3008056810
Ni      8.5953896076     6.3767159412    13.3009509974
Ni     12.2816608204     8.5051500252    13.3006066438
Ni      8.5958457422     2.1206092019    13.3010364095
Ni      9.8244550440     4.2487038138    13.3007276120
Ni     11.0528529688     6.3769410074    13.3006611374
Cu      2.4478274055     1.4024593708    15.3768195742
Cu      3.6763308468     3.5307009057    15.3768060474
Cu      4.9041378398     5.6597275336    15.3773448005
Cu      6.1330260451     7.7878910103    15.3784795057
Cu      4.9046987540     1.4026027186    15.3777977550
Cu      6.1325026510     3.5313493756    15.3777258697
Cu      7.3610720952     5.6598451741    15.3779276123
Cu      8.5906751295     7.7868954923    15.3785351588
Cu      7.3621786280     1.4037477983    15.3762151195
Cu      8.5904727564     3.5321453644    15.3780682910
Cu      9.8190628915     5.6596863338    15.3769316534
Cu     11.0489115080     7.7874997832    15.3777154348
Cu      9.8196453802     1.4041813317    15.3774700200
Cu     11.0479045662     3.5315147704    15.3771971651
Cu     12.2765483193     5.6595852924    15.3771299176
Cu     13.5054403579     7.7883030926    15.3772814178
Cu      1.2140125591     0.6836803076    17.5697065574
Cu      2.4431555374     2.8116125893    17.5665702724
Cu      3.6705110760     4.9384343512    17.5687388115
Cu      4.8988742539     7.0688538531    17.5715929661
Cu      3.6716454744     0.6829118137    17.5713989532
Cu      4.8981418913     2.8112417067    17.5722074693
Cu      6.1274353048     4.9410331682    17.5708265763
Cu      7.3554752500     7.0698228126    17.5713297733
Cu      6.1297077779     0.6833063606    17.5689100221
Cu      7.3567237656     2.8135682139    17.5698797004
Cu      8.5851063076     4.9421568820    17.5702368079
Cu      9.8152975701     7.0699596058    17.5700617325
Cu      8.5865082080     0.6855771971    17.5667967496
Cu      9.8144914881     2.8135456562    17.5749499312
Cu     11.0427692018     4.9416447797    17.5690866435
Cu     12.2728600100     7.0692517198    17.5719744219
O       7.2288202015     4.2734569284    22.3446828621
O       8.3044696405     5.3171068409    20.0014702420
O       8.8891638945     4.8479579810    24.7349733808
C       8.5251333110     4.9000290628    22.3715153937
C       9.1804211035     4.7744357207    20.9993344800
C       9.4189460410     4.3898719266    23.4895992517
H       8.3072385962     5.9614198807    22.5605187870
H       9.4153356173     3.7172718747    20.7683620669
H      10.1139922737     5.3503076003    20.9408546493
H      10.4461642949     4.7683945991    23.3275539960
H       9.4595638267     3.2836247445    23.4537018323
H       7.3561498138     3.3073831923    22.3295378714
H       7.4071380143     4.9636379387    20.1831718691
H       9.4432595602     4.5017937719    25.4528614775
O       2.4447775074     1.3898406800    19.0162048647
H       2.5328987835     1.2730973609    19.9764139723
80
Step 2 | NEB Image 2 | Cartesian Angstrom
Ni      1.2286127564     0.7093355989    11.2499270087
Ni      2.4572443180     2.8374309576    11.2498519307
Ni      3.6858899577     4.9655520375    11.2497921506
Ni      4.9145561613     7.0936768289    11.2497921984
Ni      3.6859155016     0.7093131571    11.2498672201
Ni      4.9145636865     2.8374151121    11.2497658941
Ni      6.1432298442     4.9655510429    11.2497137294
Ni      7.3719035511     7.0936812602    11.2497555723
Ni      6.1432394920     0.7092948659    11.2498189499
Ni      7.3719107639     2.8374063933    11.2497292796
Ni      8.6005868748     4.9655467611    11.2497192059
Ni      9.8292461172     7.0936683374    11.2497938677
Ni      8.6005755263     0.7092933069    11.2498143361
Ni      9.8292548042     2.8374115825    11.2497698706
Ni     11.0579177503     4.9655416726    11.2497985119
Ni     12.2865568476     7.0936488565    11.2498684571
Ni     14.7391886040     8.5053853345    13.3010810522
Ni     11.0533065935     2.1205389138    13.3003976314
Ni     12.2819032577     4.2489704364    13.3002639172
Ni     13.5103302214     6.3773865604    13.3007490344
Ni      7.3672642126     8.5049434430    13.3007380709
Ni      3.6812532289     2.1206782675    13.3002684124
Ni      4.9097641119     4.2493365245    13.3001835113
Ni      6.1381432173     6.3776492465    13.3004044456
Ni      9.8241999214     8.5048549955    13.3007288787
Ni      6.1383097244     2.1206086178    13.3001357352
Ni      7.3669276643     4.2490111383    13.2999464763
Ni      8.5954967560     6.3768819800    13.3002701201
Ni     12.2817679535     8.5052448343    13.3004062980
Ni      8.5959574139     2.1204364119    13.3004212059
Ni      9.8246472544     4.2486863003    13.3000766603
Ni     11.0530284154     6.3770377312    13.3002369317
Cu      2.4475408219     1.4021046136    15.3758401283
Cu      3.6758372025     3.5307959734    15.3746866076
Cu      4.9033557034     5.6604761521    15.3748236752
Cu      6.1327789020     7.7887591763    15.3770452811
Cu      4.9045506548     1.4019084829    15.3763515339
Cu      6.1323459550     3.5308858741    15.3744579927
Cu      7.3612240554     5.6605865276    15.3746846571
Cu      8.5909092956     7.7876561725    15.3771451739
Cu      7.3623410595     1.4028581017    15.3745016460
Cu      8.5910854220     3.5316572505    15.3752829445
Cu      9.8198253391     5.6600859655    15.3748570281
Cu     11.0492895651     7.7878804090    15.3769649114
Cu      9.8201057881     1.4035825127    15.3762551947
Cu     11.0486017076     3.5313089002    15.3759086563
Cu     12.2770457835     5.6597122927    15.3764117642
Cu     13.5056674719     7.7884354685    15.3770131556
Cu      1.2129445528     0.6827200587    17.5686685298
Cu      2.4403386588     2.8224670581    17.5457647980
Cu      3.6647400140     4.9417415584    17.5607895996
Cu      4.8962214854     7.0731810783    17.5668032159
Cu      3.6726587927     0.6801349399    17.5682720570
Cu      4.8947429617     2.8053733103    17.5559472801
Cu      6.1235208227     4.9490532515    17.5352323641
Cu      7.3550007754     7.0760723196    17.5629916915
Cu      6.1296657734     0.6800493663    17.5657840089
Cu      7.3605145760     2.8060627546    17.5532104565
Cu      8.5920463029     4.9435812469    17.5435131627
Cu      9.8173028034     7.0729584909    17.5651492733
Cu      8.5876525186     0.6825766270    17.5634968173
Cu      9.8181952447     2.8104131670    17.5677811993
Cu     11.0461012206     4.9418471725    17.5645143434
Cu     12.2738768657     7.0698531343    17.5708864481
O       6.5365658395     3.7505385197    21.8785470918
O       7.8475275722     5.0982987707    19.8761072712
O       7.5211579067     4.4041705364    24.5829176660
C       7.6699832450     4.5700873183    22.2032511890
C       8.6055014502     4.6470028109    21.0040598322
C       8.3798279474     4.1425560099    23.4790380964
H       7.2355266854     5.5701154524    22.3717262970
H       9.0574382389     3.6554560771    20.7876120031
H       9.4136627563     5.3694654405    21.1488425905
H       9.3277984727     4.7199228884    23.5576023334
H       8.6476690847     3.0711607458    23.4106712303
H       6.8396919620     2.8203478322    21.7987962411
H       6.9935236232     4.6050305668    19.8995069879
H       7.9841023811     4.1558422861    25.4066082963
O       2.4527600431     1.4177276961    18.9941248147
H       2.5195320428     1.3879231446    19.9695287761
80
Step 3 | NEB Image 3 | Cartesian Angstrom
Ni      1.2286008372     0.7093251953    11.2498996745
Ni      2.4572282259     2.8374253080    11.2497906798
Ni      3.6858806640     4.9655646631    11.2497110387
Ni      4.9145566314     7.0937021903    11.2497246543
Ni      3.6859080808     0.7092952190    11.2498149465
Ni      4.9145644256     2.8374082258    11.2496775548
Ni      6.1432419454     4.9655648750    11.2496234152
Ni      7.3719194250     7.0937047675    11.2496909482
Ni      6.1432470391     0.7092749191    11.2497548394
Ni      7.3719309300     2.8374007838    11.2496462882
Ni      8.6006126643     4.9655573199    11.2496472825
Ni      9.8292688734     7.0936849951    11.2497486101
Ni      8.6005947172     0.7092772888    11.2497601107
Ni      9.8292824899     2.8374077669    11.2497123005
Ni     11.0579447609     4.9655482523    11.2497556493
Ni     12.2865762834     7.0936581226    11.2498446983
Ni     14.7392053719     8.5053932229    13.3010713881
Ni     11.0533752686     2.1205245626    13.3003088493
Ni     12.2819621142     4.2489774386    13.3002067418
Ni     13.5103645110     6.3773979581    13.3007241822
Ni      7.3672962421     8.5050117231    13.3006313179
Ni      3.6812155849     2.1206275802    13.3000549065
Ni      4.9097767440     4.2493720903    13.2998862566
Ni      6.1381789782     6.3777298926    13.3001969490
Ni      9.8242436743     8.5048996836    13.3006609568
Ni      6.1383531049     2.1205646104    13.2998873644
Ni      7.3670010675     4.2490381942    13.2997004187
Ni      8.5955631736     6.3769407727    13.3001102400
Ni     12.2817999625     8.5052651529    13.3003780482
Ni      8.5960343257     2.1204069366    13.3002466206
Ni      9.8247347119     4.2486986823    13.2999266191
Ni     11.0530920418     6.3770677378    13.3001598565
Cu      2.4473537745     1.4018830125    15.3756253374
Cu      3.6755243213     3.5308347026    15.3733222633
Cu      4.9034644151     5.6609074109    15.3738862162
Cu      6.1328513897     7.7890355014    15.3766771775
Cu      4.9045269303     1.4014484550    15.3754478421
Cu      6.1327522198     3.5310217209    15.3732172270
Cu      7.3614218172     5.6608812072    15.3739326404
Cu      8.5910656521     7.7878675640    15.3768690363
Cu      7.3626003521     1.4026457891    15.3738857034
Cu      8.5914326386     3.5316202606    15.3745615292
Cu      9.8201743371     5.6602554177    15.3744003755
Cu     11.0494124254     7.7879605406    15.3768772314
Cu      9.8203391109     1.4034796192    15.3759480900
Cu     11.0488559332     3.5313110007    15.3756898616
Cu     12.2771763932     5.6597498552    15.3763479822
Cu     13.5057144473     7.7884555427    15.3769994606
Cu      1.2137388839     0.6833501942    17.5697211858
Cu      2.4376524834     2.8191686108    17.5401313320
Cu      3.6603573147     4.9466203560    17.5512439882
Cu      4.8965307974     7.0749931146    17.5652127822
Cu      3.6708586498     0.6799317117    17.5688087550
Cu      4.8937321452     2.7989265517    17.5341093051
Cu      6.1297261151     4.9532334315    17.5343872177
Cu      7.3555851271     7.0776601697    17.5614100375
Cu      6.1303437470     0.6779955356    17.5634185719
Cu      7.3634704159     2.8070389056    17.5497934494
Cu      8.5976776348     4.9461224269    17.5333767151
Cu      9.8181482137     7.0734956199    17.5648175556
Cu      8.5886706432     0.6817038760    17.5621440996
Cu      9.8199728079     2.8100464069    17.5664182205
Cu     11.0469338691     4.9420693565    17.5645819971
Cu     12.2740261506     7.0698879378    17.5709583676
O       5.9359516070     3.4554361563    21.4320402154
O       7.4430263612     4.3223885935    19.5705397208
O       6.4268103495     4.2663085558    24.2222947208
C       6.9603871155     4.3672887027    21.8862256227
C       8.0850359359     4.3981730308    20.8526759170
C       7.4811190811     4.0399765512    23.2591539132
H       6.4478217190     5.3392647673    21.8935190492
H       8.7913421132     3.5640281847    20.9572842257
H       8.6553173523     5.3491877827    20.8821042758
H       8.3524753741     4.6978539985    23.4667463870
H       7.8291140072     2.9994684433    23.2817988139
H       6.2619018534     2.5329854642    21.5006317800
H       6.5715391232     3.8665037388    19.7620191676
H       6.7572923028     4.0589375948    25.0875735670
O       3.1678504659     1.8364996118    19.1389261218
H       2.4905035495     1.4646395196    19.7309892424
80
Step 4 | NEB Image 4 | Cartesian Angstrom
Ni      1.2286065982     0.7093296475    11.2499086570
Ni      2.4572370247     2.8374287976    11.2498120164
Ni      3.6858894147     4.9655622229    11.2497417401
Ni      4.9145621737     7.0936938166    11.2497534029
Ni      3.6859134960     0.7093029068    11.2498316936
Ni      4.9145695786     2.8374138658    11.2497094982
Ni      6.1432441562     4.9655628999    11.2496614798
Ni      7.3719186631     7.0936968117    11.2497219472
Ni      6.1432489577     0.7092843479    11.2497764535
Ni      7.3719298136     2.8374068833    11.2496794823
Ni      8.6006083425     4.9655562377    11.2496811777
Ni      9.8292634721     7.0936791689    11.2497733668
Ni      8.6005925755     0.7092859321    11.2497810018
Ni      9.8292768824     2.8374125828    11.2497387840
Ni     11.0579374019     4.9655476230    11.2497791893
Ni     12.2865698020     7.0936545995    11.2498602609
Ni     14.7391972455     8.5053885732    13.3010820888
Ni     11.0533587708     2.1205385874    13.3003549045
Ni     12.2819425049     4.2489795994    13.3002464799
Ni     13.5103499883     6.3773935052    13.3007474293
Ni      7.3672957665     8.5049838363    13.3006864443
Ni      3.6812355734     2.1206492519    13.3001204399
Ni      4.9097951893     4.2493724890    13.2999970167
Ni      6.1381858173     6.3777039482    13.3002936564
Ni      9.8242331653     8.5048796621    13.3007042464
Ni      6.1383574675     2.1205928807    13.2999696366
Ni      7.3669944064     4.2490428890    13.2998086173
Ni      8.5955515332     6.3769224515    13.3001935125
Ni     12.2817879771     8.5052544279    13.3004022787
Ni      8.5960245717     2.1204298810    13.3003158152
Ni      9.8247155404     4.2487035454    13.3000024747
Ni     11.0530730673     6.3770576832    13.3002108325
Cu      2.4474064886     1.4019572780    15.3757249742
Cu      3.6756430415     3.5308484911    15.3737060955
Cu      4.9035731763     5.6607756743    15.3743127704
Cu      6.1328809272     7.7889183844    15.3768651335
Cu      4.9045711583     1.4015881003    15.3756459708
Cu      6.1327496065     3.5311099199    15.3737124377
Cu      7.3613954624     5.6607943310    15.3743446784
Cu      8.5910439196     7.7877779252    15.3770426156
Cu      7.3625937154     1.4027617079    15.3740657440
Cu      8.5913855398     3.5316962903    15.3748711695
Cu      9.8200951360     5.6602166206    15.3746572215
Cu     11.0493687522     7.7879157192    15.3769731568
Cu      9.8203058166     1.4035513913    15.3760832317
Cu     11.0487857695     3.5313408219    15.3758461049
Cu     12.2771197265     5.6597367070    15.3764377825
Cu     13.5056881240     7.7884403888    15.3770325168
Cu      1.2136299746     0.6833111663    17.5695018512
Cu      2.4380263355     2.8174519803    17.5440300908
Cu      3.6625481011     4.9460401180    17.5534769608
Cu      4.8968494099     7.0742040613    17.5659410557
Cu      3.6709575126     0.6800597963    17.5686611124
Cu      4.8962653915     2.8018657665    17.5380012475
Cu      6.1281388413     4.9511451576    17.5396698431
Cu      7.3557476437     7.0769367450    17.5624390741
Cu      6.1304885340     0.6783816709    17.5635467168
Cu      7.3628410549     2.8078848232    17.5511490083
Cu      8.5974804210     4.9465331931    17.5371204442
Cu      9.8178968288     7.0731011729    17.5655205598
Cu      8.5886983758     0.6820034159    17.5624769574
Cu      9.8196817355     2.8104587674    17.5673604992
Cu     11.0465104494     4.9420533496    17.5651992280
Cu     12.2738978616     7.0698152905    17.5710969405
O       6.0250886297     2.9449202916    21.0401254285
O       7.4576233606     4.2558683031    19.0381975870
O       6.1355721998     4.2818085263    23.6818930894
C       6.7530358575     4.1549248656    21.3636973503
C       7.9126329227     4.3532355786    20.3957415312
C       7.2514731632     4.0835011399    22.8020663456
H       6.0525294629     5.0014763975    21.2801642780
H       8.6875358507     3.5834790904    20.5625411182
H       8.3729801194     5.3391245113    20.5624168046
H       8.0210437358     4.8640552358    22.9643363835
H       7.7190381775     3.0970180972    22.9647264413
H       6.4461437642     2.5524700828    20.2444117956
H       4.3858098028     2.9400693122    20.4189999817
H       6.4255572433     4.0982701109    24.5956997739
O       3.4970900025     2.8088526291    19.9847375488
H       3.3085708529     1.8505545766    20.0987300490
80
Step 5 | NEB Image 5 | Cartesian Angstrom
Ni      1.2286497034     0.7093615225    11.2499999440
Ni      2.4572989609     2.8374461750    11.2499999440
Ni      3.6859482184     4.9655308275    11.2499999440
Ni      4.9145974759     7.0936154800    11.2499999440
Ni      3.6859497034     0.7093615225    11.2499999440
Ni      4.9145989609     2.8374461750    11.2499999440
Ni      6.1432482184     4.9655308275    11.2499999440
Ni      7.3718974759     7.0936154800    11.2499999440
Ni      6.1432497034     0.7093615225    11.2499999440
Ni      7.3718989609     2.8374461750    11.2499999440
Ni      8.6005482184     4.9655308275    11.2499999440
Ni      9.8291974759     7.0936154800    11.2499999440
Ni      8.6005497034     0.7093615225    11.2499999440
Ni      9.8291989609     2.8374461750    11.2499999440
Ni     11.0578482184     4.9655308275    11.2499999440
Ni     12.2864974759     7.0936154800    11.2499999440
Ni     14.7391156794     8.5053429999    13.3011712910
Ni     11.0531329642     2.1206495503    13.3008022026
Ni     12.2817169557     4.2489790177    13.3006008466
Ni     13.5101985270     6.3773433856    13.3009432678
Ni      7.3672569131     8.5047181091    13.3011774747
Ni      3.6813641840     2.1207833643    13.3007249066
Ni      4.9098915592     4.2493198517    13.3009123494
Ni      6.1382080000     6.3774560890    13.3011137055
Ni      9.8241033938     8.5046823573    13.3010831736
Ni      6.1383369699     2.1207818321    13.3007716707
Ni      7.3668809566     4.2490234521    13.3008056810
Ni      8.5953896076     6.3767159412    13.3009509974
Ni     12.2816608204     8.5051500252    13.3006066438
Ni      8.5958457422     2.1206092019    13.3010364095
Ni      9.8244550440     4.2487038138    13.3007276120
Ni     11.0528529688     6.3769410074    13.3006611374
Cu      2.4478274055     1.4024593708    15.3768195742
Cu      3.6763308468     3.5307009057    15.3768060474
Cu      4.9041378398     5.6597275336    15.3773448005
Cu      6.1330260451     7.7878910103    15.3784795057
Cu      4.9046987540     1.4026027186    15.3777977550
Cu      6.1325026510     3.5313493756    15.3777258697
Cu      7.3610720952     5.6598451741    15.3779276123
Cu      8.5906751295     7.7868954923    15.3785351588
Cu      7.3621786280     1.4037477983    15.3762151195
Cu      8.5904727564     3.5321453644    15.3780682910
Cu      9.8190628915     5.6596863338    15.3769316534
Cu     11.0489115080     7.7874997832    15.3777154348
Cu      9.8196453802     1.4041813317    15.3774700200
Cu     11.0479045662     3.5315147704    15.3771971651
Cu     12.2765483193     5.6595852924    15.3771299176
Cu     13.5054403579     7.7883030926    15.3772814178
Cu      1.2140125591     0.6836803076    17.5697065574
Cu      2.4431555374     2.8116125893    17.5665702724
Cu      3.6705110760     4.9384343512    17.5687388115
Cu      4.8988742539     7.0688538531    17.5715929661
Cu      3.6716454744     0.6829118137    17.5713989532
Cu      4.8981418913     2.8112417067    17.5722074693
Cu      6.1274353048     4.9410331682    17.5708265763
Cu      7.3554752500     7.0698228126    17.5713297733
Cu      6.1297077779     0.6833063606    17.5689100221
Cu      7.3567237656     2.8135682139    17.5698797004
Cu      8.5851063076     4.9421568820    17.5702368079
Cu      9.8152975701     7.0699596058    17.5700617325
Cu      8.5865082080     0.6855771971    17.5667967496
Cu      9.8144914881     2.8135456562    17.5749499312
Cu     11.0427692018     4.9416447797    17.5690866435
Cu     12.2728600100     7.0692517198    17.5719744219
O       5.4816243728     2.5651691502    20.6539118200
O       7.3508896973     4.2099530947    19.0383354809
O       4.4981563510     3.9587391709    22.9072956728
C       5.9290713561     3.8945947838    20.9960208007
C       7.3297021271     4.1881915565    20.4688911028
C       5.8721709119     4.0116672750    22.5089584937
H       5.2340507257     4.6323215466    20.5533350446
H       8.0432145389     3.4244560240    20.8191443760
H       7.6571223136     5.1738780612    20.8354754738
H       6.3359933253     4.9675285031    22.8148914030
H       6.4497260984     3.1808581747    22.9509168945
H       5.8597578631     2.3152772777    19.7784701378
H       3.6583776659     2.5435355524    20.3168147116
H       4.4610770249     3.8064239805    23.8648388416
O       2.7103082747     2.5416543255    20.0177020144
H       2.4292112216     1.6097423068    20.0822731560
