80
Step 1 | NEB Image 1 | Cartesian Angstrom
Ni      1.2286497034     0.7093615225    11.2499999440
Ni      2.4572989609     2.8374461750    11.2499999440
Ni      3.6859482184     4.9655308275    11.2499999440
Ni      4.9145974759     7.0936154800    11.2499999440
Ni      3.6859497034     0.7093615225    11.2499999440
Ni      4.9145989609     2.8374461750    11.2499999440
Ni      6.1432482184     4.9655308275    11.2499999440
Ni      7.3718974759     7.0936154800    11.2499999440
Ni      6.1432497034     0.7093615225    11.2499999440
Ni      7.3718989609     2.8374461750    11.2499999440
Ni      8.6005482184     4.9655308275    11.2499999440
Ni      9.8291974759     7.0936154800    11.2499999440
Ni      8.6005497034     0.7093615225    11.2499999440
Ni      9.8291989609     2.8374461750    11.2499999440
Ni     11.0578482184     4.9655308275    11.2499999440
Ni     12.2864974759     7.0936154800    11.2499999440
Ni     14.7391156794     8.5053429999    13.3011712910
Ni     11.0531329642     2.1206495503    13.3008022026
Ni     12.2817169557     4.2489790177    13.3006008466
Ni     13.5101985270     6.3773433856    13.3009432678
Ni      7.3672569131     8.5047181091    13.3011774747
Ni      3.6813641840     2.1207833643    13.3007249066
Ni      4.9098915592     4.2493198517    13.3009123494
Ni      6.1382080000     6.3774560890    13.3011137055
Ni      9.8241033938     8.5046823573    13.3010831736
Ni      6.1383369699     2.1207818321    13.3007716707
Ni      7.3668809566     4.2490234521    13.3008056810
Ni      8.5953896076     6.3767159412    13.3009509974
Ni     12.2816608204     8.5051500252    13.3006066438
Ni      8.5958457422     2.1206092019    13.3010364095
Ni      9.8244550440     4.2487038138    13.3007276120
Ni     11.0528529688     6.3769410074    13.3006611374
Cu      2.4478274055     1.4024593708    15.3768195742
Cu      3.6763308468     3.5307009057    15.3768060474
Cu      4.9041378398     5.6597275336    15.3773448005
Cu      6.1330260451     7.7878910103    15.3784795057
Cu      4.9046987540     1.4026027186    15.3777977550
Cu      6.1325026510     3.5313493756    15.3777258697
Cu      7.3610720952     5.6598451741    15.3779276123
Cu      8.5906751295     7.7868954923    15.3785351588
Cu      7.3621786280     1.4037477983    15.3762151195
Cu      8.5904727564     3.5321453644    15.3780682910
Cu      9.8190628915     5.6596863338    15.3769316534
Cu     11.0489115080     7.7874997832    15.3777154348
Cu      9.8196453802     1.4041813317    15.3774700200
Cu     11.0479045662     3.5315147704    15.3771971651
Cu     12.2765483193     5.6595852924    15.3771299176
Cu     13.5054403579     7.7883030926    15.3772814178
Cu      1.2140125591     0.6836803076    17.5697065574
Cu      2.4431555374     2.8116125893    17.5665702724
Cu      3.6705110760     4.9384343512    17.5687388115
Cu      4.8988742539     7.0688538531    17.5715929661
Cu      3.6716454744     0.6829118137    17.5713989532
Cu      4.8981418913     2.8112417067    17.5722074693
Cu      6.1274353048     4.9410331682    17.5708265763
Cu      7.3554752500     7.0698228126    17.5713297733
Cu      6.1297077779     0.6833063606    17.5689100221
Cu      7.3567237656     2.8135682139    17.5698797004
Cu      8.5851063076     4.9421568820    17.5702368079
Cu      9.8152975701     7.0699596058    17.5700617325
Cu      8.5865082080     0.6855771971    17.5667967496
Cu      9.8144914881     2.8135456562    17.5749499312
Cu     11.0427692018     4.9416447797    17.5690866435
Cu     12.2728600100     7.0692517198    17.5719744219
O       7.2288202015     4.2734569284    22.3446828621
O       8.3044696405     5.3171068409    20.0014702420
O       8.8891638945     4.8479579810    24.7349733808
C       8.5251333110     4.9000290628    22.3715153937
C       9.1804211035     4.7744357207    20.9993344800
C       9.4189460410     4.3898719266    23.4895992517
H       8.3072385962     5.9614198807    22.5605187870
H       9.4153356173     3.7172718747    20.7683620669
H      10.1139922737     5.3503076003    20.9408546493
H      10.4461642949     4.7683945991    23.3275539960
H       9.4595638267     3.2836247445    23.4537018323
H       7.3561498138     3.3073831923    22.3295378714
H       7.4071380143     4.9636379387    20.1831718691
H       9.4432595602     4.5017937719    25.4528614775
O       2.4447775074     1.3898406800    19.0162048647
H       2.5328987835     1.2730973609    19.9764139723
80
Step 2 | NEB Image 2 | Cartesian Angstrom
Ni      1.2286129178     0.7093357404    11.2499273838
Ni      2.4572445346     2.8374310332    11.2498527699
Ni      3.6858900784     4.9655518622    11.2497932589
Ni      4.9145561480     7.0936764810    11.2497931175
Ni      3.6859155999     0.7093134011    11.2498679380
Ni      4.9145636699     2.8374152026    11.2497671029
Ni      6.1432296707     4.9655508500    11.2497149588
Ni      7.3719033279     7.0936809379    11.2497564475
Ni      6.1432393831     0.7092951362    11.2498198291
Ni      7.3719104806     2.8374064652    11.2497304114
Ni      8.6005865159     4.9655466133    11.2497201807
Ni      9.8292458024     7.0936681093    11.2497944770
Ni      8.6005752580     0.7092935226    11.2498150766
Ni      9.8292544200     2.8374116306    11.2497706516
Ni     11.0579173778     4.9655415804    11.2497990888
Ni     12.2865565810     7.0936487299    11.2498687738
Ni     14.7391883770     8.5053852287    13.3010811759
Ni     11.0533056438     2.1205390996    13.3003988296
Ni     12.2819024503     4.2489703350    13.3002646767
Ni     13.5103297547     6.3773864048    13.3007493574
Ni      7.3672637610     8.5049425125    13.3007395119
Ni      3.6812537364     2.1206789571    13.3002713479
Ni      4.9097639115     4.2493360220    13.3001875750
Ni      6.1381427043     6.3776481391    13.3004072590
Ni      9.8241993163     8.5048543886    13.3007297857
Ni      6.1383091068     2.1206092052    13.3001391429
Ni      7.3669266361     4.2490107508    13.2999498203
Ni      8.5954958323     6.3768811720    13.3002722774
Ni     12.2817675160     8.5052445603    13.3004066678
Ni      8.5959563399     2.1204368005    13.3004235876
Ni      9.8246460428     4.2486861197    13.3000786875
Ni     11.0530275400     6.3770373196    13.3002379587
Cu      2.4475433993     1.4021076530    15.3758430412
Cu      3.6758414773     3.5307954101    15.3747054080
Cu      4.9033540386     5.6604702219    15.3748363984
Cu      6.1327778434     7.7887554157    15.3770502526
Cu      4.9045509368     1.4019148098    15.3763640538
Cu      6.1323402230     3.5308838509    15.3744749154
Cu      7.3612212952     5.6605824717    15.3746947798
Cu      8.5909071144     7.7876532956    15.3771488643
Cu      7.3623374071     1.4028609601    15.3745101255
Cu      8.5910805769     3.5316576817    15.3752927578
Cu      9.8198205072     5.6600836198    15.3748631671
Cu     11.0492878831     7.7878793315    15.3769660343
Cu      9.8201025343     1.4035838793    15.3762593682
Cu     11.0485982027     3.5313088349    15.3759115580
Cu     12.2770440076     5.6597117782    15.3764125572
Cu     13.5056668402     7.7884352033    15.3770133094
Cu      1.2129334700     0.6827112101    17.5686539324
Cu      2.4403761308     2.8225156749    17.5458396573
Cu      3.6647992608     4.9416733811    17.5609216782
Cu      4.8962167377     7.0731564429    17.5668247957
Cu      3.6726840861     0.6801376555    17.5682646573
Cu      4.8947541995     2.8054607987    17.5562508988
Cu      6.1234351251     4.9489967409    17.5352379731
Cu      7.3549923319     7.0760507704    17.5630127876
Cu      6.1296560295     0.6800778972    17.5658172473
Cu      7.3604736030     2.8060479624    17.5532570706
Cu      8.5919670442     4.9435448828    17.5436517739
Cu      9.8172911700     7.0729513806    17.5651531148
Cu      8.5876381130     0.6825885887    17.5635155147
Cu      9.8181705000     2.8104178510    17.5677993122
Cu     11.0460899732     4.9418440552    17.5645126497
Cu     12.2738749118     7.0698527299    17.5708852670
O       6.5100995638     3.7398892174    21.7934339385
O       7.7632091645     4.9769115002    19.7447499094
O       7.5017874994     4.5336107910    24.4656080942
C       7.6441821681     4.5811153446    22.0844977092
C       8.5643884559     4.6038651872    20.8731650591
C       8.3628329434     4.2165997380    23.3636533719
H       7.2039987590     5.5856507708    22.2020713422
H       9.0329788322     3.6163372773    20.6959847442
H       9.3606542296     5.3554182208    20.9526246951
H       9.3044189763     4.7933929208    23.4133362844
H       8.6230675261     3.1415835100    23.3513286668
H       6.8225947950     2.8188189735    21.7057363584
H       6.9146235519     4.4773210150    19.8369968438
H       7.9294487797     4.2585622455    25.2835081620
O       2.4481122859     1.4158838259    18.9955513718
H       2.5055734250     1.3689116130    19.9698340834
80
Step 3 | NEB Image 3 | Cartesian Angstrom
Ni      1.2286019312     0.7093262010    11.2499025565
Ni      2.4572296128     2.8374257596    11.2497970313
Ni      3.6858811413     4.9655631811    11.2497192338
Ni      4.9145560792     7.0936995198    11.2497311978
Ni      3.6859086007     0.7092969522    11.2498204961
Ni      4.9145638716     2.8374086539    11.2496866120
Ni      6.1432401236     4.9655631898    11.2496321978
Ni      7.3719173583     7.0937023094    11.2496969006
Ni      6.1432458553     0.7092767687    11.2497615508
Ni      7.3719283176     2.8374009997    11.2496545161
Ni      8.6006095787     4.9655559960    11.2496539606
Ni      9.8292662908     7.0936832698    11.2497525099
Ni      8.6005923263     0.7092786795    11.2497655570
Ni      9.8292792629     2.8374078550    11.2497177031
Ni     11.0579417792     4.9655474233    11.2497593344
Ni     12.2865742425     7.0936571878    11.2498465191
Ni     14.7392038348     8.5053925727    13.3010717431
Ni     11.0533674922     2.1205252545    13.3003167210
Ni     12.2819559322     4.2489763067    13.3002109219
Ni     13.5103611828     6.3773968188    13.3007254721
Ni      7.3672919784     8.5050050046    13.3006408050
Ni      3.6812188819     2.1206324821    13.3000778262
Ni      4.9097734185     4.2493672741    13.2999164444
Ni      6.1381735675     6.3777213404    13.3002163105
Ni      9.8242387198     8.5048954426    13.3006662682
Ni      6.1383468884     2.1205680321    13.2999134941
Ni      7.3669917876     4.2490341428    13.2997239500
Ni      8.5955552721     6.3769344856    13.3001243858
Ni     12.2817967169     8.5052633678    13.3003797080
Ni      8.5960248471     2.1204088746    13.3002639852
Ni      9.8247246465     4.2486965887    13.2999400965
Ni     11.0530851626     6.3770645911    13.3001657202
Cu      2.4473742684     1.4019062500    15.3756454210
Cu      3.6755559075     3.5308282797    15.3734718069
Cu      4.9034402054     5.6608610597    15.3739746048
Cu      6.1328390392     7.7890086880    15.3767100788
Cu      4.9045262175     1.4014979758    15.3755518445
Cu      6.1326978366     3.5309956777    15.3733403315
Cu      7.3613975574     5.6608492584    15.3739973808
Cu      8.5910465506     7.7878470553    15.3768908430
Cu      7.3625660811     1.4026641030    15.3739526197
Cu      8.5913901179     3.5316185253    15.3746311900
Cu      9.8201344092     5.6602360613    15.3744391024
Cu     11.0493997625     7.7879537230    15.3768805550
Cu      9.8203106829     1.4034871190    15.3759774508
Cu     11.0488279481     3.5313080873    15.3757054892
Cu     12.2771638349     5.6597459658    15.3763486336
Cu     13.5057104549     7.7884541811    15.3769983852
Cu      1.2136417113     0.6832689289    17.5695990292
Cu      2.4379806001     2.8197634701    17.5405446613
Cu      3.6607531924     4.9460156956    17.5523301899
Cu      4.8964611069     7.0748191393    17.5653623301
Cu      3.6710919191     0.6799477311    17.5687496331
Cu      4.8936445297     2.7995338681    17.5367015942
Cu      6.1290319821     4.9528557340    17.5340347639
Cu      7.3554922350     7.0775105413    17.5615318699
Cu      6.1302398335     0.6782375630    17.5637252499
Cu      7.3631285910     2.8068330503    17.5501331989
Cu      8.5969380191     4.9457445779    17.5344090541
Cu      9.8180567447     7.0734582146    17.5648001248
Cu      8.5885313308     0.6817947719    17.5622965775
Cu      9.8197595318     2.8100593291    17.5665183109
Cu     11.0468592936     4.9420409008    17.5645184465
Cu     12.2740174008     7.0698896686    17.5709364737
O       6.0927215394     3.5380866871    20.9992377716
O       7.4905615141     4.4434314033    19.3087683729
O       6.5168082319     4.3298624263    23.8749753576
C       7.1503236768     4.4663378058    21.5820607526
C       8.2359023917     4.4855571784    20.5166241935
C       7.5842110716     4.0998362846    22.9650812198
H       6.5991831554     5.4195152400    21.5815542012
H       8.9033826400     3.6022169246    20.5976614748
H       8.8639258054     5.3866135895    20.6093241575
H       8.4555270509     4.7491688658    23.1791160457
H       7.9451420266     3.0514270220    22.9968689030
H       6.4356426085     2.6036656882    20.9574659542
H       6.3088258284     3.8658465305    19.9331222300
H       6.8430053499     4.1890706190    24.7830911655
O       3.0348362286     1.7563978854    19.1732872334
H       2.3161972516     1.3392723607    19.6908011266
80
Step 4 | NEB Image 4 | Cartesian Angstrom
Ni      1.2286101326     0.7093323008    11.2499135937
Ni      2.4572425615     2.8374310416    11.2498239840
Ni      3.6858953615     4.9655612231    11.2497594214
Ni      4.9145663574     7.0936892066    11.2497705113
Ni      3.6859170665     0.7093074900    11.2498408116
Ni      4.9145734882     2.8374176398    11.2497276358
Ni      6.1432466068     4.9655623277    11.2496840742
Ni      7.3719191339     7.0936923932    11.2497409334
Ni      6.1432508905     0.7092901038    11.2497884415
Ni      7.3719303004     2.8374110854    11.2496989079
Ni      8.6006067965     4.9655561197    11.2497018549
Ni      9.8292609183     7.0936758965    11.2497889466
Ni      8.6005922302     0.7092913573    11.2497930967
Ni      9.8292744975     2.8374159408    11.2497548497
Ni     11.0579336604     4.9655475832    11.2497940147
Ni     12.2865662211     7.0936525677    11.2498703626
Ni     14.7391922569     8.5053856069    13.3010894724
Ni     11.0533509159     2.1205481542    13.3003835867
Ni     12.2819316743     4.2489816779    13.3002725030
Ni     13.5103413568     6.3773909166    13.3007632170
Ni      7.3672975120     8.5049674219    13.3007207441
Ni      3.6812480801     2.1206621639    13.3001555321
Ni      4.9098098389     4.2493751216    13.3000605007
Ni      6.1381932884     6.3776898007    13.3003525010
Ni      9.8242281622     8.5048675928    13.3007322253
Ni      6.1383635830     2.1206111752    13.3000149830
Ni      7.3669942322     4.2490481823    13.2998735415
Ni      8.5955471697     6.3769125819    13.3002454153
Ni     12.2817810971     8.5052477252    13.3004185803
Ni      8.5960223103     2.1204451387    13.3003562047
Ni      9.8247069146     4.2487080017    13.3000494658
Ni     11.0530630254     6.3770521186    13.3002439700
Cu      2.4474337117     1.4019983817    15.3757855351
Cu      3.6757114643     3.5308613641    15.3739041625
Cu      4.9036618028     5.6607052668    15.3745708610
Cu      6.1329078158     7.7888487640    15.3769818094
Cu      4.9046027406     1.4016625459    15.3757351228
Cu      6.1327743081     3.5311849201    15.3740020678
Cu      7.3613886929     5.6607485739    15.3746040614
Cu      8.5910378962     7.7877246325    15.3771545544
Cu      7.3626057579     1.4028346312    15.3741602255
Cu      8.5913730347     3.5317508305    15.3750558362
Cu      9.8200586941     5.6601986705    15.3748197046
Cu     11.0493440911     7.7878873938    15.3770392781
Cu      9.8202961809     1.4035984167    15.3761643378
Cu     11.0487498800     3.5313633042    15.3759488171
Cu     12.2770858382     5.6597293202    15.3765008825
Cu     13.5056714831     7.7884303515    15.3770563865
Cu      1.2136004965     0.6833232742    17.5694065854
Cu      2.4381301837     2.8159492941    17.5465816737
Cu      3.6639020124     4.9459255126    17.5545236822
Cu      4.8971084372     7.0737317487    17.5663823693
Cu      3.6709134601     0.6801424313    17.5685857059
Cu      4.8980971699     2.8036450130    17.5394843550
Cu      6.1273567313     4.9498547671    17.5435725468
Cu      7.3559077602     7.0764988950    17.5631063193
Cu      6.1306415099     0.6785362183    17.5634875090
Cu      7.3625634548     2.8085827087    17.5519404711
Cu      8.5977021904     4.9470077285    17.5392603730
Cu      9.8177639484     7.0728408692    17.5660255385
Cu      8.5887859664     0.6821705836    17.5626375933
Cu      9.8195802877     2.8107436734    17.5679770884
Cu     11.0462478294     4.9420559360    17.5656661461
Cu     12.2738115336     7.0697631412    17.5712054899
O       5.9244335385     3.0230784480    20.9590109717
O       7.4903195427     4.2806714427    19.0600258512
O       5.9118416006     4.2664690820    23.6050308597
C       6.6805990192     4.2036922792    21.3388275073
C       7.8977436850     4.3430509980    20.4306622349
C       7.0825561883     4.0921497758    22.8018253280
H       6.0260103151     5.0809786182    21.2112218487
H       8.6135168114     3.5232446251    20.6264019506
H       8.4158140959     5.2950507127    20.6321008813
H       7.8393701165     4.8651984463    23.0343180355
H       7.5366373463     3.0990062868    22.9635887615
H       6.3981901555     2.5990714972    20.2158356683
H       4.4156660371     2.8817501958    20.2529622369
H       6.1473520104     4.0937596400    24.5329445681
O       3.5683042627     2.6840398235    19.7386620148
H       3.1941575209     1.8307597870    20.0447099456
80
Step 5 | NEB Image 5 | Cartesian Angstrom
Ni      1.2286497034     0.7093615225    11.2499999440
Ni      2.4572989609     2.8374461750    11.2499999440
Ni      3.6859482184     4.9655308275    11.2499999440
Ni      4.9145974759     7.0936154800    11.2499999440
Ni      3.6859497034     0.7093615225    11.2499999440
Ni      4.9145989609     2.8374461750    11.2499999440
Ni      6.1432482184     4.9655308275    11.2499999440
Ni      7.3718974759     7.0936154800    11.2499999440
Ni      6.1432497034     0.7093615225    11.2499999440
Ni      7.3718989609     2.8374461750    11.2499999440
Ni      8.6005482184     4.9655308275    11.2499999440
Ni      9.8291974759     7.0936154800    11.2499999440
Ni      8.6005497034     0.7093615225    11.2499999440
Ni      9.8291989609     2.8374461750    11.2499999440
Ni     11.0578482184     4.9655308275    11.2499999440
Ni     12.2864974759     7.0936154800    11.2499999440
Ni     14.7391156794     8.5053429999    13.3011712910
Ni     11.0531329642     2.1206495503    13.3008022026
Ni     12.2817169557     4.2489790177    13.3006008466
Ni     13.5101985270     6.3773433856    13.3009432678
Ni      7.3672569131     8.5047181091    13.3011774747
Ni      3.6813641840     2.1207833643    13.3007249066
Ni      4.9098915592     4.2493198517    13.3009123494
Ni      6.1382080000     6.3774560890    13.3011137055
Ni      9.8241033938     8.5046823573    13.3010831736
Ni      6.1383369699     2.1207818321    13.3007716707
Ni      7.3668809566     4.2490234521    13.3008056810
Ni      8.5953896076     6.3767159412    13.3009509974
Ni     12.2816608204     8.5051500252    13.3006066438
Ni      8.5958457422     2.1206092019    13.3010364095
Ni      9.8244550440     4.2487038138    13.3007276120
Ni     11.0528529688     6.3769410074    13.3006611374
Cu      2.4478274055     1.4024593708    15.3768195742
Cu      3.6763308468     3.5307009057    15.3768060474
Cu      4.9041378398     5.6597275336    15.3773448005
Cu      6.1330260451     7.7878910103    15.3784795057
Cu      4.9046987540     1.4026027186    15.3777977550
Cu      6.1325026510     3.5313493756    15.3777258697
Cu      7.3610720952     5.6598451741    15.3779276123
Cu      8.5906751295     7.7868954923    15.3785351588
Cu      7.3621786280     1.4037477983    15.3762151195
Cu      8.5904727564     3.5321453644    15.3780682910
Cu      9.8190628915     5.6596863338    15.3769316534
Cu     11.0489115080     7.7874997832    15.3777154348
Cu      9.8196453802     1.4041813317    15.3774700200
Cu     11.0479045662     3.5315147704    15.3771971651
Cu     12.2765483193     5.6595852924    15.3771299176
Cu     13.5054403579     7.7883030926    15.3772814178
Cu      1.2140125591     0.6836803076    17.5697065574
Cu      2.4431555374     2.8116125893    17.5665702724
Cu      3.6705110760     4.9384343512    17.5687388115
Cu      4.8988742539     7.0688538531    17.5715929661
Cu      3.6716454744     0.6829118137    17.5713989532
Cu      4.8981418913     2.8112417067    17.5722074693
Cu      6.1274353048     4.9410331682    17.5708265763
Cu      7.3554752500     7.0698228126    17.5713297733
Cu      6.1297077779     0.6833063606    17.5689100221
Cu      7.3567237656     2.8135682139    17.5698797004
Cu      8.5851063076     4.9421568820    17.5702368079
Cu      9.8152975701     7.0699596058    17.5700617325
Cu      8.5865082080     0.6855771971    17.5667967496
Cu      9.8144914881     2.8135456562    17.5749499312
Cu     11.0427692018     4.9416447797    17.5690866435
Cu     12.2728600100     7.0692517198    17.5719744219
O       5.4816243728     2.5651691502    20.6539118200
O       7.3508896973     4.2099530947    19.0383354809
O       4.4981563510     3.9587391709    22.9072956728
C       5.9290713561     3.8945947838    20.9960208007
C       7.3297021271     4.1881915565    20.4688911028
C       5.8721709119     4.0116672750    22.5089584937
H       5.2340507257     4.6323215466    20.5533350446
H       8.0432145389     3.4244560240    20.8191443760
H       7.6571223136     5.1738780612    20.8354754738
H       6.3359933253     4.9675285031    22.8148914030
H       6.4497260984     3.1808581747    22.9509168945
H       5.8597578631     2.3152772777    19.7784701378
H       3.6583776659     2.5435355524    20.3168147116
H       4.4610770249     3.8064239805    23.8648388416
O       2.7103082747     2.5416543255    20.0177020144
H       2.4292112216     1.6097423068    20.0822731560
