80
Step 1 | NEB Image 1 | Cartesian Angstrom
Ni      1.2286497034     0.7093615225    11.2499999440
Ni      2.4572989609     2.8374461750    11.2499999440
Ni      3.6859482184     4.9655308275    11.2499999440
Ni      4.9145974759     7.0936154800    11.2499999440
Ni      3.6859497034     0.7093615225    11.2499999440
Ni      4.9145989609     2.8374461750    11.2499999440
Ni      6.1432482184     4.9655308275    11.2499999440
Ni      7.3718974759     7.0936154800    11.2499999440
Ni      6.1432497034     0.7093615225    11.2499999440
Ni      7.3718989609     2.8374461750    11.2499999440
Ni      8.6005482184     4.9655308275    11.2499999440
Ni      9.8291974759     7.0936154800    11.2499999440
Ni      8.6005497034     0.7093615225    11.2499999440
Ni      9.8291989609     2.8374461750    11.2499999440
Ni     11.0578482184     4.9655308275    11.2499999440
Ni     12.2864974759     7.0936154800    11.2499999440
Ni     14.7391156794     8.5053429999    13.3011712910
Ni     11.0531329642     2.1206495503    13.3008022026
Ni     12.2817169557     4.2489790177    13.3006008466
Ni     13.5101985270     6.3773433856    13.3009432678
Ni      7.3672569131     8.5047181091    13.3011774747
Ni      3.6813641840     2.1207833643    13.3007249066
Ni      4.9098915592     4.2493198517    13.3009123494
Ni      6.1382080000     6.3774560890    13.3011137055
Ni      9.8241033938     8.5046823573    13.3010831736
Ni      6.1383369699     2.1207818321    13.3007716707
Ni      7.3668809566     4.2490234521    13.3008056810
Ni      8.5953896076     6.3767159412    13.3009509974
Ni     12.2816608204     8.5051500252    13.3006066438
Ni      8.5958457422     2.1206092019    13.3010364095
Ni      9.8244550440     4.2487038138    13.3007276120
Ni     11.0528529688     6.3769410074    13.3006611374
Cu      2.4478274055     1.4024593708    15.3768195742
Cu      3.6763308468     3.5307009057    15.3768060474
Cu      4.9041378398     5.6597275336    15.3773448005
Cu      6.1330260451     7.7878910103    15.3784795057
Cu      4.9046987540     1.4026027186    15.3777977550
Cu      6.1325026510     3.5313493756    15.3777258697
Cu      7.3610720952     5.6598451741    15.3779276123
Cu      8.5906751295     7.7868954923    15.3785351588
Cu      7.3621786280     1.4037477983    15.3762151195
Cu      8.5904727564     3.5321453644    15.3780682910
Cu      9.8190628915     5.6596863338    15.3769316534
Cu     11.0489115080     7.7874997832    15.3777154348
Cu      9.8196453802     1.4041813317    15.3774700200
Cu     11.0479045662     3.5315147704    15.3771971651
Cu     12.2765483193     5.6595852924    15.3771299176
Cu     13.5054403579     7.7883030926    15.3772814178
Cu      1.2140125591     0.6836803076    17.5697065574
Cu      2.4431555374     2.8116125893    17.5665702724
Cu      3.6705110760     4.9384343512    17.5687388115
Cu      4.8988742539     7.0688538531    17.5715929661
Cu      3.6716454744     0.6829118137    17.5713989532
Cu      4.8981418913     2.8112417067    17.5722074693
Cu      6.1274353048     4.9410331682    17.5708265763
Cu      7.3554752500     7.0698228126    17.5713297733
Cu      6.1297077779     0.6833063606    17.5689100221
Cu      7.3567237656     2.8135682139    17.5698797004
Cu      8.5851063076     4.9421568820    17.5702368079
Cu      9.8152975701     7.0699596058    17.5700617325
Cu      8.5865082080     0.6855771971    17.5667967496
Cu      9.8144914881     2.8135456562    17.5749499312
Cu     11.0427692018     4.9416447797    17.5690866435
Cu     12.2728600100     7.0692517198    17.5719744219
O       7.2288202015     4.2734569284    22.3446828621
O       8.3044696405     5.3171068409    20.0014702420
O       8.8891638945     4.8479579810    24.7349733808
C       8.5251333110     4.9000290628    22.3715153937
C       9.1804211035     4.7744357207    20.9993344800
C       9.4189460410     4.3898719266    23.4895992517
H       8.3072385962     5.9614198807    22.5605187870
H       9.4153356173     3.7172718747    20.7683620669
H      10.1139922737     5.3503076003    20.9408546493
H      10.4461642949     4.7683945991    23.3275539960
H       9.4595638267     3.2836247445    23.4537018323
H       7.3561498138     3.3073831923    22.3295378714
H       7.4071380143     4.9636379387    20.1831718691
H       9.4432595602     4.5017937719    25.4528614775
O       2.4447775074     1.3898406800    19.0162048647
H       2.5328987835     1.2730973609    19.9764139723
80
Step 2 | NEB Image 2 | Cartesian Angstrom
Ni      1.2286132764     0.7093360524    11.2499281983
Ni      2.4572450208     2.8374312046    11.2498545974
Ni      3.6858903661     4.9655514892    11.2497956836
Ni      4.9145561448     7.0936757251    11.2497951426
Ni      3.6859158267     0.7093139390    11.2498694948
Ni      4.9145636580     2.8374154142    11.2497697408
Ni      6.1432293218     4.9655504426    11.2497176659
Ni      7.3719028633     7.0936802370    11.2497583917
Ni      6.1432391665     0.7092957360    11.2498217406
Ni      7.3719098901     2.8374066404    11.2497328957
Ni      8.6005857553     4.9655463032    11.2497223433
Ni      9.8292451282     7.0936676122    11.2497958443
Ni      8.6005746939     0.7092940063    11.2498166982
Ni      9.8292536016     2.8374117511    11.2497723814
Ni     11.0579165758     4.9655413873    11.2498003839
Ni     12.2865560016     7.0936484529    11.2498694965
Ni     14.7391878724     8.5053849898    13.3010814781
Ni     11.0533036088     2.1205395449    13.3004015071
Ni     12.2819006960     4.2489701348    13.3002664201
Ni     13.5103287267     6.3773860639    13.3007501265
Ni      7.3672628255     8.5049404675    13.3007427309
Ni      3.6812548725     2.1206804770    13.3002777014
Ni      4.9097635778     4.2493349850    13.3001964576
Ni      6.1381416738     6.3776457370    13.3004134961
Ni      9.8241980199     8.5048530468    13.3007318493
Ni      6.1383078492     2.1206105426    13.3001465453
Ni      7.3669244817     4.2490099702    13.2999572042
Ni      8.5954938724     6.3768794219    13.3002770997
Ni     12.2817665594     8.5052439472    13.3004075378
Ni      8.5959540773     2.1204377039    13.3004288124
Ni      9.8246434547     4.2486857676    13.3000832088
Ni     11.0530256476     6.3770364251    13.3002403039
Cu      2.4475489566     1.4021142592    15.3758494966
Cu      3.6758508309     3.5307943061    15.3747459423
Cu      4.9033510720     5.6604573897    15.3748645576
Cu      6.1327757841     7.7887471318    15.3770613482
Cu      4.9045517126     1.4019284964    15.3763907962
Cu      6.1323283640     3.5308800537    15.3745120542
Cu      7.3612154751     5.6605737094    15.3747175007
Cu      8.5909025111     7.7876469583    15.3771572494
Cu      7.3623298289     1.4028673740    15.3745284377
Cu      8.5910703567     3.5316589046    15.3753143924
Cu      9.8198101745     5.6600786022    15.3748769766
Cu     11.0492842157     7.7878769087    15.3769687738
Cu      9.8200956634     1.4035870171    15.3762685842
Cu     11.0485906523     3.5313088299    15.3759182371
Cu     12.2770400896     5.6597106574    15.3764145878
Cu     13.5056654198     7.7884345889    15.3770137714
Cu      1.2129100870     0.6826927501    17.5686228034
Cu      2.4404552151     2.8226086759    17.5460113962
Cu      3.6649312785     4.9415299299    17.5612044208
Cu      4.8962083143     7.0731020804    17.5668725775
Cu      3.6727367980     0.6801438273    17.5682487185
Cu      4.8947884780     2.8056544559    17.5568954457
Cu      6.1232510670     4.9488708260    17.5352726105
Cu      7.3549755885     7.0760030732    17.5630608812
Cu      6.1296365208     0.6801385539    17.5658865088
Cu      7.3603861678     2.8060210777    17.5533593335
Cu      8.5918023587     4.9434715112    17.5439546096
Cu      9.8172660275     7.0729349630    17.5651641215
Cu      8.5876084582     0.6826146199    17.5635556134
Cu      9.8181180839     2.8104293312    17.5678408614
Cu     11.0460648782     4.9418375420    17.5645118415
Cu     12.2738703136     7.0698515772    17.5708834303
O       6.5446476121     3.7506117695    21.8654042962
O       7.8284258825     5.0696804246    19.8341502204
O       7.5521323210     4.4690777882    24.5506987527
C       7.6797840652     4.5823269381    22.1701913880
C       8.6023166807     4.6339088176    20.9583290538
C       8.4039843195     4.1816383151    23.4405081758
H       7.2450651311     5.5825901617    22.3180746963
H       9.0513675747     3.6435664366    20.7506587136
H       9.4138454129     5.3626967607    21.0783195240
H       9.3484108806     4.7546768493    23.4997439312
H       8.6642873524     3.1061668920    23.3966987414
H       6.8499300530     2.8265084975    21.7876915314
H       6.9774131413     4.5722901044    19.8753336369
H       8.0100132461     4.2173803512    25.3674341943
O       2.4492518357     1.4158604514    18.9978114449
H       2.5157800352     1.3799722621    19.9654635839
80
Step 3 | NEB Image 3 | Cartesian Angstrom
Ni      1.2286015556     0.7093258437    11.2499014790
Ni      2.4572291578     2.8374256203    11.2497946786
Ni      3.6858810659     4.9655637661    11.2497162432
Ni      4.9145563887     7.0937005175    11.2497288700
Ni      3.6859084602     0.7092963366    11.2498184135
Ni      4.9145641764     2.8374085550    11.2496832786
Ni      6.1432409166     4.9655638664    11.2496290661
Ni      7.3719182116     7.0937032242    11.2496948519
Ni      6.1432463775     0.7092761292    11.2497590515
Ni      7.3719293940     2.8374009960    11.2496515472
Ni      8.6006108075     4.9655565341    11.2496516496
Ni      9.8292672939     7.0936839084    11.2497512307
Ni      8.6005932955     0.7092782207    11.2497635764
Ni      9.8292805325     2.8374078865    11.2497158201
Ni     11.0579429214     4.9655477610    11.2497581278
Ni     12.2865750038     7.0936575286    11.2498459787
Ni     14.7392043621     8.5053927786    13.3010717466
Ni     11.0533705094     2.1205251643    13.3003140835
Ni     12.2819582386     4.2489768106    13.3002097382
Ni     13.5103623682     6.3773972319    13.3007252627
Ni      7.3672937543     8.5050074178    13.3006376208
Ni      3.6812177871     2.1206307402    13.3000691736
Ni      4.9097750707     4.2493692934    13.2999053949
Ni      6.1381759267     6.3777245479    13.3002095880
Ni      9.8242406421     8.5048969316    13.3006646619
Ni      6.1383495495     2.1205670027    13.2999037370
Ni      7.3669955730     4.2490359033    13.2997156472
Ni      8.5955584105     6.3769368542    13.3001196533
Ni     12.2817979038     8.5052639619    13.3003793579
Ni      8.5960286717     2.1204083899    13.3002577071
Ni      9.8247285827     4.2486975331    13.2999355382
Ni     11.0530877695     6.3770657640    13.3001639921
Cu      2.4473664481     1.4018975884    15.3756384382
Cu      3.6755443863     3.5308311608    15.3734147304
Cu      4.9034518711     5.6608785694    15.3739437036
Cu      6.1328446222     7.7890182365    15.3766989904
Cu      4.9045271433     1.4014792531    15.3755111731
Cu      6.1327205371     3.5310078182    15.3732958900
Cu      7.3614073264     5.6608613831    15.3739761609
Cu      8.5910542285     7.7878543578    15.3768841892
Cu      7.3625803156     1.4026580912    15.3739271973
Cu      8.5914072273     3.5316203300    15.3746064596
Cu      9.8201499789     5.6602436036    15.3744265561
Cu     11.0494044370     7.7879559373    15.3768805268
Cu      9.8203220961     1.4034850020    15.3759670931
Cu     11.0488386528     3.5313097286    15.3757011729
Cu     12.2771682812     5.6597474053    15.3763496358
Cu     13.5057117505     7.7884545353    15.3769993040
Cu      1.2136807935     0.6833023520    17.5696469899
Cu      2.4378487205     2.8194903951    17.5404271834
Cu      3.6606187697     4.9462602690    17.5519077413
Cu      4.8964947666     7.0748806794    17.5653101405
Cu      3.6709957923     0.6799428513    17.5687722565
Cu      4.8937171162     2.7993216653    17.5356729958
Cu      6.1292996711     4.9529840105    17.5342571014
Cu      7.3555333798     7.0775628334    17.5614955369
Cu      6.1302853347     0.6781418517    17.5635988465
Cu      7.3632625756     2.8069311246    17.5500103890
Cu      8.5972444536     4.9459083867    17.5340305677
Cu      9.8180914200     7.0734682554    17.5648173904
Cu      8.5885899709     0.6817610197    17.5622375507
Cu      9.8198445714     2.8100597790    17.5664898369
Cu     11.0468844640     4.9420525709    17.5645537774
Cu     12.2740192383     7.0698879139    17.5709475943
O       5.9960436910     3.4936643394    21.3169292047
O       7.4684720810     4.3553072421    19.4734059869
O       6.4939842056     4.2953467440    24.0829278586
C       7.0277485642     4.3975644241    21.7741033005
C       8.1487248754     4.4337108613    20.7333820967
C       7.5441901959     4.0690123339    23.1519076431
H       6.5228239970     5.3724181483    21.7860161534
H       8.8491858416     3.5852101685    20.8186097912
H       8.7206355692     5.3709147073    20.7543991100
H       8.4213856245     4.7148177619    23.3501035838
H       7.8925310278     3.0176954310    23.1623413127
H       6.3278853673     2.5738777467    21.3335668017
H       6.5909971981     3.9262940596    19.6903634747
H       6.8270403948     4.1039918142    24.9820128086
O       3.0829484621     1.7866367563    19.1443996451
H       2.3977026802     1.4010550912    19.7254856981
80
Step 4 | NEB Image 4 | Cartesian Angstrom
Ni      1.2286076814     0.7093304682    11.2499102244
Ni      2.4572387086     2.8374294756    11.2498157905
Ni      3.6858911826     4.9655618694    11.2497472685
Ni      4.9145633819     7.0936923537    11.2497586965
Ni      3.6859145668     0.7093043241    11.2498345977
Ni      4.9145707061     2.8374149928    11.2497151954
Ni      6.1432448037     4.9655626640    11.2496684766
Ni      7.3719187186     7.0936954137    11.2497277693
Ni      6.1432494786     0.7092861148    11.2497802481
Ni      7.3719298519     2.8374081276    11.2496855250
Ni      8.6006077640     4.9655561499    11.2496875262
Ni      9.8292626175     7.0936781373    11.2497781049
Ni      8.6005923781     0.7092875833    11.2497847771
Ni      9.8292760516     2.8374135738    11.2497437253
Ni     11.0579361820     4.9655475780    11.2497836969
Ni     12.2865686671     7.0936539645    11.2498633046
Ni     14.7391957168     8.5053876748    13.3010842743
Ni     11.0533561489     2.1205414285    13.3003636550
Ni     12.2819390719     4.2489801652    13.3002543003
Ni     13.5103473165     6.3773926982    13.3007521238
Ni      7.3672961088     8.5049787397    13.3006969116
Ni      3.6812393836     2.1206532457    13.3001316791
Ni      4.9097993639     4.2493730699    13.3000168968
Ni      6.1381877972     6.3776994447    13.3003117378
Ni      9.8242314952     8.5048759427    13.3007126874
Ni      6.1383590165     2.1205983979    13.2999840201
Ni      7.3669939828     4.2490442831    13.2998286538
Ni      8.5955499330     6.3769192969    13.3002093433
Ni     12.2817858237     8.5052523852    13.3004071391
Ni      8.5960235264     2.1204344456    13.3003283893
Ni      9.8247125999     4.2487047719    13.3000168342
Ni     11.0530698383     6.3770559206    13.3002208126
Cu      2.4474153164     1.4019702978    15.3757435893
Cu      3.6756644301     3.5308520190    15.3737703416
Cu      4.9035982675     5.6607531097    15.3743922140
Cu      6.1328883388     7.7888968352    15.3769007647
Cu      4.9045804172     1.4016119796    15.3756763609
Cu      6.1327546885     3.5311309304    15.3738025491
Cu      7.3613924983     5.6607795932    15.3744235532
Cu      8.5910413819     7.7877614304    15.3770764086
Cu      7.3625958817     1.4027838874    15.3740962133
Cu      8.5913801564     3.5317122594    15.3749282698
Cu      9.8200828174     5.6602105653    15.3747065570
Cu     11.0493609920     7.7879071160    15.3769927345
Cu      9.8203018424     1.4035655211    15.3761082608
Cu     11.0487740925     3.5313473164    15.3758769366
Cu     12.2771092571     5.6597343787    15.3764563646
Cu     13.5056830702     7.7884373825    15.3770394931
Cu      1.2136174070     0.6833114663    17.5694689349
Cu      2.4380700395     2.8170339508    17.5447970233
Cu      3.6629621321     4.9459821546    17.5538283542
Cu      4.8969227862     7.0740581871    17.5660768339
Cu      3.6709539176     0.6800847397    17.5686365653
Cu      4.8968005502     2.8024133602    17.5385413993
Cu      6.1278809938     4.9507505357    17.5408033759
Cu      7.3557910022     7.0768019821    17.5626401803
Cu      6.1305293505     0.6784368299    17.5635416105
Cu      7.3627457054     2.8080817919    17.5513953871
Cu      8.5975159611     4.9466575799    17.5377911578
Cu      9.8178540823     7.0730231241    17.5656683603
Cu      8.5887185440     0.6820562223    17.5625303139
Cu      9.8196433452     2.8105430687    17.5675458366
Cu     11.0464302281     4.9420529684    17.5653339855
Cu     12.2738721240     7.0698000243    17.5711279833
O       5.9892323135     2.9914405152    21.0247069205
O       7.4722299765     4.2618279955    19.0480509571
O       6.0845238178     4.2915033050    23.6621973673
C       6.7437254742     4.1802705518    21.3638038760
C       7.9197262640     4.3523261065    20.4071000962
C       7.2136753430     4.0908808785    22.8113490821
H       6.0662514418     5.0453118968    21.2687818684
H       8.6767011679     3.5656948880    20.5829532361
H       8.4027864541     5.3270362151    20.5773132700
H       7.9888893095     4.8604364140    22.9947400813
H       7.6679148885     3.0968934403    22.9702011948
H       6.4393949020     2.5650467331    20.2606513947
H       4.3967001965     2.9377617804    20.3353587171
H       6.3481011055     4.1039197754    24.5778479577
O       3.5086337696     2.7696624496    19.9094779300
H       3.3062836136     1.8261826705    20.0836108722
80
Step 5 | NEB Image 5 | Cartesian Angstrom
Ni      1.2286497034     0.7093615225    11.2499999440
Ni      2.4572989609     2.8374461750    11.2499999440
Ni      3.6859482184     4.9655308275    11.2499999440
Ni      4.9145974759     7.0936154800    11.2499999440
Ni      3.6859497034     0.7093615225    11.2499999440
Ni      4.9145989609     2.8374461750    11.2499999440
Ni      6.1432482184     4.9655308275    11.2499999440
Ni      7.3718974759     7.0936154800    11.2499999440
Ni      6.1432497034     0.7093615225    11.2499999440
Ni      7.3718989609     2.8374461750    11.2499999440
Ni      8.6005482184     4.9655308275    11.2499999440
Ni      9.8291974759     7.0936154800    11.2499999440
Ni      8.6005497034     0.7093615225    11.2499999440
Ni      9.8291989609     2.8374461750    11.2499999440
Ni     11.0578482184     4.9655308275    11.2499999440
Ni     12.2864974759     7.0936154800    11.2499999440
Ni     14.7391156794     8.5053429999    13.3011712910
Ni     11.0531329642     2.1206495503    13.3008022026
Ni     12.2817169557     4.2489790177    13.3006008466
Ni     13.5101985270     6.3773433856    13.3009432678
Ni      7.3672569131     8.5047181091    13.3011774747
Ni      3.6813641840     2.1207833643    13.3007249066
Ni      4.9098915592     4.2493198517    13.3009123494
Ni      6.1382080000     6.3774560890    13.3011137055
Ni      9.8241033938     8.5046823573    13.3010831736
Ni      6.1383369699     2.1207818321    13.3007716707
Ni      7.3668809566     4.2490234521    13.3008056810
Ni      8.5953896076     6.3767159412    13.3009509974
Ni     12.2816608204     8.5051500252    13.3006066438
Ni      8.5958457422     2.1206092019    13.3010364095
Ni      9.8244550440     4.2487038138    13.3007276120
Ni     11.0528529688     6.3769410074    13.3006611374
Cu      2.4478274055     1.4024593708    15.3768195742
Cu      3.6763308468     3.5307009057    15.3768060474
Cu      4.9041378398     5.6597275336    15.3773448005
Cu      6.1330260451     7.7878910103    15.3784795057
Cu      4.9046987540     1.4026027186    15.3777977550
Cu      6.1325026510     3.5313493756    15.3777258697
Cu      7.3610720952     5.6598451741    15.3779276123
Cu      8.5906751295     7.7868954923    15.3785351588
Cu      7.3621786280     1.4037477983    15.3762151195
Cu      8.5904727564     3.5321453644    15.3780682910
Cu      9.8190628915     5.6596863338    15.3769316534
Cu     11.0489115080     7.7874997832    15.3777154348
Cu      9.8196453802     1.4041813317    15.3774700200
Cu     11.0479045662     3.5315147704    15.3771971651
Cu     12.2765483193     5.6595852924    15.3771299176
Cu     13.5054403579     7.7883030926    15.3772814178
Cu      1.2140125591     0.6836803076    17.5697065574
Cu      2.4431555374     2.8116125893    17.5665702724
Cu      3.6705110760     4.9384343512    17.5687388115
Cu      4.8988742539     7.0688538531    17.5715929661
Cu      3.6716454744     0.6829118137    17.5713989532
Cu      4.8981418913     2.8112417067    17.5722074693
Cu      6.1274353048     4.9410331682    17.5708265763
Cu      7.3554752500     7.0698228126    17.5713297733
Cu      6.1297077779     0.6833063606    17.5689100221
Cu      7.3567237656     2.8135682139    17.5698797004
Cu      8.5851063076     4.9421568820    17.5702368079
Cu      9.8152975701     7.0699596058    17.5700617325
Cu      8.5865082080     0.6855771971    17.5667967496
Cu      9.8144914881     2.8135456562    17.5749499312
Cu     11.0427692018     4.9416447797    17.5690866435
Cu     12.2728600100     7.0692517198    17.5719744219
O       5.4816243728     2.5651691502    20.6539118200
O       7.3508896973     4.2099530947    19.0383354809
O       4.4981563510     3.9587391709    22.9072956728
C       5.9290713561     3.8945947838    20.9960208007
C       7.3297021271     4.1881915565    20.4688911028
C       5.8721709119     4.0116672750    22.5089584937
H       5.2340507257     4.6323215466    20.5533350446
H       8.0432145389     3.4244560240    20.8191443760
H       7.6571223136     5.1738780612    20.8354754738
H       6.3359933253     4.9675285031    22.8148914030
H       6.4497260984     3.1808581747    22.9509168945
H       5.8597578631     2.3152772777    19.7784701378
H       3.6583776659     2.5435355524    20.3168147116
H       4.4610770249     3.8064239805    23.8648388416
O       2.7103082747     2.5416543255    20.0177020144
H       2.4292112216     1.6097423068    20.0822731560
