80
Step 1 | NEB Image 1 | Cartesian Angstrom
Ni      1.2286497034     0.7093615225    11.2499999440
Ni      2.4572989609     2.8374461750    11.2499999440
Ni      3.6859482184     4.9655308275    11.2499999440
Ni      4.9145974759     7.0936154800    11.2499999440
Ni      3.6859497034     0.7093615225    11.2499999440
Ni      4.9145989609     2.8374461750    11.2499999440
Ni      6.1432482184     4.9655308275    11.2499999440
Ni      7.3718974759     7.0936154800    11.2499999440
Ni      6.1432497034     0.7093615225    11.2499999440
Ni      7.3718989609     2.8374461750    11.2499999440
Ni      8.6005482184     4.9655308275    11.2499999440
Ni      9.8291974759     7.0936154800    11.2499999440
Ni      8.6005497034     0.7093615225    11.2499999440
Ni      9.8291989609     2.8374461750    11.2499999440
Ni     11.0578482184     4.9655308275    11.2499999440
Ni     12.2864974759     7.0936154800    11.2499999440
Ni     14.7391156794     8.5053429999    13.3011712910
Ni     11.0531329642     2.1206495503    13.3008022026
Ni     12.2817169557     4.2489790177    13.3006008466
Ni     13.5101985270     6.3773433856    13.3009432678
Ni      7.3672569131     8.5047181091    13.3011774747
Ni      3.6813641840     2.1207833643    13.3007249066
Ni      4.9098915592     4.2493198517    13.3009123494
Ni      6.1382080000     6.3774560890    13.3011137055
Ni      9.8241033938     8.5046823573    13.3010831736
Ni      6.1383369699     2.1207818321    13.3007716707
Ni      7.3668809566     4.2490234521    13.3008056810
Ni      8.5953896076     6.3767159412    13.3009509974
Ni     12.2816608204     8.5051500252    13.3006066438
Ni      8.5958457422     2.1206092019    13.3010364095
Ni      9.8244550440     4.2487038138    13.3007276120
Ni     11.0528529688     6.3769410074    13.3006611374
Cu      2.4478274055     1.4024593708    15.3768195742
Cu      3.6763308468     3.5307009057    15.3768060474
Cu      4.9041378398     5.6597275336    15.3773448005
Cu      6.1330260451     7.7878910103    15.3784795057
Cu      4.9046987540     1.4026027186    15.3777977550
Cu      6.1325026510     3.5313493756    15.3777258697
Cu      7.3610720952     5.6598451741    15.3779276123
Cu      8.5906751295     7.7868954923    15.3785351588
Cu      7.3621786280     1.4037477983    15.3762151195
Cu      8.5904727564     3.5321453644    15.3780682910
Cu      9.8190628915     5.6596863338    15.3769316534
Cu     11.0489115080     7.7874997832    15.3777154348
Cu      9.8196453802     1.4041813317    15.3774700200
Cu     11.0479045662     3.5315147704    15.3771971651
Cu     12.2765483193     5.6595852924    15.3771299176
Cu     13.5054403579     7.7883030926    15.3772814178
Cu      1.2140125591     0.6836803076    17.5697065574
Cu      2.4431555374     2.8116125893    17.5665702724
Cu      3.6705110760     4.9384343512    17.5687388115
Cu      4.8988742539     7.0688538531    17.5715929661
Cu      3.6716454744     0.6829118137    17.5713989532
Cu      4.8981418913     2.8112417067    17.5722074693
Cu      6.1274353048     4.9410331682    17.5708265763
Cu      7.3554752500     7.0698228126    17.5713297733
Cu      6.1297077779     0.6833063606    17.5689100221
Cu      7.3567237656     2.8135682139    17.5698797004
Cu      8.5851063076     4.9421568820    17.5702368079
Cu      9.8152975701     7.0699596058    17.5700617325
Cu      8.5865082080     0.6855771971    17.5667967496
Cu      9.8144914881     2.8135456562    17.5749499312
Cu     11.0427692018     4.9416447797    17.5690866435
Cu     12.2728600100     7.0692517198    17.5719744219
O       7.2288202015     4.2734569284    22.3446828621
O       8.3044696405     5.3171068409    20.0014702420
O       8.8891638945     4.8479579810    24.7349733808
C       8.5251333110     4.9000290628    22.3715153937
C       9.1804211035     4.7744357207    20.9993344800
C       9.4189460410     4.3898719266    23.4895992517
H       8.3072385962     5.9614198807    22.5605187870
H       9.4153356173     3.7172718747    20.7683620669
H      10.1139922737     5.3503076003    20.9408546493
H      10.4461642949     4.7683945991    23.3275539960
H       9.4595638267     3.2836247445    23.4537018323
H       7.3561498138     3.3073831923    22.3295378714
H       7.4071380143     4.9636379387    20.1831718691
H       9.4432595602     4.5017937719    25.4528614775
O       2.4447775074     1.3898406800    19.0162048647
H       2.5328987835     1.2730973609    19.9764139723
80
Step 2 | NEB Image 2 | Cartesian Angstrom
Ni      1.2286128402     0.7093356727    11.2499272056
Ni      2.4572444301     2.8374309965    11.2498523707
Ni      3.6858900184     4.9655519447    11.2497927306
Ni      4.9145561516     7.0936766463    11.2497926778
Ni      3.6859155518     0.7093132843    11.2498675972
Ni      4.9145636752     2.8374151580    11.2497665273
Ni      6.1432297502     4.9655509404    11.2497143709
Ni      7.3719034318     7.0936810911    11.2497560272
Ni      6.1432394327     0.7092950065    11.2498194113
Ni      7.3719106125     2.8374064291    11.2497298710
Ni      8.6005866844     4.9655466824    11.2497197128
Ni      9.8292459509     7.0936682178    11.2497941829
Ni      8.6005753834     0.7092934185    11.2498147234
Ni      9.8292546008     2.8374116061    11.2497702770
Ni     11.0579175540     4.9655416235    11.2497988103
Ni     12.2865567076     7.0936487902    11.2498686197
Ni     14.7391884861     8.5053852800    13.3010811136
Ni     11.0533060920     2.1205390070    13.3003982524
Ni     12.2819028340     4.2489703811    13.3002643060
Ni     13.5103299779     6.3773864791    13.3007491969
Ni      7.3672639707     8.5049429570    13.3007388179
Ni      3.6812534917     2.1206786271    13.3002699558
Ni      4.9097639960     4.2493362549    13.3001856387
Ni      6.1381429392     6.3776486648    13.3004059092
Ni      9.8241996019     8.5048546794    13.3007293449
Ni      6.1383093913     2.1206089196    13.3001375240
Ni      7.3669271162     4.2490109284    13.2999482190
Ni      8.5954962662     6.3768815553    13.3002712382
Ni     12.2817677245     8.5052446924    13.3004064850
Ni      8.5959568427     2.1204366096    13.3004224507
Ni      9.8246466138     4.2486862012    13.3000777120
Ni     11.0530279549     6.3770375152    13.3002374587
Cu      2.4475421792     1.4021062087    15.3758416439
Cu      3.6758394393     3.5307956651    15.3746965089
Cu      4.9033547607     5.6604730339    15.3748302989
Cu      6.1327783208     7.7887572144    15.3770478594
Cu      4.9045507856     1.4019118102    15.3763581541
Cu      6.1323428834     3.5308847488    15.3744668360
Cu      7.3612225879     5.6605843934    15.3746898935
Cu      8.5909081363     7.7876546716    15.3771470722
Cu      7.3623391046     1.4028595805    15.3745061086
Cu      8.5910828464     3.5316574465    15.3752880623
Cu      9.8198227854     5.6600847259    15.3748602005
Cu     11.0492886836     7.7878798521    15.3769654691
Cu      9.8201040592     1.4035832122    15.3762573696
Cu     11.0485998611     3.5313088514    15.3759101397
Cu     12.2770448576     5.6597120230    15.3764121479
Cu     13.5056671454     7.7884353333    15.3770132228
Cu      1.2129386618     0.6827153332    17.5686608057
Cu      2.4403585742     2.8224939130    17.5458031287
Cu      3.6647707636     4.9417052778    17.5608593733
Cu      4.8962187932     7.0731682360    17.5668144482
Cu      3.6726723063     0.6801363366    17.5682681583
Cu      4.8947478167     2.8054188542    17.5561082470
Cu      6.1234756148     4.9490239213    17.5352329324
Cu      7.3549961740     7.0760611014    17.5630025257
Cu      6.1296604830     0.6800644829    17.5658017681
Cu      7.3604929017     2.8060544343    17.5532348196
Cu      8.5920039051     4.9435615633    17.5435857410
Cu      9.8172966830     7.0729548613    17.5651510081
Cu      8.5876447833     0.6825829011    17.5635066869
Cu      9.8181821140     2.8104154876    17.5677904743
Cu     11.0460953865     4.9418455087    17.5645131505
Cu     12.2738758775     7.0698529510    17.5708857510
O       6.4977060979     3.7415817996    21.7580040213
O       7.7198233755     4.9082934020    19.6946469001
O       7.4897989725     4.5684012390    24.4254326605
C       7.6319311731     4.5860435770    22.0317954908
C       8.5507990887     4.5849714667    20.8176767298
C       8.3477551178     4.2388458296    23.3206857970
H       7.1979115909     5.5927292687    22.1348898998
H       9.0288227449     3.5993325142    20.6649054684
H       9.3303849480     5.3486912477    20.8620450287
H       9.2912819155     4.8190317957    23.3630797584
H       8.6091400563     3.1661549257    23.3236523650
H       6.8120949099     2.8256239246    21.6389526157
H       6.8645910193     4.4294321145    19.8419940202
H       7.8782221501     4.2808726156    25.2188180286
O       2.4435748011     1.4111062803    19.0082941413
H       2.4968543036     1.3589197767    19.9590786200
80
Step 3 | NEB Image 3 | Cartesian Angstrom
Ni      1.2286018920     0.7093261119    11.2499020639
Ni      2.4572296572     2.8374258133    11.2497960425
Ni      3.6858815164     4.9655635714    11.2497181575
Ni      4.9145566302     7.0936999730    11.2497306046
Ni      3.6859087504     0.7092967997    11.2498195130
Ni      4.9145643989     2.8374088515    11.2496852975
Ni      6.1432409310     4.9655636839    11.2496313689
Ni      7.3719180686     7.0937027110    11.2496966658
Ni      6.1432464102     0.7092766829    11.2497604474
Ni      7.3719292058     2.8374013040    11.2496535845
Ni      8.6006104391     4.9655564137    11.2496536417
Ni      9.8292668987     7.0936835365    11.2497526356
Ni      8.6005930688     0.7092787127    11.2497648723
Ni      9.8292800943     2.8374081255    11.2497173861
Ni     11.0579424104     4.9655476879    11.2497594625
Ni     12.2865745838     7.0936573092    11.2498468296
Ni     14.7392038878     8.5053925189    13.3010722857
Ni     11.0533693080     2.1205258824    13.3003167287
Ni     12.2819569674     4.2489768578    13.3002118867
Ni     13.5103614908     6.3773969568    13.3007264605
Ni      7.3672935127     8.5050057162    13.3006407903
Ni      3.6812189290     2.1206320462    13.3000735377
Ni      4.9097757983     4.2493690661    13.2999123329
Ni      6.1381759826     6.3777228468    13.3002152875
Ni      9.8242398768     8.5048957398    13.3006670413
Ni      6.1383494435     2.1205685542    13.2999090804
Ni      7.3669947734     4.2490359244    13.2997221196
Ni      8.5955574392     6.3769356403    13.3001244316
Ni     12.2817971541     8.5052633484    13.3003806225
Ni      8.5960277113     2.1204096062    13.3002619649
Ni      9.8247271339     4.2486976626    13.2999399212
Ni     11.0530864935     6.3770651134    13.3001667739
Cu      2.4473700639     1.4019023939    15.3756443172
Cu      3.6755517834     3.5308315031    15.3734410749
Cu      4.9034559257     5.6608697824    15.3739689956
Cu      6.1328454275     7.7890111618    15.3767098253
Cu      4.9045292598     1.4014885875    15.3755261449
Cu      6.1327176245     3.5310107779    15.3733263023
Cu      7.3614048009     5.6608555176    15.3739995350
Cu      8.5910521922     7.7878489437    15.3768937561
Cu      7.3625782373     1.4026646722    15.3739393891
Cu      8.5914027567     3.5316239422    15.3746251009
Cu      9.8201440784     5.6602407235    15.3744410430
Cu     11.0494016624     7.7879534062    15.3768853668
Cu      9.8203190193     1.4034888800    15.3759751757
Cu     11.0488338039     3.5313110311    15.3757095793
Cu     12.2771648795     5.6597465661    15.3763540407
Cu     13.5057102646     7.7884537279    15.3770008581
Cu      1.2136705147     0.6832962898    17.5696300559
Cu      2.4378837253     2.8194372962    17.5406381469
Cu      3.6607456945     4.9462010531    17.5520720768
Cu      4.8965067074     7.0748333572    17.5653532528
Cu      3.6710125526     0.6799499070    17.5687620411
Cu      4.8938359484     2.7994958534    17.5359952297
Cu      6.1291868496     4.9528630073    17.5344962103
Cu      7.3555365335     7.0775199530    17.5615518709
Cu      6.1302870608     0.6781730452    17.5636207921
Cu      7.3632144303     2.8069617608    17.5500937797
Cu      8.5971969714     4.9459090303    17.5342656888
Cu      9.8180744976     7.0734471377    17.5648507202
Cu      8.5885841857     0.6817802570    17.5622615641
Cu      9.8198194783     2.8100805147    17.5665408339
Cu     11.0468600321     4.9420503343    17.5645805696
Cu     12.2740125450     7.0698844660    17.5709532188
O       6.0796897780     3.4288348844    21.0334944056
O       7.6082446288     4.5440480492    19.2623966578
O       6.4727771457     4.3720089523    23.8746871569
C       7.1286238920     4.4673319111    21.5596819402
C       8.2298299654     4.4767813154    20.5155645762
C       7.5542589462     4.1411828853    22.9650096013
H       6.5353280685     5.3934353147    21.5305621386
H       8.8516189756     3.5599541593    20.6139553160
H       8.8979172116     5.3371867055    20.7163489152
H       8.4006383381     4.8252127250    23.1715236986
H       7.9415298916     3.1122452351    23.0417706197
H       6.5193683304     2.5913651745    20.8308152262
H       5.8327186667     3.7710062411    20.0978617206
H       6.7782999830     4.1922032945    24.7692129796
O       3.0650075047     1.7408390063    19.1632906830
H       2.3305725779     1.3572907010    19.6993647191
80
Step 4 | NEB Image 4 | Cartesian Angstrom
Ni      1.2286136659     0.7093349379    11.2499184163
Ni      2.4572481235     2.8374333050    11.2498357278
Ni      3.6859014196     4.9655603209    11.2497768706
Ni      4.9145706930     7.0936847014    11.2497875103
Ni      3.6859206844     0.7093120455    11.2498497001
Ni      4.9145775430     2.8374214741    11.2497454814
Ni      6.1432492709     4.9655618808    11.2497065125
Ni      7.3719197883     7.0936880667    11.2497599068
Ni      6.1432529706     0.7092958521    11.2498001763
Ni      7.3719310165     2.8374153761    11.2497181430
Ni      8.6006054676     4.9655561087    11.2497225021
Ni      9.8292585142     7.0936726844    11.2498045978
Ni      8.6005920746     0.7092968045    11.2498050462
Ni      9.8292723202     2.8374193767    11.2497708743
Ni     11.0579300716     4.9655476113    11.2498089100
Ni     12.2865627188     7.0936505620    11.2498805692
Ni     14.7391872693     8.5053826194    13.3010970138
Ni     11.0533435075     2.1205579061    13.3004123428
Ni     12.2819210823     4.2489839032    13.3002988390
Ni     13.5103327828     6.3773883570    13.3007792981
Ni      7.3672996559     8.5049511490    13.3007551262
Ni      3.6812606303     2.1206749964    13.3001896112
Ni      4.9098251362     4.2493782209    13.3001230882
Ni      6.1382013982     6.3776760045    13.3004112305
Ni      9.8242234437     8.5048555696    13.3007604729
Ni      6.1383703698     2.1206296497    13.3000593099
Ni      7.3669948241     4.2490539462    13.2999381586
Ni      8.5955433516     6.3769029840    13.3002974600
Ni     12.2817743122     8.5052410007    13.3004351575
Ni      8.5960207786     2.1204606223    13.3003961768
Ni      9.8246989059     4.2487127449    13.3000965298
Ni     11.0530533000     6.3770466742    13.3002774612
Cu      2.4474599237     1.4020385986    15.3758459644
Cu      3.6757789998     3.5308750969    15.3740948360
Cu      4.9037546873     5.6606369221    15.3748281586
Cu      6.1329364120     7.7887796041    15.3770987128
Cu      4.9046351831     1.4017347678    15.3758179004
Cu      6.1328041519     3.5312639851    15.3742888222
Cu      7.3613837659     5.6607043090    15.3748646477
Cu      8.5910333062     7.7876716910    15.3772675217
Cu      7.3626209514     1.4029078834    15.3742515472
Cu      8.5913637430     3.5318068980    15.3752394025
Cu      9.8200246432     5.6601818723    15.3749830933
Cu     11.0493198560     7.7878589161    15.3771068004
Cu      9.8202886614     1.4036460120    15.3762450632
Cu     11.0487154039     3.5313865986    15.3760528368
Cu     12.2770521331     5.6597220690    15.3765655290
Cu     13.5056547516     7.7884201727    15.3770809509
Cu      1.2135783392     0.6833424368    17.5693190463
Cu      2.4382094213     2.8143591010    17.5491636541
Cu      3.6652573929     4.9458582074    17.5555067613
Cu      4.8973798212     7.0732619023    17.5668224587
Cu      3.6708489210     0.6802258321    17.5685132958
Cu      4.8999826840     2.8054189601    17.5407898329
Cu      6.1266124204     4.9485630089    17.5476035033
Cu      7.3560796510     7.0760623638    17.5637803723
Cu      6.1308069940     0.6786745893    17.5634013350
Cu      7.3623071967     2.8093153881    17.5527237978
Cu      8.5979909977     4.9475256740    17.5413688597
Cu      9.8176352927     7.0725770690    17.5665447728
Cu      8.5888873463     0.6823344440    17.5627896428
Cu      9.8194939758     2.8110347326    17.5686010058
Cu     11.0459847407     4.9420609508    17.5661501838
Cu     12.2737237426     7.0697095255    17.5713186104
O       5.7549546205     2.9877513012    20.8219574099
O       7.4798880271     4.2703634150    19.0965157829
O       5.6776445604     4.2236856095    23.5573283102
C       6.5427654543     4.2110822637    21.3053536433
C       7.8116378530     4.3031715188    20.4623509960
C       6.8674084878     4.0765914507    22.7799222218
H       5.8876219295     5.0705345417    21.1170139203
H       8.4988921504     3.4713880155    20.7108215825
H       8.3348022612     5.2413315620    20.7258471132
H       7.5941509822     4.8787220359    23.0129649425
H       7.3675627187     3.1134682931    22.9734111476
H       6.2558922255     2.5752340299    20.0609070048
H       4.7531712626     3.0170582888    20.3852500537
H       5.8943429437     4.0485144222    24.4851538494
O       3.5486568903     2.4791752834    19.4785984187
H       2.8779051539     1.8436230973    19.8323629403
80
Step 5 | NEB Image 5 | Cartesian Angstrom
Ni      1.2286497034     0.7093615225    11.2499999440
Ni      2.4572989609     2.8374461750    11.2499999440
Ni      3.6859482184     4.9655308275    11.2499999440
Ni      4.9145974759     7.0936154800    11.2499999440
Ni      3.6859497034     0.7093615225    11.2499999440
Ni      4.9145989609     2.8374461750    11.2499999440
Ni      6.1432482184     4.9655308275    11.2499999440
Ni      7.3718974759     7.0936154800    11.2499999440
Ni      6.1432497034     0.7093615225    11.2499999440
Ni      7.3718989609     2.8374461750    11.2499999440
Ni      8.6005482184     4.9655308275    11.2499999440
Ni      9.8291974759     7.0936154800    11.2499999440
Ni      8.6005497034     0.7093615225    11.2499999440
Ni      9.8291989609     2.8374461750    11.2499999440
Ni     11.0578482184     4.9655308275    11.2499999440
Ni     12.2864974759     7.0936154800    11.2499999440
Ni     14.7391156794     8.5053429999    13.3011712910
Ni     11.0531329642     2.1206495503    13.3008022026
Ni     12.2817169557     4.2489790177    13.3006008466
Ni     13.5101985270     6.3773433856    13.3009432678
Ni      7.3672569131     8.5047181091    13.3011774747
Ni      3.6813641840     2.1207833643    13.3007249066
Ni      4.9098915592     4.2493198517    13.3009123494
Ni      6.1382080000     6.3774560890    13.3011137055
Ni      9.8241033938     8.5046823573    13.3010831736
Ni      6.1383369699     2.1207818321    13.3007716707
Ni      7.3668809566     4.2490234521    13.3008056810
Ni      8.5953896076     6.3767159412    13.3009509974
Ni     12.2816608204     8.5051500252    13.3006066438
Ni      8.5958457422     2.1206092019    13.3010364095
Ni      9.8244550440     4.2487038138    13.3007276120
Ni     11.0528529688     6.3769410074    13.3006611374
Cu      2.4478274055     1.4024593708    15.3768195742
Cu      3.6763308468     3.5307009057    15.3768060474
Cu      4.9041378398     5.6597275336    15.3773448005
Cu      6.1330260451     7.7878910103    15.3784795057
Cu      4.9046987540     1.4026027186    15.3777977550
Cu      6.1325026510     3.5313493756    15.3777258697
Cu      7.3610720952     5.6598451741    15.3779276123
Cu      8.5906751295     7.7868954923    15.3785351588
Cu      7.3621786280     1.4037477983    15.3762151195
Cu      8.5904727564     3.5321453644    15.3780682910
Cu      9.8190628915     5.6596863338    15.3769316534
Cu     11.0489115080     7.7874997832    15.3777154348
Cu      9.8196453802     1.4041813317    15.3774700200
Cu     11.0479045662     3.5315147704    15.3771971651
Cu     12.2765483193     5.6595852924    15.3771299176
Cu     13.5054403579     7.7883030926    15.3772814178
Cu      1.2140125591     0.6836803076    17.5697065574
Cu      2.4431555374     2.8116125893    17.5665702724
Cu      3.6705110760     4.9384343512    17.5687388115
Cu      4.8988742539     7.0688538531    17.5715929661
Cu      3.6716454744     0.6829118137    17.5713989532
Cu      4.8981418913     2.8112417067    17.5722074693
Cu      6.1274353048     4.9410331682    17.5708265763
Cu      7.3554752500     7.0698228126    17.5713297733
Cu      6.1297077779     0.6833063606    17.5689100221
Cu      7.3567237656     2.8135682139    17.5698797004
Cu      8.5851063076     4.9421568820    17.5702368079
Cu      9.8152975701     7.0699596058    17.5700617325
Cu      8.5865082080     0.6855771971    17.5667967496
Cu      9.8144914881     2.8135456562    17.5749499312
Cu     11.0427692018     4.9416447797    17.5690866435
Cu     12.2728600100     7.0692517198    17.5719744219
O       5.4816243728     2.5651691502    20.6539118200
O       7.3508896973     4.2099530947    19.0383354809
O       4.4981563510     3.9587391709    22.9072956728
C       5.9290713561     3.8945947838    20.9960208007
C       7.3297021271     4.1881915565    20.4688911028
C       5.8721709119     4.0116672750    22.5089584937
H       5.2340507257     4.6323215466    20.5533350446
H       8.0432145389     3.4244560240    20.8191443760
H       7.6571223136     5.1738780612    20.8354754738
H       6.3359933253     4.9675285031    22.8148914030
H       6.4497260984     3.1808581747    22.9509168945
H       5.8597578631     2.3152772777    19.7784701378
H       3.6583776659     2.5435355524    20.3168147116
H       4.4610770249     3.8064239805    23.8648388416
O       2.7103082747     2.5416543255    20.0177020144
H       2.4292112216     1.6097423068    20.0822731560
