80
Step 1 | NEB Image 1 | Cartesian Angstrom
Ni      1.2286497034     0.7093615225    11.2499999440
Ni      2.4572989609     2.8374461750    11.2499999440
Ni      3.6859482184     4.9655308275    11.2499999440
Ni      4.9145974759     7.0936154800    11.2499999440
Ni      3.6859497034     0.7093615225    11.2499999440
Ni      4.9145989609     2.8374461750    11.2499999440
Ni      6.1432482184     4.9655308275    11.2499999440
Ni      7.3718974759     7.0936154800    11.2499999440
Ni      6.1432497034     0.7093615225    11.2499999440
Ni      7.3718989609     2.8374461750    11.2499999440
Ni      8.6005482184     4.9655308275    11.2499999440
Ni      9.8291974759     7.0936154800    11.2499999440
Ni      8.6005497034     0.7093615225    11.2499999440
Ni      9.8291989609     2.8374461750    11.2499999440
Ni     11.0578482184     4.9655308275    11.2499999440
Ni     12.2864974759     7.0936154800    11.2499999440
Ni     14.7391156794     8.5053429999    13.3011712910
Ni     11.0531329642     2.1206495503    13.3008022026
Ni     12.2817169557     4.2489790177    13.3006008466
Ni     13.5101985270     6.3773433856    13.3009432678
Ni      7.3672569131     8.5047181091    13.3011774747
Ni      3.6813641840     2.1207833643    13.3007249066
Ni      4.9098915592     4.2493198517    13.3009123494
Ni      6.1382080000     6.3774560890    13.3011137055
Ni      9.8241033938     8.5046823573    13.3010831736
Ni      6.1383369699     2.1207818321    13.3007716707
Ni      7.3668809566     4.2490234521    13.3008056810
Ni      8.5953896076     6.3767159412    13.3009509974
Ni     12.2816608204     8.5051500252    13.3006066438
Ni      8.5958457422     2.1206092019    13.3010364095
Ni      9.8244550440     4.2487038138    13.3007276120
Ni     11.0528529688     6.3769410074    13.3006611374
Cu      2.4478274055     1.4024593708    15.3768195742
Cu      3.6763308468     3.5307009057    15.3768060474
Cu      4.9041378398     5.6597275336    15.3773448005
Cu      6.1330260451     7.7878910103    15.3784795057
Cu      4.9046987540     1.4026027186    15.3777977550
Cu      6.1325026510     3.5313493756    15.3777258697
Cu      7.3610720952     5.6598451741    15.3779276123
Cu      8.5906751295     7.7868954923    15.3785351588
Cu      7.3621786280     1.4037477983    15.3762151195
Cu      8.5904727564     3.5321453644    15.3780682910
Cu      9.8190628915     5.6596863338    15.3769316534
Cu     11.0489115080     7.7874997832    15.3777154348
Cu      9.8196453802     1.4041813317    15.3774700200
Cu     11.0479045662     3.5315147704    15.3771971651
Cu     12.2765483193     5.6595852924    15.3771299176
Cu     13.5054403579     7.7883030926    15.3772814178
Cu      1.2140125591     0.6836803076    17.5697065574
Cu      2.4431555374     2.8116125893    17.5665702724
Cu      3.6705110760     4.9384343512    17.5687388115
Cu      4.8988742539     7.0688538531    17.5715929661
Cu      3.6716454744     0.6829118137    17.5713989532
Cu      4.8981418913     2.8112417067    17.5722074693
Cu      6.1274353048     4.9410331682    17.5708265763
Cu      7.3554752500     7.0698228126    17.5713297733
Cu      6.1297077779     0.6833063606    17.5689100221
Cu      7.3567237656     2.8135682139    17.5698797004
Cu      8.5851063076     4.9421568820    17.5702368079
Cu      9.8152975701     7.0699596058    17.5700617325
Cu      8.5865082080     0.6855771971    17.5667967496
Cu      9.8144914881     2.8135456562    17.5749499312
Cu     11.0427692018     4.9416447797    17.5690866435
Cu     12.2728600100     7.0692517198    17.5719744219
O       7.2288202015     4.2734569284    22.3446828621
O       8.3044696405     5.3171068409    20.0014702420
O       8.8891638945     4.8479579810    24.7349733808
C       8.5251333110     4.9000290628    22.3715153937
C       9.1804211035     4.7744357207    20.9993344800
C       9.4189460410     4.3898719266    23.4895992517
H       8.3072385962     5.9614198807    22.5605187870
H       9.4153356173     3.7172718747    20.7683620669
H      10.1139922737     5.3503076003    20.9408546493
H      10.4461642949     4.7683945991    23.3275539960
H       9.4595638267     3.2836247445    23.4537018323
H       7.3561498138     3.3073831923    22.3295378714
H       7.4071380143     4.9636379387    20.1831718691
H       9.4432595602     4.5017937719    25.4528614775
O       2.4447775074     1.3898406800    19.0162048647
H       2.5328987835     1.2730973609    19.9764139723
80
Step 2 | NEB Image 2 | Cartesian Angstrom
Ni      1.2286130765     0.7093358794    11.2499277510
Ni      2.4572447482     2.8374311079    11.2498535917
Ni      3.6858901991     4.9655516914    11.2497943454
Ni      4.9145561375     7.0936761403    11.2497940200
Ni      3.6859156974     0.7093136407    11.2498686404
Ni      4.9145636560     2.8374152926    11.2497682874
Ni      6.1432295037     4.9655506623    11.2497161658
Ni      7.3719031114     7.0936806223    11.2497573084
Ni      6.1432392785     0.7092954021    11.2498206899
Ni      7.3719102057     2.8374065375    11.2497315219
Ni      8.6005861665     4.9655464698    11.2497211393
Ni      9.8292454952     7.0936678858    11.2497950777
Ni      8.6005749971     0.7092937353    11.2498158027
Ni      9.8292540456     2.8374116793    11.2497714193
Ni     11.0579170139     4.9655414909    11.2497996577
Ni     12.2865563200     7.0936486058    11.2498690873
Ni     14.7391881537     8.5053851243    13.3010813002
Ni     11.0533047169     2.1205392856    13.3004000098
Ni     12.2819016600     4.2489702377    13.3002654294
Ni     13.5103292965     6.3773862522    13.3007496803
Ni      7.3672633234     8.5049415993    13.3007409312
Ni      3.6812542365     2.1206796343    13.3002742192
Ni      4.9097637253     4.2493355354    13.3001915583
Ni      6.1381422104     6.3776470555    13.3004100254
Ni      9.8241987258     8.5048537922    13.3007306827
Ni      6.1383085105     2.1206097862    13.3001424786
Ni      7.3669256374     4.2490103774    13.2999531055
Ni      8.5954949328     6.3768803815    13.3002744025
Ni     12.2817670871     8.5052442903    13.3004070363
Ni      8.5959552954     2.1204371868    13.3004259241
Ni      9.8246448610     4.2486859468    13.3000806836
Ni     11.0530266839     6.3770369167    13.3002389753
Cu      2.4475459182     1.4021106286    15.3758459051
Cu      3.6758456684     3.5307948706    15.3747237815
Cu      4.9033524728     5.6604644218    15.3748489042
Cu      6.1327768307     7.7887517232    15.3770551481
Cu      4.9045512289     1.4019209975    15.3763762647
Cu      6.1323346704     3.5308819292    15.3744915179
Cu      7.3612186106     5.6605785062    15.3747047607
Cu      8.5909049925     7.7876504709    15.3771525130
Cu      7.3623338669     1.4028637782    15.3745184154
Cu      8.5910758640     3.5316581319    15.3753023951
Cu      9.8198157935     5.6600813314    15.3748692230
Cu     11.0492862352     7.7878782686    15.3769671630
Cu      9.8200993685     1.4035852337    15.3762634683
Cu     11.0485947781     3.5313087844    15.3759144353
Cu     12.2770422632     5.6597112743    15.3764133636
Cu     13.5056662172     7.7884349399    15.3770134725
Cu      1.2129226892     0.6827026232    17.5686397003
Cu      2.4404125841     2.8225620260    17.5459138327
Cu      3.6648575826     4.9416071003    17.5610505583
Cu      4.8962122760     7.0731322444    17.5668460088
Cu      3.6727086261     0.6801403406    17.5682574272
Cu      4.8947661697     2.8055467945    17.5565466326
Cu      6.1233514434     4.9489411131    17.5352456703
Cu      7.3549842238     7.0760295891    17.5630336610
Cu      6.1296466543     0.6801056959    17.5658494947
Cu      7.3604336494     2.8060339984    17.5533027991
Cu      8.5918901948     4.9435098389    17.5437876288
Cu      9.8172797949     7.0729443248    17.5651571367
Cu      8.5876241726     0.6826003025    17.5635337664
Cu      9.8181464092     2.8104225643    17.5678172592
Cu     11.0460788982     4.9418410291    17.5645112740
Cu     12.2738729644     7.0698523071    17.5708841825
O       6.5047021031     3.7533923917    21.7509837247
O       7.7066077361     4.8774205177    19.6820514717
O       7.4950197071     4.5976797632    24.3850657912
C       7.6455795737     4.5939258066    22.0188740024
C       8.5536872624     4.5782424938    20.7988627763
C       8.3614932733     4.2524866060    23.3070001509
H       7.2141773102     5.6022785365    22.1115367890
H       9.0375058664     3.5907243437    20.6533934072
H       9.3335077717     5.3455426031    20.8213277608
H       9.3052370875     4.8294427844    23.3432472984
H       8.6197390812     3.1779622520    23.3119524616
H       6.8205956114     2.8356902276    21.6133239158
H       6.8423587326     4.4285427821    19.8749906285
H       7.8908307055     4.2818159050    25.2198492350
O       2.4603724327     1.4247472054    18.9995909512
H       2.4954940931     1.3517776119    19.9727264580
80
Step 3 | NEB Image 3 | Cartesian Angstrom
Ni      1.2286019277     0.7093261286    11.2499020394
Ni      2.4572297310     2.8374258493    11.2497960181
Ni      3.6858816511     4.9655636256    11.2497181866
Ni      4.9145567738     7.0936999947    11.2497307088
Ni      3.6859088185     0.7092968286    11.2498194554
Ni      4.9145645350     2.8374089301    11.2496852916
Ni      6.1432410972     4.9655637608    11.2496314987
Ni      7.3719181947     7.0937027262    11.2496968532
Ni      6.1432465275     0.7092767373    11.2497604038
Ni      7.3719293623     2.8374014059    11.2496536590
Ni      8.6006105664     4.9655564831    11.2496538350
Ni      9.8292669712     7.0936835425    11.2497528434
Ni      8.6005931906     0.7092787833    11.2497649010
Ni      9.8292802067     2.8374082115    11.2497175246
Ni     11.0579424727     4.9655477323    11.2497596616
Ni     12.2865745988     7.0936573055    11.2498470031
Ni     14.7392038370     8.5053924743    13.3010724660
Ni     11.0533695219     2.1205261034    13.3003170732
Ni     12.2819570133     4.2489769761    13.3002123618
Ni     13.5103614397     6.3773969492    13.3007268170
Ni      7.3672937938     8.5050056404    13.3006411983
Ni      3.6812190867     2.1206321269    13.3000732305
Ni      4.9097763771     4.2493694015    13.2999123954
Ni      6.1381764815     6.3777229330    13.3002158182
Ni      9.8242400131     8.5048956457    13.3006675072
Ni      6.1383499499     2.1205688616    13.2999088746
Ni      7.3669952776     4.2490362898    13.2997225862
Ni      8.5955577544     6.3769357180    13.3001250605
Ni     12.2817971459     8.5052632649    13.3003809727
Ni      8.5960281700     2.1204099128    13.3002621057
Ni      9.8247274525     4.2486978980    13.2999404538
Ni     11.0530865989     6.3770651354    13.3001673492
Cu      2.4473696767     1.4019022319    15.3756448548
Cu      3.6755519030     3.5308322037    15.3734382342
Cu      4.9034596519     5.6608704189    15.3739711330
Cu      6.1328468325     7.7890107481    15.3767111786
Cu      4.9045301536     1.4014878865    15.3755228541
Cu      6.1327212754     3.5310142359    15.3733273895
Cu      7.3614059481     5.6608560314    15.3740030043
Cu      8.5910530767     7.7878486261    15.3768955896
Cu      7.3625804426     1.4026656413    15.3739382763
Cu      8.5914047501     3.5316255134    15.3746262783
Cu      9.8201452818     5.6602412992    15.3744433165
Cu     11.0494016894     7.7879530135    15.3768869740
Cu      9.8203203175     1.4034897414    15.3759757605
Cu     11.0488343673     3.5313117993    15.3757115020
Cu     12.2771646511     5.6597465794    15.3763557126
Cu     13.5057100332     7.7884535309    15.3770015631
Cu      1.2136750459     0.6833010741    17.5696341769
Cu      2.4378685418     2.8193640065    17.5406845335
Cu      3.6607606254     4.9462311113    17.5520408366
Cu      4.8965175394     7.0748301158    17.5653569948
Cu      3.6709985678     0.6799512648    17.5687632426
Cu      4.8938903269     2.7995106998    17.5358932052
Cu      6.1292037498     4.9528487984    17.5346211582
Cu      7.3555459609     7.0775163091    17.5615632473
Cu      6.1302968995     0.6781639548    17.5636023714
Cu      7.3632256634     2.8069919369    17.5500965671
Cu      8.5972435339     4.9459425940    17.5342669881
Cu      9.8180759176     7.0734421444    17.5648653424
Cu      8.5885941961     0.6817797963    17.5622575494
Cu      9.8198284289     2.8100875165    17.5665520317
Cu     11.0468570145     4.9420519648    17.5645966910
Cu     12.2740106885     7.0698829598    17.5709573571
O       6.0772391872     3.4153249394    21.0828207330
O       7.6352600708     4.5844501133    19.2803869898
O       6.4751216696     4.3993474912    23.8878001406
C       7.1249132605     4.4717029645    21.5755702185
C       8.2329365845     4.4736194580    20.5365712693
C       7.5538117645     4.1636583394    22.9897953793
H       6.5270608217     5.3853480636    21.5327113758
H       8.8371268748     3.5446090618    20.6294192018
H       8.9170304280     5.3144625802    20.7757908079
H       8.3976478036     4.8586983008    23.1821060767
H       7.9534171158     3.1403979174    23.0755933178
H       6.5340015967     2.5775231756    20.8371674043
H       5.7469318573     3.7425693073    20.1704146788
H       6.7749579970     4.1781423868    24.7970981489
O       2.9882647010     1.8096776715    19.2031987357
H       2.3401097385     1.3501699702    19.7671608204
80
Step 4 | NEB Image 4 | Cartesian Angstrom
Ni      1.2286148086     0.7093357954    11.2499200097
Ni      2.4572499143     2.8374340310    11.2498395918
Ni      3.6859033449     4.9655599999    11.2497825818
Ni      4.9145720492     7.0936832134    11.2497930391
Ni      3.6859218399     0.7093135266    11.2498526427
Ni      4.9145788104     2.8374226957    11.2497513386
Ni      6.1432500682     4.9655616988    11.2497138139
Ni      7.3719199448     7.0936866403    11.2497660451
Ni      6.1432535990     0.7092977128    11.2498040462
Ni      7.3719311793     2.8374167368    11.2497244191
Ni      8.6006049729     4.9655560731    11.2497291866
Ni      9.8292576921     7.0936716278    11.2498096367
Ni      8.6005919674     0.7092985591    11.2498089532
Ni      9.8292715540     2.8374204643    11.2497760676
Ni     11.0579288656     4.9655476000    11.2498137049
Ni     12.2865615629     7.0936499058    11.2498838377
Ni     14.7391856565     8.5053816599    13.3010994048
Ni     11.0533409784     2.1205610036    13.3004216179
Ni     12.2819175863     4.2489845786    13.3003072600
Ni     13.5103299935     6.3773875207    13.3007844095
Ni      7.3673002296     8.5049458453    13.3007662178
Ni      3.6812646750     2.1206791691    13.3002009331
Ni      4.9098298879     4.2493790831    13.3001435923
Ni      6.1382038289     6.3776714387    13.3004302531
Ni      9.8242218328     8.5048516686    13.3007695252
Ni      6.1383723629     2.1206355688    13.3000739470
Ni      7.3669947859     4.2490556687    13.2999591424
Ni      8.5955419538     6.3768997995    13.3003142443
Ni     12.2817720901     8.5052388331    13.3004404346
Ni      8.5960200648     2.1204655607    13.3004092255
Ni      9.8246961317     4.2487141925    13.3001117244
Ni     11.0530500608     6.3770448779    13.3002881834
Cu      2.4474687015     1.4020518670    15.3758655415
Cu      3.6758011010     3.5308792793    15.3741586991
Cu      4.9037834423     5.6606142071    15.3749115845
Cu      6.1329451459     7.7887571057    15.3771364413
Cu      4.9046454145     1.4017587846    15.3758465738
Cu      6.1328122600     3.5312883300    15.3743823959
Cu      7.3613816208     5.6606895503    15.3749485387
Cu      8.5910313927     7.7876544689    15.3773037375
Cu      7.3626249195     1.4029314684    15.3742820198
Cu      8.5913597759     3.5318245678    15.3752990819
Cu      9.8200129176     5.6601760960    15.3750356480
Cu     11.0493118927     7.7878497545    15.3771282116
Cu      9.8202855961     1.4036612295    15.3762712770
Cu     11.0487038337     3.5313938867    15.3760860762
Cu     12.2770411808     5.6597196840    15.3765859667
Cu     13.5056493692     7.7884169242    15.3770886847
Cu      1.2135689817     0.6833465184    17.5692884283
Cu      2.4382424147     2.8138711895    17.5499893385
Cu      3.6656951677     4.9458222729    17.5558436763
Cu      4.8974638610     7.0731092549    17.5669651130
Cu      3.6708341935     0.6802525673    17.5684889867
Cu      4.9005761970     2.8059940920    17.5412651413
Cu      6.1263604468     4.9481457739    17.5488683406
Cu      7.3561316977     7.0759208315    17.5639962638
Cu      6.1308567493     0.6787241741    17.5633815543
Cu      7.3622179494     2.8095418482    17.5529794972
Cu      8.5980642851     4.9476801256    17.5420599871
Cu      9.8175924304     7.0724928262    17.5667083774
Cu      8.5889159919     0.6823884136    17.5628413757
Cu      9.8194615343     2.8111269926    17.5688005318
Cu     11.0458998207     4.9420618445    17.5663015505
Cu     12.2736957968     7.0696926302    17.5713538142
O       5.7394270331     2.9782128279    20.8478609886
O       7.4858226435     4.2901109243    19.1125709673
O       5.6356350001     4.2338277205    23.5457820661
C       6.5423113725     4.2217085805    21.3181030980
C       7.8101439478     4.3013336590    20.4755521855
C       6.8403646077     4.0968244560    22.7963394210
H       5.8803817872     5.0690978794    21.1086694430
H       8.4925439035     3.4634389510    20.7216077584
H       8.3382926336     5.2322952582    20.7630235201
H       7.5540978673     4.9118814590    23.0362679111
H       7.3532043360     3.1429376435    23.0068443633
H       6.2402747660     2.5230159877    20.1085272274
H       4.7900627337     3.0768372635    20.4261176669
H       5.8240891242     4.0274618710    24.4756758302
O       3.3120004921     2.4204632552    19.4568128538
H       2.7128875925     1.7493218365    19.8538389380
80
Step 5 | NEB Image 5 | Cartesian Angstrom
Ni      1.2286497034     0.7093615225    11.2499999440
Ni      2.4572989609     2.8374461750    11.2499999440
Ni      3.6859482184     4.9655308275    11.2499999440
Ni      4.9145974759     7.0936154800    11.2499999440
Ni      3.6859497034     0.7093615225    11.2499999440
Ni      4.9145989609     2.8374461750    11.2499999440
Ni      6.1432482184     4.9655308275    11.2499999440
Ni      7.3718974759     7.0936154800    11.2499999440
Ni      6.1432497034     0.7093615225    11.2499999440
Ni      7.3718989609     2.8374461750    11.2499999440
Ni      8.6005482184     4.9655308275    11.2499999440
Ni      9.8291974759     7.0936154800    11.2499999440
Ni      8.6005497034     0.7093615225    11.2499999440
Ni      9.8291989609     2.8374461750    11.2499999440
Ni     11.0578482184     4.9655308275    11.2499999440
Ni     12.2864974759     7.0936154800    11.2499999440
Ni     14.7391156794     8.5053429999    13.3011712910
Ni     11.0531329642     2.1206495503    13.3008022026
Ni     12.2817169557     4.2489790177    13.3006008466
Ni     13.5101985270     6.3773433856    13.3009432678
Ni      7.3672569131     8.5047181091    13.3011774747
Ni      3.6813641840     2.1207833643    13.3007249066
Ni      4.9098915592     4.2493198517    13.3009123494
Ni      6.1382080000     6.3774560890    13.3011137055
Ni      9.8241033938     8.5046823573    13.3010831736
Ni      6.1383369699     2.1207818321    13.3007716707
Ni      7.3668809566     4.2490234521    13.3008056810
Ni      8.5953896076     6.3767159412    13.3009509974
Ni     12.2816608204     8.5051500252    13.3006066438
Ni      8.5958457422     2.1206092019    13.3010364095
Ni      9.8244550440     4.2487038138    13.3007276120
Ni     11.0528529688     6.3769410074    13.3006611374
Cu      2.4478274055     1.4024593708    15.3768195742
Cu      3.6763308468     3.5307009057    15.3768060474
Cu      4.9041378398     5.6597275336    15.3773448005
Cu      6.1330260451     7.7878910103    15.3784795057
Cu      4.9046987540     1.4026027186    15.3777977550
Cu      6.1325026510     3.5313493756    15.3777258697
Cu      7.3610720952     5.6598451741    15.3779276123
Cu      8.5906751295     7.7868954923    15.3785351588
Cu      7.3621786280     1.4037477983    15.3762151195
Cu      8.5904727564     3.5321453644    15.3780682910
Cu      9.8190628915     5.6596863338    15.3769316534
Cu     11.0489115080     7.7874997832    15.3777154348
Cu      9.8196453802     1.4041813317    15.3774700200
Cu     11.0479045662     3.5315147704    15.3771971651
Cu     12.2765483193     5.6595852924    15.3771299176
Cu     13.5054403579     7.7883030926    15.3772814178
Cu      1.2140125591     0.6836803076    17.5697065574
Cu      2.4431555374     2.8116125893    17.5665702724
Cu      3.6705110760     4.9384343512    17.5687388115
Cu      4.8988742539     7.0688538531    17.5715929661
Cu      3.6716454744     0.6829118137    17.5713989532
Cu      4.8981418913     2.8112417067    17.5722074693
Cu      6.1274353048     4.9410331682    17.5708265763
Cu      7.3554752500     7.0698228126    17.5713297733
Cu      6.1297077779     0.6833063606    17.5689100221
Cu      7.3567237656     2.8135682139    17.5698797004
Cu      8.5851063076     4.9421568820    17.5702368079
Cu      9.8152975701     7.0699596058    17.5700617325
Cu      8.5865082080     0.6855771971    17.5667967496
Cu      9.8144914881     2.8135456562    17.5749499312
Cu     11.0427692018     4.9416447797    17.5690866435
Cu     12.2728600100     7.0692517198    17.5719744219
O       5.4816243728     2.5651691502    20.6539118200
O       7.3508896973     4.2099530947    19.0383354809
O       4.4981563510     3.9587391709    22.9072956728
C       5.9290713561     3.8945947838    20.9960208007
C       7.3297021271     4.1881915565    20.4688911028
C       5.8721709119     4.0116672750    22.5089584937
H       5.2340507257     4.6323215466    20.5533350446
H       8.0432145389     3.4244560240    20.8191443760
H       7.6571223136     5.1738780612    20.8354754738
H       6.3359933253     4.9675285031    22.8148914030
H       6.4497260984     3.1808581747    22.9509168945
H       5.8597578631     2.3152772777    19.7784701378
H       3.6583776659     2.5435355524    20.3168147116
H       4.4610770249     3.8064239805    23.8648388416
O       2.7103082747     2.5416543255    20.0177020144
H       2.4292112216     1.6097423068    20.0822731560
