80
Step 1 | NEB Image 1 | Cartesian Angstrom
Ni      1.2286497034     0.7093615225    11.2499999440
Ni      2.4572989609     2.8374461750    11.2499999440
Ni      3.6859482184     4.9655308275    11.2499999440
Ni      4.9145974759     7.0936154800    11.2499999440
Ni      3.6859497034     0.7093615225    11.2499999440
Ni      4.9145989609     2.8374461750    11.2499999440
Ni      6.1432482184     4.9655308275    11.2499999440
Ni      7.3718974759     7.0936154800    11.2499999440
Ni      6.1432497034     0.7093615225    11.2499999440
Ni      7.3718989609     2.8374461750    11.2499999440
Ni      8.6005482184     4.9655308275    11.2499999440
Ni      9.8291974759     7.0936154800    11.2499999440
Ni      8.6005497034     0.7093615225    11.2499999440
Ni      9.8291989609     2.8374461750    11.2499999440
Ni     11.0578482184     4.9655308275    11.2499999440
Ni     12.2864974759     7.0936154800    11.2499999440
Ni     14.7391156794     8.5053429999    13.3011712910
Ni     11.0531329642     2.1206495503    13.3008022026
Ni     12.2817169557     4.2489790177    13.3006008466
Ni     13.5101985270     6.3773433856    13.3009432678
Ni      7.3672569131     8.5047181091    13.3011774747
Ni      3.6813641840     2.1207833643    13.3007249066
Ni      4.9098915592     4.2493198517    13.3009123494
Ni      6.1382080000     6.3774560890    13.3011137055
Ni      9.8241033938     8.5046823573    13.3010831736
Ni      6.1383369699     2.1207818321    13.3007716707
Ni      7.3668809566     4.2490234521    13.3008056810
Ni      8.5953896076     6.3767159412    13.3009509974
Ni     12.2816608204     8.5051500252    13.3006066438
Ni      8.5958457422     2.1206092019    13.3010364095
Ni      9.8244550440     4.2487038138    13.3007276120
Ni     11.0528529688     6.3769410074    13.3006611374
Cu      2.4478274055     1.4024593708    15.3768195742
Cu      3.6763308468     3.5307009057    15.3768060474
Cu      4.9041378398     5.6597275336    15.3773448005
Cu      6.1330260451     7.7878910103    15.3784795057
Cu      4.9046987540     1.4026027186    15.3777977550
Cu      6.1325026510     3.5313493756    15.3777258697
Cu      7.3610720952     5.6598451741    15.3779276123
Cu      8.5906751295     7.7868954923    15.3785351588
Cu      7.3621786280     1.4037477983    15.3762151195
Cu      8.5904727564     3.5321453644    15.3780682910
Cu      9.8190628915     5.6596863338    15.3769316534
Cu     11.0489115080     7.7874997832    15.3777154348
Cu      9.8196453802     1.4041813317    15.3774700200
Cu     11.0479045662     3.5315147704    15.3771971651
Cu     12.2765483193     5.6595852924    15.3771299176
Cu     13.5054403579     7.7883030926    15.3772814178
Cu      1.2140125591     0.6836803076    17.5697065574
Cu      2.4431555374     2.8116125893    17.5665702724
Cu      3.6705110760     4.9384343512    17.5687388115
Cu      4.8988742539     7.0688538531    17.5715929661
Cu      3.6716454744     0.6829118137    17.5713989532
Cu      4.8981418913     2.8112417067    17.5722074693
Cu      6.1274353048     4.9410331682    17.5708265763
Cu      7.3554752500     7.0698228126    17.5713297733
Cu      6.1297077779     0.6833063606    17.5689100221
Cu      7.3567237656     2.8135682139    17.5698797004
Cu      8.5851063076     4.9421568820    17.5702368079
Cu      9.8152975701     7.0699596058    17.5700617325
Cu      8.5865082080     0.6855771971    17.5667967496
Cu      9.8144914881     2.8135456562    17.5749499312
Cu     11.0427692018     4.9416447797    17.5690866435
Cu     12.2728600100     7.0692517198    17.5719744219
O       7.2288202015     4.2734569284    22.3446828621
O       8.3044696405     5.3171068409    20.0014702420
O       8.8891638945     4.8479579810    24.7349733808
C       8.5251333110     4.9000290628    22.3715153937
C       9.1804211035     4.7744357207    20.9993344800
C       9.4189460410     4.3898719266    23.4895992517
H       8.3072385962     5.9614198807    22.5605187870
H       9.4153356173     3.7172718747    20.7683620669
H      10.1139922737     5.3503076003    20.9408546493
H      10.4461642949     4.7683945991    23.3275539960
H       9.4595638267     3.2836247445    23.4537018323
H       7.3561498138     3.3073831923    22.3295378714
H       7.4071380143     4.9636379387    20.1831718691
H       9.4432595602     4.5017937719    25.4528614775
O       2.4447775074     1.3898406800    19.0162048647
H       2.5328987835     1.2730973609    19.9764139723
80
Step 2 | NEB Image 2 | Cartesian Angstrom
Ni      1.2286129842     0.7093357981    11.2499275340
Ni      2.4572446249     2.8374310651    11.2498531071
Ni      3.6858901324     4.9655517937    11.2497937067
Ni      4.9145561484     7.0936763416    11.2497934920
Ni      3.6859156422     0.7093135006    11.2498682250
Ni      4.9145636686     2.8374152422    11.2497675898
Ni      6.1432296074     4.9655507753    11.2497154594
Ni      7.3719032430     7.0936808086    11.2497568077
Ni      6.1432393439     0.7092952473    11.2498201817
Ni      7.3719103726     2.8374064983    11.2497308706
Ni      8.6005863764     4.9655465566    11.2497205812
Ni      9.8292456784     7.0936680175    11.2497947308
Ni      8.6005751547     0.7092936124    11.2498153761
Ni      9.8292542697     2.8374116534    11.2497709718
Ni     11.0579172302     4.9655415451    11.2497993292
Ni     12.2865564741     7.0936486787    11.2498689084
Ni     14.7391882835     8.5053851843    13.3010812329
Ni     11.0533052696     2.1205391833    13.3003993262
Ni     12.2819021268     4.2489702988    13.3002650018
Ni     13.5103295646     6.3773863418    13.3007495018
Ni      7.3672635902     8.5049421344    13.3007401089
Ni      3.6812539472     2.1206792382    13.3002725187
Ni      4.9097638538     4.2493358328    13.3001892152
Ni      6.1381425175     6.3776476963    13.3004084140
Ni      9.8241990779     8.5048541402    13.3007301698
Ni      6.1383088780     2.1206094541    13.3001405080
Ni      7.3669262418     4.2490106091    13.2999511866
Ni      8.5954954726     6.3768808494    13.3002731719
Ni     12.2817673394     8.5052444466    13.3004068307
Ni      8.5959559253     2.1204369694    13.3004245531
Ni      9.8246455672     4.2486860562    13.3000795258
Ni     11.0530271913     6.3770371546    13.3002383955
Cu      2.4475444226     1.4021088715    15.3758442365
Cu      3.6758432048     3.5307952110    15.3747128719
Cu      4.9033535160     5.6604678572    15.3748416112
Cu      6.1327774727     7.7887538837    15.3770523100
Cu      4.9045510860     1.4019173317    15.3763689685
Cu      6.1323380583     3.5308831732    15.3744817788
Cu      7.3612202285     5.6605808576    15.3746989976
Cu      8.5909062705     7.7876521236    15.3771504246
Cu      7.3623360230     1.4028621507    15.3745134986
Cu      8.5910787036     3.5316579180    15.3752967596
Cu      9.8198186078     5.6600826974    15.3748657317
Cu     11.0492872062     7.7878788816    15.3769665508
Cu      9.8201012746     1.4035844644    15.3762610735
Cu     11.0485968127     3.5313088391    15.3759128039
Cu     12.2770432828     5.6597115714    15.3764129433
Cu     13.5056665765     7.7884350886    15.3770133994
Cu      1.2129291838     0.6827078344    17.5686482135
Cu      2.4403906283     2.8225323506    17.5458716737
Cu      3.6648237327     4.9416471011    17.5609736645
Cu      4.8962152556     7.0731463854    17.5668336418
Cu      3.6726937231     0.6801388040    17.5682617230
Cu      4.8947608934     2.8054966492    17.5563692008
Cu      6.1234012602     4.9489734004    17.5352452079
Cu      7.3549893044     7.0760419406    17.5630217425
Cu      6.1296524942     0.6800890337    17.5658299096
Cu      7.3604575373     2.8060432023    17.5532759678
Cu      8.5919369552     4.9435315636    17.5437076885
Cu      9.8172865381     7.0729483162    17.5651552450
Cu      8.5876327059     0.6825933912    17.5635228902
Cu      9.8181608838     2.8104200174    17.5678070578
Cu     11.0460853201     4.9418428637    17.5645126090
Cu     12.2738740505     7.0698525069    17.5708849558
O       6.5060716431     3.7336592531    21.7764777349
O       7.7387255366     4.9382754739    19.7141526145
O       7.4997474335     4.5613501828    24.4511371809
C       7.6473245030     4.5837497192    22.0554338841
C       8.5534765254     4.5878462893    20.8411276071
C       8.3646364942     4.2354351645    23.3297153823
H       7.2050157230     5.5948171783    22.1644580520
H       9.0313670437     3.6059809509    20.6754591787
H       9.3481533220     5.3545596569    20.8945587323
H       9.3040680698     4.8099618007    23.3822157830
H       8.6210192560     3.1561402474    23.3369277889
H       6.8160277629     2.8325373366    21.6721450419
H       6.8907345399     4.4511118291    19.8347423386
H       7.9077658640     4.2737741423    25.2487976931
O       2.4334011503     1.4073087819    18.9815374044
H       2.5039468479     1.3624351385    19.9847165638
80
Step 3 | NEB Image 3 | Cartesian Angstrom
Ni      1.2286019184     0.7093261818    11.2499024683
Ni      2.4572296097     2.8374257640    11.2497968504
Ni      3.6858811905     4.9655632456    11.2497190283
Ni      4.9145561599     7.0936996011    11.2497310709
Ni      3.6859086181     0.7092969192    11.2498203214
Ni      4.9145639490     2.8374086786    11.2496863674
Ni      6.1432402486     4.9655632702    11.2496320229
Ni      7.3719174714     7.0937023820    11.2496968278
Ni      6.1432459408     0.7092767443    11.2497613515
Ni      7.3719284592     2.8374010408    11.2496543306
Ni      8.6006097197     4.9655560632    11.2496538711
Ni      9.8292663931     7.0936833187    11.2497525012
Ni      8.6005924461     0.7092786748    11.2497654247
Ni      9.8292794007     2.8374078922    11.2497176224
Ni     11.0579418874     4.9655474659    11.2497593275
Ni     12.2865743039     7.0936572110    11.2498465503
Ni     14.7392038525     8.5053925696    13.3010718165
Ni     11.0533677982     2.1205253375    13.3003166691
Ni     12.2819561184     4.2489763913    13.3002110285
Ni     13.5103612482     6.3773968457    13.3007256015
Ni      7.3672922214     8.5050051493    13.3006407391
Ni      3.6812188663     2.1206323882    13.3000770729
Ni      4.9097737733     4.2493675568    13.2999156669
Ni      6.1381739412     6.3777216084    13.3002160373
Ni      9.8242389148     8.5048955127    13.3006663404
Ni      6.1383472872     2.1205680820    13.2999127017
Ni      7.3669922672     4.2490344190    13.2997235360
Ni      8.5955556280     6.3769346892    13.3001242970
Ni     12.2817967999     8.5052633771    13.3003798246
Ni      8.5960253110     2.1204089637    13.3002635861
Ni      9.8247250617     4.2486967528    13.2999399813
Ni     11.0530853948     6.3770646852    13.3001658279
Cu      2.4473735431     1.4019055549    15.3756451316
Cu      3.6755551188     3.5308287732    15.3734665075
Cu      4.9034425643     5.6608625901    15.3739732264
Cu      6.1328400147     7.7890092140    15.3767098219
Cu      4.9045266473     1.4014963310    15.3755475546
Cu      6.1327009667     3.5309979623    15.3733375433
Cu      7.3613987325     5.6608503478    15.3739972460
Cu      8.5910474672     7.7878474571    15.3768911032
Cu      7.3625680099     1.4026640592    15.3739503212
Cu      8.5913921696     3.5316192937    15.3746298706
Cu      9.8201360286     5.6602368428    15.3744391129
Cu     11.0494001131     7.7879537246    15.3768812048
Cu      9.8203120387     1.4034873145    15.3759769354
Cu     11.0488289544     3.5313085181    15.3757059554
Cu     12.2771640653     5.6597460758    15.3763493845
Cu     13.5057104551     7.7884541270    15.3769987379
Cu      1.2136463889     0.6832732978    17.5696041854
Cu      2.4379648595     2.8197139034    17.5405549387
Cu      3.6607494809     4.9460456575    17.5522868241
Cu      4.8964679459     7.0748222962    17.5653600556
Cu      3.6710792625     0.6799479272    17.5687517642
Cu      4.8936718587     2.7995244707    17.5365854762
Cu      6.1290582870     4.9528592918    17.5341015955
Cu      7.3554990482     7.0775128630    17.5615338439
Cu      6.1302471301     0.6782269217    17.5637085942
Cu      7.3631428824     2.8068524153    17.5501254060
Cu      8.5969791697     4.9457700932    17.5343820799
Cu      9.8180598402     7.0734569190    17.5648073098
Cu      8.5885396517     0.6817921326    17.5622906603
Cu      9.8197693411     2.8100622016    17.5665207836
Cu     11.0468598986     4.9420424100    17.5645275522
Cu     12.2740167814     7.0698889302    17.5709389602
O       6.0783478321     3.5250256353    21.0333003967
O       7.5992167173     4.5380160043    19.2784583852
O       6.5061542073     4.3787261402    23.8237319111
C       7.1544440507     4.4855865757    21.5721234633
C       8.2573944370     4.4829138536    20.5157189187
C       7.5941958738     4.1252480292    22.9826472809
H       6.5843515812     5.4070359925    21.5602971212
H       8.8815620951     3.5774957935    20.6097142438
H       8.9159130970     5.3564087864    20.6953403924
H       8.4537680196     4.7998147053    23.1747316792
H       7.9681828941     3.0974877092    23.0304760254
H       6.5265683235     2.5597217177    20.8815372817
H       5.9819595020     3.8110614934    20.0566920566
H       6.8647206480     4.1865615629    24.8406017092
O       3.0261694107     1.7276603299    19.1572748138
H       2.3137754025     1.3371697521    19.7045246790
80
Step 4 | NEB Image 4 | Cartesian Angstrom
Ni      1.2286115681     0.7093333681    11.2499155224
Ni      2.4572448287     2.8374319667    11.2498286953
Ni      3.6858978538     4.9655608831    11.2497664491
Ni      4.9145681608     7.0936874044    11.2497773895
Ni      3.6859185497     0.7093093337    11.2498443611
Ni      4.9145751756     2.8374192144    11.2497348081
Ni      6.1432477477     4.9655621803    11.2496931500
Ni      7.3719194500     7.0936906601    11.2497486403
Ni      6.1432517760     0.7092924377    11.2497931411
Ni      7.3719306540     2.8374128532    11.2497066727
Ni      8.6006063158     4.9655561445    11.2497102373
Ni      9.8292599822     7.0936746076    11.2497953265
Ni      8.6005922188     0.7092935770    11.2497979130
Ni      9.8292736694     2.8374173584    11.2497613506
Ni     11.0579322437     4.9655476132    11.2498000870
Ni     12.2865648193     7.0936517598    11.2498745390
Ni     14.7391902303     8.5053843871    13.3010925802
Ni     11.0533480272     2.1205521677    13.3003952928
Ni     12.2819274351     4.2489826223    13.3002832909
Ni     13.5103378882     6.3773898843    13.3007698322
Ni      7.3672984920     8.5049608475    13.3007347388
Ni      3.6812531922     2.1206673571    13.3001691045
Ni      4.9098162323     4.2493765085    13.3000856902
Ni      6.1381967585     6.3776842901    13.3003763361
Ni      9.8242263224     8.5048627194    13.3007437779
Ni      6.1383665243     2.1206187320    13.3000327182
Ni      7.3669946820     4.2490506531    13.2998997168
Ni      8.5955457671     6.3769087557    13.3002666040
Ni     12.2817783658     8.5052449865    13.3004253922
Ni      8.5960218871     2.1204514927    13.3003723346
Ni      9.8247038285     4.2487100076    13.3000686116
Ni     11.0530591596     6.3770499389    13.3002576767
Cu      2.4474440876     1.4020144828    15.3758100564
Cu      3.6757386671     3.5308671797    15.3739796294
Cu      4.9037007121     5.6606780562    15.3746752051
Cu      6.1329199030     7.7888207846    15.3770293788
Cu      4.9046161595     1.4016912882    15.3757670212
Cu      6.1327878403     3.5312181606    15.3741178138
Cu      7.3613871939     5.6607309930    15.3747102872
Cu      8.5910364223     7.7877032140    15.3772007429
Cu      7.3626127928     1.4028644893    15.3741964739
Cu      8.5913701363     3.5317740323    15.3751301334
Cu      9.8200455094     5.6601921586    15.3748863499
Cu     11.0493343587     7.7878757794    15.3770671004
Cu      9.8202937030     1.4036179141    15.3761970391
Cu     11.0487362556     3.5313729924    15.3759914457
Cu     12.2770721912     5.6597264105    15.3765275759
Cu     13.5056646590     7.7884261764    15.3770665587
Cu      1.2135934915     0.6833329881    17.5693731213
Cu      2.4381556634     2.8152791738    17.5476392409
Cu      3.6644532136     4.9459110783    17.5549058061
Cu      4.8972220968     7.0735414859    17.5665608786
Cu      3.6708816381     0.6801765329    17.5685570982
Cu      4.8988780804     2.8043644630    17.5399663668
Cu      6.1270645805     4.9493294485    17.5452456725
Cu      7.3559808287     7.0763218574    17.5633821003
Cu      6.1307121752     0.6785880319    17.5634451254
Cu      7.3624651448     2.8088899570    17.5522565778
Cu      8.5978378633     4.9472300662    17.5401086340
Cu      9.8177128190     7.0727327112    17.5662404382
Cu      8.5888309309     0.6822362700    17.5626970384
Cu      9.8195493457     2.8108636345    17.5682326374
Cu     11.0461407874     4.9420586371    17.5658675247
Cu     12.2737754575     7.0697409524    17.5712527081
O       5.8547983775     3.0460613956    20.9112164731
O       7.5008404676     4.2983185907    19.0769786520
O       5.8048768435     4.2454126741    23.5687857628
C       6.6136694918     4.2024285155    21.3236577725
C       7.8680178681     4.3351881238    20.4597079670
C       6.9862581688     4.0856457447    22.7969829880
H       5.9830858267     5.0933975991    21.1785425074
H       8.5567148217     3.4938227070    20.6746079862
H       8.4059406004     5.2729347892    20.6936988812
H       7.7337983846     4.8688344558    23.0381260934
H       7.4513655424     3.0976928734    22.9610189239
H       6.3498117119     2.5975620649    20.1871099982
H       4.4649603078     2.8889502953    20.1935661138
H       6.0481008560     4.0725209247    24.5346787635
O       3.6623327036     2.5574949567    19.5971462300
H       3.0842056685     1.9019799352    19.9264068172
80
Step 5 | NEB Image 5 | Cartesian Angstrom
Ni      1.2286497034     0.7093615225    11.2499999440
Ni      2.4572989609     2.8374461750    11.2499999440
Ni      3.6859482184     4.9655308275    11.2499999440
Ni      4.9145974759     7.0936154800    11.2499999440
Ni      3.6859497034     0.7093615225    11.2499999440
Ni      4.9145989609     2.8374461750    11.2499999440
Ni      6.1432482184     4.9655308275    11.2499999440
Ni      7.3718974759     7.0936154800    11.2499999440
Ni      6.1432497034     0.7093615225    11.2499999440
Ni      7.3718989609     2.8374461750    11.2499999440
Ni      8.6005482184     4.9655308275    11.2499999440
Ni      9.8291974759     7.0936154800    11.2499999440
Ni      8.6005497034     0.7093615225    11.2499999440
Ni      9.8291989609     2.8374461750    11.2499999440
Ni     11.0578482184     4.9655308275    11.2499999440
Ni     12.2864974759     7.0936154800    11.2499999440
Ni     14.7391156794     8.5053429999    13.3011712910
Ni     11.0531329642     2.1206495503    13.3008022026
Ni     12.2817169557     4.2489790177    13.3006008466
Ni     13.5101985270     6.3773433856    13.3009432678
Ni      7.3672569131     8.5047181091    13.3011774747
Ni      3.6813641840     2.1207833643    13.3007249066
Ni      4.9098915592     4.2493198517    13.3009123494
Ni      6.1382080000     6.3774560890    13.3011137055
Ni      9.8241033938     8.5046823573    13.3010831736
Ni      6.1383369699     2.1207818321    13.3007716707
Ni      7.3668809566     4.2490234521    13.3008056810
Ni      8.5953896076     6.3767159412    13.3009509974
Ni     12.2816608204     8.5051500252    13.3006066438
Ni      8.5958457422     2.1206092019    13.3010364095
Ni      9.8244550440     4.2487038138    13.3007276120
Ni     11.0528529688     6.3769410074    13.3006611374
Cu      2.4478274055     1.4024593708    15.3768195742
Cu      3.6763308468     3.5307009057    15.3768060474
Cu      4.9041378398     5.6597275336    15.3773448005
Cu      6.1330260451     7.7878910103    15.3784795057
Cu      4.9046987540     1.4026027186    15.3777977550
Cu      6.1325026510     3.5313493756    15.3777258697
Cu      7.3610720952     5.6598451741    15.3779276123
Cu      8.5906751295     7.7868954923    15.3785351588
Cu      7.3621786280     1.4037477983    15.3762151195
Cu      8.5904727564     3.5321453644    15.3780682910
Cu      9.8190628915     5.6596863338    15.3769316534
Cu     11.0489115080     7.7874997832    15.3777154348
Cu      9.8196453802     1.4041813317    15.3774700200
Cu     11.0479045662     3.5315147704    15.3771971651
Cu     12.2765483193     5.6595852924    15.3771299176
Cu     13.5054403579     7.7883030926    15.3772814178
Cu      1.2140125591     0.6836803076    17.5697065574
Cu      2.4431555374     2.8116125893    17.5665702724
Cu      3.6705110760     4.9384343512    17.5687388115
Cu      4.8988742539     7.0688538531    17.5715929661
Cu      3.6716454744     0.6829118137    17.5713989532
Cu      4.8981418913     2.8112417067    17.5722074693
Cu      6.1274353048     4.9410331682    17.5708265763
Cu      7.3554752500     7.0698228126    17.5713297733
Cu      6.1297077779     0.6833063606    17.5689100221
Cu      7.3567237656     2.8135682139    17.5698797004
Cu      8.5851063076     4.9421568820    17.5702368079
Cu      9.8152975701     7.0699596058    17.5700617325
Cu      8.5865082080     0.6855771971    17.5667967496
Cu      9.8144914881     2.8135456562    17.5749499312
Cu     11.0427692018     4.9416447797    17.5690866435
Cu     12.2728600100     7.0692517198    17.5719744219
O       5.4816243728     2.5651691502    20.6539118200
O       7.3508896973     4.2099530947    19.0383354809
O       4.4981563510     3.9587391709    22.9072956728
C       5.9290713561     3.8945947838    20.9960208007
C       7.3297021271     4.1881915565    20.4688911028
C       5.8721709119     4.0116672750    22.5089584937
H       5.2340507257     4.6323215466    20.5533350446
H       8.0432145389     3.4244560240    20.8191443760
H       7.6571223136     5.1738780612    20.8354754738
H       6.3359933253     4.9675285031    22.8148914030
H       6.4497260984     3.1808581747    22.9509168945
H       5.8597578631     2.3152772777    19.7784701378
H       3.6583776659     2.5435355524    20.3168147116
H       4.4610770249     3.8064239805    23.8648388416
O       2.7103082747     2.5416543255    20.0177020144
H       2.4292112216     1.6097423068    20.0822731560
