80
Step 1 | NEB Image 1 | Cartesian Angstrom
Ni      1.2286497034     0.7093615225    11.2499999440
Ni      2.4572989609     2.8374461750    11.2499999440
Ni      3.6859482184     4.9655308275    11.2499999440
Ni      4.9145974759     7.0936154800    11.2499999440
Ni      3.6859497034     0.7093615225    11.2499999440
Ni      4.9145989609     2.8374461750    11.2499999440
Ni      6.1432482184     4.9655308275    11.2499999440
Ni      7.3718974759     7.0936154800    11.2499999440
Ni      6.1432497034     0.7093615225    11.2499999440
Ni      7.3718989609     2.8374461750    11.2499999440
Ni      8.6005482184     4.9655308275    11.2499999440
Ni      9.8291974759     7.0936154800    11.2499999440
Ni      8.6005497034     0.7093615225    11.2499999440
Ni      9.8291989609     2.8374461750    11.2499999440
Ni     11.0578482184     4.9655308275    11.2499999440
Ni     12.2864974759     7.0936154800    11.2499999440
Ni     14.7391156794     8.5053429999    13.3011712910
Ni     11.0531329642     2.1206495503    13.3008022026
Ni     12.2817169557     4.2489790177    13.3006008466
Ni     13.5101985270     6.3773433856    13.3009432678
Ni      7.3672569131     8.5047181091    13.3011774747
Ni      3.6813641840     2.1207833643    13.3007249066
Ni      4.9098915592     4.2493198517    13.3009123494
Ni      6.1382080000     6.3774560890    13.3011137055
Ni      9.8241033938     8.5046823573    13.3010831736
Ni      6.1383369699     2.1207818321    13.3007716707
Ni      7.3668809566     4.2490234521    13.3008056810
Ni      8.5953896076     6.3767159412    13.3009509974
Ni     12.2816608204     8.5051500252    13.3006066438
Ni      8.5958457422     2.1206092019    13.3010364095
Ni      9.8244550440     4.2487038138    13.3007276120
Ni     11.0528529688     6.3769410074    13.3006611374
Cu      2.4478274055     1.4024593708    15.3768195742
Cu      3.6763308468     3.5307009057    15.3768060474
Cu      4.9041378398     5.6597275336    15.3773448005
Cu      6.1330260451     7.7878910103    15.3784795057
Cu      4.9046987540     1.4026027186    15.3777977550
Cu      6.1325026510     3.5313493756    15.3777258697
Cu      7.3610720952     5.6598451741    15.3779276123
Cu      8.5906751295     7.7868954923    15.3785351588
Cu      7.3621786280     1.4037477983    15.3762151195
Cu      8.5904727564     3.5321453644    15.3780682910
Cu      9.8190628915     5.6596863338    15.3769316534
Cu     11.0489115080     7.7874997832    15.3777154348
Cu      9.8196453802     1.4041813317    15.3774700200
Cu     11.0479045662     3.5315147704    15.3771971651
Cu     12.2765483193     5.6595852924    15.3771299176
Cu     13.5054403579     7.7883030926    15.3772814178
Cu      1.2140125591     0.6836803076    17.5697065574
Cu      2.4431555374     2.8116125893    17.5665702724
Cu      3.6705110760     4.9384343512    17.5687388115
Cu      4.8988742539     7.0688538531    17.5715929661
Cu      3.6716454744     0.6829118137    17.5713989532
Cu      4.8981418913     2.8112417067    17.5722074693
Cu      6.1274353048     4.9410331682    17.5708265763
Cu      7.3554752500     7.0698228126    17.5713297733
Cu      6.1297077779     0.6833063606    17.5689100221
Cu      7.3567237656     2.8135682139    17.5698797004
Cu      8.5851063076     4.9421568820    17.5702368079
Cu      9.8152975701     7.0699596058    17.5700617325
Cu      8.5865082080     0.6855771971    17.5667967496
Cu      9.8144914881     2.8135456562    17.5749499312
Cu     11.0427692018     4.9416447797    17.5690866435
Cu     12.2728600100     7.0692517198    17.5719744219
O       7.2288202015     4.2734569284    22.3446828621
O       8.3044696405     5.3171068409    20.0014702420
O       8.8891638945     4.8479579810    24.7349733808
C       8.5251333110     4.9000290628    22.3715153937
C       9.1804211035     4.7744357207    20.9993344800
C       9.4189460410     4.3898719266    23.4895992517
H       8.3072385962     5.9614198807    22.5605187870
H       9.4153356173     3.7172718747    20.7683620669
H      10.1139922737     5.3503076003    20.9408546493
H      10.4461642949     4.7683945991    23.3275539960
H       9.4595638267     3.2836247445    23.4537018323
H       7.3561498138     3.3073831923    22.3295378714
H       7.4071380143     4.9636379387    20.1831718691
H       9.4432595602     4.5017937719    25.4528614775
O       2.4447775074     1.3898406800    19.0162048647
H       2.5328987835     1.2730973609    19.9764139723
80
Step 2 | NEB Image 2 | Cartesian Angstrom
Ni      1.2286128265     0.7093356607    11.2499271741
Ni      2.4572444115     2.8374309900    11.2498523002
Ni      3.6858900076     4.9655519592    11.2497926371
Ni      4.9145561521     7.0936766755    11.2497926000
Ni      3.6859155433     0.7093132637    11.2498675370
Ni      4.9145636760     2.8374151501    11.2497664256
Ni      6.1432297641     4.9655509563    11.2497142668
Ni      7.3719034500     7.0936811182    11.2497559527
Ni      6.1432394414     0.7092949835    11.2498193374
Ni      7.3719106357     2.8374064226    11.2497297754
Ni      8.6005867141     4.9655466945    11.2497196299
Ni      9.8292459771     7.0936682370    11.2497941308
Ni      8.6005754055     0.7092934001    11.2498146609
Ni      9.8292546327     2.8374116017    11.2497702107
Ni     11.0579175851     4.9655416310    11.2497987609
Ni     12.2865567300     7.0936488009    11.2498685923
Ni     14.7391885054     8.5053852891    13.3010811024
Ni     11.0533061711     2.1205389904    13.3003981501
Ni     12.2819029017     4.2489703891    13.3002642401
Ni     13.5103300174     6.3773864922    13.3007491682
Ni      7.3672640075     8.5049430357    13.3007386949
Ni      3.6812534483     2.1206785687    13.3002697099
Ni      4.9097640104     4.2493362958    13.3001852963
Ni      6.1381429803     6.3776487577    13.3004056701
Ni      9.8241996523     8.5048547309    13.3007292666
Ni      6.1383094412     2.1206088689    13.3001372379
Ni      7.3669272006     4.2490109595    13.2999479355
Ni      8.5954963427     6.3768816230    13.3002710539
Ni     12.2817677614     8.5052447158    13.3004064524
Ni      8.5959569312     2.1204365756    13.3004222496
Ni      9.8246467144     4.2486862154    13.3000775391
Ni     11.0530280281     6.3770375497    13.3002373698
Cu      2.4475419639     1.4021059535    15.3758413964
Cu      3.6758390789     3.5307957095    15.3746949380
Cu      4.9033548852     5.6604735305    15.3748292188
Cu      6.1327784041     7.7887575328    15.3770474352
Cu      4.9045507581     1.4019112804    15.3763571138
Cu      6.1323433507     3.5308849046    15.3744654067
Cu      7.3612228155     5.6605847328    15.3746890266
Cu      8.5909083162     7.7876549152    15.3771467538
Cu      7.3623394029     1.4028593358    15.3745053993
Cu      8.5910832459     3.5316574036    15.3752872311
Cu      9.8198231871     5.6600849210    15.3748596741
Cu     11.0492888251     7.7878799444    15.3769653678
Cu      9.8201043277     1.4035830935    15.3762570158
Cu     11.0486001538     3.5313088537    15.3759098874
Cu     12.2770450081     5.6597120662    15.3764120741
Cu     13.5056671996     7.7884353565    15.3770132069
Cu      1.2129395759     0.6827160581    17.5686620174
Cu      2.4403554830     2.8224901273    17.5457966315
Cu      3.6647657129     4.9417108917    17.5608483844
Cu      4.8962191475     7.0731703238    17.5668126156
Cu      3.6726702355     0.6801361023    17.5682687763
Cu      4.8947466423     2.8054114260    17.5560831128
Cu      6.1234827589     4.9490287387    17.5352319359
Cu      7.3549968453     7.0760629310    17.5630007018
Cu      6.1296612621     0.6800621189    17.5657990470
Cu      7.3604963042     2.8060555531    17.5532308833
Cu      8.5920103827     4.9435644840    17.5435740656
Cu      9.8172976565     7.0729554809    17.5651506233
Cu      8.5876459541     0.6825818960    17.5635051296
Cu      9.8181841597     2.8104150639    17.5677889023
Cu     11.0460963462     4.9418457643    17.5645132255
Cu     12.2738760498     7.0698529914    17.5708858331
O       6.4992153806     3.7220999867    21.7517542822
O       7.7178684351     4.9015389265    19.6895053767
O       7.4875733822     4.5696702478    24.4326558854
C       7.6325581381     4.5897743997    22.0274728549
C       8.5536561998     4.5896542101    20.8144064418
C       8.3523062507     4.2368729261    23.3095598918
H       7.1981404920     5.5938370598    22.1273900447
H       9.0298248375     3.5946077952    20.6625877826
H       9.3265602530     5.3458420041    20.8535251783
H       9.2888130202     4.8213085349    23.3581961232
H       8.6070685592     3.1698951056    23.3210776391
H       6.8055128014     2.8431533561    21.6321220743
H       6.8515490182     4.4233018375    19.8478544534
H       7.8675547187     4.2860613912    25.2010521623
O       2.4444055053     1.4151529062    18.9563674083
H       2.4980027060     1.3552850270    20.0022606040
80
Step 3 | NEB Image 3 | Cartesian Angstrom
Ni      1.2286019168     0.7093261213    11.2499020306
Ni      2.4572297124     2.8374258412    11.2497959936
Ni      3.6858816264     4.9655636232    11.2497181448
Ni      4.9145567522     7.0937000031    11.2497306619
Ni      3.6859088048     0.7092968160    11.2498194401
Ni      4.9145645147     2.8374089150    11.2496852519
Ni      6.1432410775     4.9655637555    11.2496314374
Ni      7.3719181828     7.0937027347    11.2496967950
Ni      6.1432465131     0.7092767198    11.2497603810
Ni      7.3719293478     2.8374013878    11.2496536095
Ni      8.6006105589     4.9655564774    11.2496537725
Ni      9.8292669707     7.0936835493    11.2497527910
Ni      8.6005931809     0.7092787652    11.2497648717
Ni      9.8292802023     2.8374081967    11.2497174770
Ni     11.0579424756     4.9655477286    11.2497596116
Ni     12.2865746054     7.0936573103    11.2498469658
Ni     14.7392038525     8.5053924847    13.3010724341
Ni     11.0533695210     2.1205260632    13.3003169800
Ni     12.2819570334     4.2489769614    13.3002122633
Ni     13.5103614632     6.3773969556    13.3007267514
Ni      7.3672937658     8.5050056834    13.3006410872
Ni      3.6812190454     2.1206320913    13.3000731789
Ni      4.9097762950     4.2493693669    13.2999122491
Ni      6.1381764221     6.3777229570    13.3002156420
Ni      9.8242400125     8.5048956806    13.3006674051
Ni      6.1383498929     2.1205687946    13.2999087916
Ni      7.3669952348     4.2490362467    13.2997224021
Ni      8.5955577370     6.3769357333    13.3001248913
Ni     12.2817971619     8.5052632869    13.3003809064
Ni      8.5960281356     2.1204098526    13.3002620040
Ni      9.8247274443     4.2486978679    13.2999403038
Ni     11.0530866122     6.3770651458    13.3001672263
Cu      2.4473696495     1.4019021546    15.3756446742
Cu      3.6755517408     3.5308321150    15.3734380382
Cu      4.9034591355     5.6608705206    15.3739703767
Cu      6.1328466523     7.7890109382    15.3767108035
Cu      4.9045300068     1.4014877813    15.3755229385
Cu      6.1327209074     3.5310137727    15.3733266533
Cu      7.3614058647     5.6608560889    15.3740021308
Cu      8.5910530142     7.7878487717    15.3768951838
Cu      7.3625802267     1.4026653963    15.3739381621
Cu      8.5914046069     3.5316252576    15.3746257674
Cu      9.8201452594     5.6602412897    15.3744427608
Cu     11.0494017418     7.7879531101    15.3768866893
Cu      9.8203202275     1.4034895631    15.3759755303
Cu     11.0488343986     3.5313116835    15.3757111090
Cu     12.2771647459     5.6597465947    15.3763554291
Cu     13.5057100900     7.7884535701    15.3770014496
Cu      1.2136747226     0.6833006368    17.5696340348
Cu      2.4378696138     2.8193736300    17.5406748895
Cu      3.6607563388     4.9462287871    17.5520411930
Cu      4.8965160351     7.0748314424    17.5653556941
Cu      3.6709998654     0.6799509649    17.5687633069
Cu      4.8938815952     2.7995054763    17.5358986654
Cu      6.1292040362     4.9528528820    17.5346017750
Cu      7.3555447967     7.0775175938    17.5615607901
Cu      6.1302957158     0.6781643916    17.5636040832
Cu      7.3632253160     2.8069877988    17.5500945709
Cu      8.5972390470     4.9459386611    17.5342621260
Cu      9.8180760908     7.0734431506    17.5648629669
Cu      8.5885931428     0.6817794647    17.5622575372
Cu      9.8198278863     2.8100862834    17.5665497023
Cu     11.0468578564     4.9420518192    17.5645942714
Cu     12.2740110395     7.0698832047    17.5709567611
O       6.0656669971     3.4341856077    21.0322962091
O       7.6101394235     4.5485802496    19.2623073875
O       6.4639774063     4.3760158803    23.8709073510
C       7.1268507003     4.4584839857    21.5608326446
C       8.2243115482     4.4742241116    20.5174069399
C       7.5456557626     4.1421567689    22.9655041885
H       6.5224868510     5.3928721873    21.5241607540
H       8.8446218360     3.5550545245    20.6171113450
H       8.8970191718     5.3338831343    20.7257385939
H       8.3906040311     4.8337701125    23.1725282483
H       7.9358399244     3.1192987475    23.0467692692
H       6.5277160373     2.5779083835    20.8213006994
H       5.8034526475     3.7571847624    20.1189032873
H       6.7660637663     4.1880135889    24.7695085770
O       3.0875247568     1.7443111798    19.1472964490
H       2.3141403501     1.3588199663    19.7147348275
80
Step 4 | NEB Image 4 | Cartesian Angstrom
Ni      1.2286140344     0.7093352144    11.2499189295
Ni      2.4572487013     2.8374335393    11.2498369725
Ni      3.6859020414     4.9655602180    11.2497787111
Ni      4.9145711314     7.0936842222    11.2497892927
Ni      3.6859210574     0.7093125230    11.2498506476
Ni      4.9145779527     2.8374218685    11.2497473685
Ni      6.1432495295     4.9655618230    11.2497088664
Ni      7.3719198400     7.0936876073    11.2497618865
Ni      6.1432531743     0.7092964522    11.2498014227
Ni      7.3719310706     2.8374158156    11.2497201659
Ni      8.6006053096     4.9655560980    11.2497246578
Ni      9.8292582501     7.0936723440    11.2498062235
Ni      8.6005920413     0.7092973706    11.2498063053
Ni      9.8292720745     2.8374197280    11.2497725490
Ni     11.0579296837     4.9655476081    11.2498104570
Ni     12.2865623465     7.0936503505    11.2498816242
Ni     14.7391867492     8.5053823098    13.3010977860
Ni     11.0533426948     2.1205589064    13.3004153348
Ni     12.2819199564     4.2489841220    13.3003015572
Ni     13.5103318835     6.3773880875    13.3007809487
Ni      7.3672998436     8.5049494394    13.3007587041
Ni      3.6812619351     2.1206763417    13.3001932559
Ni      4.9098266732     4.2493785022    13.3001296952
Ni      6.1382021866     6.3776745343    13.3004173651
Ni      9.8242229261     8.5048543117    13.3007633944
Ni      6.1383710172     2.1206315600    13.3000640238
Ni      7.3669948171     4.2490545050    13.2999449244
Ni      8.5955429045     6.3769019588    13.3003028744
Ni     12.2817735961     8.5052403014    13.3004368614
Ni      8.5960205534     2.1204622167    13.3004003826
Ni      9.8246980154     4.2487132138    13.3001014310
Ni     11.0530522574     6.3770460957    13.3002809218
Cu      2.4474627479     1.4020428720    15.3758522777
Cu      3.6757861220     3.5308764517    15.3741153832
Cu      4.9037639909     5.6606296100    15.3748550606
Cu      6.1329392406     7.7887723509    15.3771108829
Cu      4.9046384889     1.4017424987    15.3758271047
Cu      6.1328068023     3.5312718649    15.3743189828
Cu      7.3613830867     5.6606995591    15.3748917133
Cu      8.5910326988     7.7876661387    15.3772792094
Cu      7.3626222528     1.4029154925    15.3742613539
Cu      8.5913624855     3.5318126075    15.3752586434
Cu      9.8200208777     5.6601800172    15.3750000500
Cu     11.0493172905     7.7878559602    15.3771137158
Cu      9.8202876872     1.4036509240    15.3762535154
Cu     11.0487116819     3.5313889548    15.3760635665
Cu     12.2770486019     5.6597213007    15.3765721314
Cu     13.5056530150     7.7884191240    15.3770834500
Cu      1.2135753713     0.6833438016    17.5693092240
Cu      2.4382198940     2.8142011351    17.5494301706
Cu      3.6653985986     4.9458469416    17.5556149905
Cu      4.8974070112     7.0732126858    17.5668684606
Cu      3.6708440306     0.6802344603    17.5685054759
Cu      4.9001744782     2.8056044213    17.5409419170
Cu      6.1265314103     4.9484284286    17.5480123306
Cu      7.3560965183     7.0760167244    17.5638500505
Cu      6.1308231273     0.6786904710    17.5633947703
Cu      7.3622785580     2.8093886668    17.5528062129
Cu      8.5980150945     4.9475757868    17.5415915538
Cu      9.8176214973     7.0725498742    17.5665976380
Cu      8.5888966798     0.6823518281    17.5628062694
Cu      9.8194836161     2.8110645314    17.5686654092
Cu     11.0459573482     4.9420612557    17.5661991215
Cu     12.2737147192     7.0697040662    17.5713299960
O       5.7484793062     2.9768297340    20.8175309967
O       7.4786333295     4.2697898996    19.0992825385
O       5.6592657619     4.2253398878    23.5460447178
C       6.5350284235     4.2127050059    21.3064449197
C       7.8062991137     4.2975447247    20.4636807790
C       6.8538481362     4.0782607685    22.7824546539
H       5.8788318133     5.0682057182    21.1107350561
H       8.4927345107     3.4687120124    20.7148469289
H       8.3304042955     5.2394358068    20.7321008520
H       7.5775201649     4.8867751177    23.0162421173
H       7.3581111717     3.1202785624    22.9798936147
H       6.2473569232     2.5663385728    20.0589562366
H       4.7590788830     3.0299177047    20.4107084851
H       5.8717353535     4.0416589674    24.4861642124
O       3.4983882722     2.4603800028    19.4637760908
H       2.8488165720     1.8342220363    19.8305752908
80
Step 5 | NEB Image 5 | Cartesian Angstrom
Ni      1.2286497034     0.7093615225    11.2499999440
Ni      2.4572989609     2.8374461750    11.2499999440
Ni      3.6859482184     4.9655308275    11.2499999440
Ni      4.9145974759     7.0936154800    11.2499999440
Ni      3.6859497034     0.7093615225    11.2499999440
Ni      4.9145989609     2.8374461750    11.2499999440
Ni      6.1432482184     4.9655308275    11.2499999440
Ni      7.3718974759     7.0936154800    11.2499999440
Ni      6.1432497034     0.7093615225    11.2499999440
Ni      7.3718989609     2.8374461750    11.2499999440
Ni      8.6005482184     4.9655308275    11.2499999440
Ni      9.8291974759     7.0936154800    11.2499999440
Ni      8.6005497034     0.7093615225    11.2499999440
Ni      9.8291989609     2.8374461750    11.2499999440
Ni     11.0578482184     4.9655308275    11.2499999440
Ni     12.2864974759     7.0936154800    11.2499999440
Ni     14.7391156794     8.5053429999    13.3011712910
Ni     11.0531329642     2.1206495503    13.3008022026
Ni     12.2817169557     4.2489790177    13.3006008466
Ni     13.5101985270     6.3773433856    13.3009432678
Ni      7.3672569131     8.5047181091    13.3011774747
Ni      3.6813641840     2.1207833643    13.3007249066
Ni      4.9098915592     4.2493198517    13.3009123494
Ni      6.1382080000     6.3774560890    13.3011137055
Ni      9.8241033938     8.5046823573    13.3010831736
Ni      6.1383369699     2.1207818321    13.3007716707
Ni      7.3668809566     4.2490234521    13.3008056810
Ni      8.5953896076     6.3767159412    13.3009509974
Ni     12.2816608204     8.5051500252    13.3006066438
Ni      8.5958457422     2.1206092019    13.3010364095
Ni      9.8244550440     4.2487038138    13.3007276120
Ni     11.0528529688     6.3769410074    13.3006611374
Cu      2.4478274055     1.4024593708    15.3768195742
Cu      3.6763308468     3.5307009057    15.3768060474
Cu      4.9041378398     5.6597275336    15.3773448005
Cu      6.1330260451     7.7878910103    15.3784795057
Cu      4.9046987540     1.4026027186    15.3777977550
Cu      6.1325026510     3.5313493756    15.3777258697
Cu      7.3610720952     5.6598451741    15.3779276123
Cu      8.5906751295     7.7868954923    15.3785351588
Cu      7.3621786280     1.4037477983    15.3762151195
Cu      8.5904727564     3.5321453644    15.3780682910
Cu      9.8190628915     5.6596863338    15.3769316534
Cu     11.0489115080     7.7874997832    15.3777154348
Cu      9.8196453802     1.4041813317    15.3774700200
Cu     11.0479045662     3.5315147704    15.3771971651
Cu     12.2765483193     5.6595852924    15.3771299176
Cu     13.5054403579     7.7883030926    15.3772814178
Cu      1.2140125591     0.6836803076    17.5697065574
Cu      2.4431555374     2.8116125893    17.5665702724
Cu      3.6705110760     4.9384343512    17.5687388115
Cu      4.8988742539     7.0688538531    17.5715929661
Cu      3.6716454744     0.6829118137    17.5713989532
Cu      4.8981418913     2.8112417067    17.5722074693
Cu      6.1274353048     4.9410331682    17.5708265763
Cu      7.3554752500     7.0698228126    17.5713297733
Cu      6.1297077779     0.6833063606    17.5689100221
Cu      7.3567237656     2.8135682139    17.5698797004
Cu      8.5851063076     4.9421568820    17.5702368079
Cu      9.8152975701     7.0699596058    17.5700617325
Cu      8.5865082080     0.6855771971    17.5667967496
Cu      9.8144914881     2.8135456562    17.5749499312
Cu     11.0427692018     4.9416447797    17.5690866435
Cu     12.2728600100     7.0692517198    17.5719744219
O       5.4816243728     2.5651691502    20.6539118200
O       7.3508896973     4.2099530947    19.0383354809
O       4.4981563510     3.9587391709    22.9072956728
C       5.9290713561     3.8945947838    20.9960208007
C       7.3297021271     4.1881915565    20.4688911028
C       5.8721709119     4.0116672750    22.5089584937
H       5.2340507257     4.6323215466    20.5533350446
H       8.0432145389     3.4244560240    20.8191443760
H       7.6571223136     5.1738780612    20.8354754738
H       6.3359933253     4.9675285031    22.8148914030
H       6.4497260984     3.1808581747    22.9509168945
H       5.8597578631     2.3152772777    19.7784701378
H       3.6583776659     2.5435355524    20.3168147116
H       4.4610770249     3.8064239805    23.8648388416
O       2.7103082747     2.5416543255    20.0177020144
H       2.4292112216     1.6097423068    20.0822731560
