80
Step 1 | NEB Image 1 | Cartesian Angstrom
Ni      1.2286497034     0.7093615225    11.2499999440
Ni      2.4572989609     2.8374461750    11.2499999440
Ni      3.6859482184     4.9655308275    11.2499999440
Ni      4.9145974759     7.0936154800    11.2499999440
Ni      3.6859497034     0.7093615225    11.2499999440
Ni      4.9145989609     2.8374461750    11.2499999440
Ni      6.1432482184     4.9655308275    11.2499999440
Ni      7.3718974759     7.0936154800    11.2499999440
Ni      6.1432497034     0.7093615225    11.2499999440
Ni      7.3718989609     2.8374461750    11.2499999440
Ni      8.6005482184     4.9655308275    11.2499999440
Ni      9.8291974759     7.0936154800    11.2499999440
Ni      8.6005497034     0.7093615225    11.2499999440
Ni      9.8291989609     2.8374461750    11.2499999440
Ni     11.0578482184     4.9655308275    11.2499999440
Ni     12.2864974759     7.0936154800    11.2499999440
Ni     14.7391156794     8.5053429999    13.3011712910
Ni     11.0531329642     2.1206495503    13.3008022026
Ni     12.2817169557     4.2489790177    13.3006008466
Ni     13.5101985270     6.3773433856    13.3009432678
Ni      7.3672569131     8.5047181091    13.3011774747
Ni      3.6813641840     2.1207833643    13.3007249066
Ni      4.9098915592     4.2493198517    13.3009123494
Ni      6.1382080000     6.3774560890    13.3011137055
Ni      9.8241033938     8.5046823573    13.3010831736
Ni      6.1383369699     2.1207818321    13.3007716707
Ni      7.3668809566     4.2490234521    13.3008056810
Ni      8.5953896076     6.3767159412    13.3009509974
Ni     12.2816608204     8.5051500252    13.3006066438
Ni      8.5958457422     2.1206092019    13.3010364095
Ni      9.8244550440     4.2487038138    13.3007276120
Ni     11.0528529688     6.3769410074    13.3006611374
Cu      2.4478274055     1.4024593708    15.3768195742
Cu      3.6763308468     3.5307009057    15.3768060474
Cu      4.9041378398     5.6597275336    15.3773448005
Cu      6.1330260451     7.7878910103    15.3784795057
Cu      4.9046987540     1.4026027186    15.3777977550
Cu      6.1325026510     3.5313493756    15.3777258697
Cu      7.3610720952     5.6598451741    15.3779276123
Cu      8.5906751295     7.7868954923    15.3785351588
Cu      7.3621786280     1.4037477983    15.3762151195
Cu      8.5904727564     3.5321453644    15.3780682910
Cu      9.8190628915     5.6596863338    15.3769316534
Cu     11.0489115080     7.7874997832    15.3777154348
Cu      9.8196453802     1.4041813317    15.3774700200
Cu     11.0479045662     3.5315147704    15.3771971651
Cu     12.2765483193     5.6595852924    15.3771299176
Cu     13.5054403579     7.7883030926    15.3772814178
Cu      1.2140125591     0.6836803076    17.5697065574
Cu      2.4431555374     2.8116125893    17.5665702724
Cu      3.6705110760     4.9384343512    17.5687388115
Cu      4.8988742539     7.0688538531    17.5715929661
Cu      3.6716454744     0.6829118137    17.5713989532
Cu      4.8981418913     2.8112417067    17.5722074693
Cu      6.1274353048     4.9410331682    17.5708265763
Cu      7.3554752500     7.0698228126    17.5713297733
Cu      6.1297077779     0.6833063606    17.5689100221
Cu      7.3567237656     2.8135682139    17.5698797004
Cu      8.5851063076     4.9421568820    17.5702368079
Cu      9.8152975701     7.0699596058    17.5700617325
Cu      8.5865082080     0.6855771971    17.5667967496
Cu      9.8144914881     2.8135456562    17.5749499312
Cu     11.0427692018     4.9416447797    17.5690866435
Cu     12.2728600100     7.0692517198    17.5719744219
O       7.2288202015     4.2734569284    22.3446828621
O       8.3044696405     5.3171068409    20.0014702420
O       8.8891638945     4.8479579810    24.7349733808
C       8.5251333110     4.9000290628    22.3715153937
C       9.1804211035     4.7744357207    20.9993344800
C       9.4189460410     4.3898719266    23.4895992517
H       8.3072385962     5.9614198807    22.5605187870
H       9.4153356173     3.7172718747    20.7683620669
H      10.1139922737     5.3503076003    20.9408546493
H      10.4461642949     4.7683945991    23.3275539960
H       9.4595638267     3.2836247445    23.4537018323
H       7.3561498138     3.3073831923    22.3295378714
H       7.4071380143     4.9636379387    20.1831718691
H       9.4432595602     4.5017937719    25.4528614775
O       2.4447775074     1.3898406800    19.0162048647
H       2.5328987835     1.2730973609    19.9764139723
80
Step 2 | NEB Image 2 | Cartesian Angstrom
Ni      1.2286107209     0.7093338193    11.2499223196
Ni      2.4572415749     2.8374299965    11.2498414294
Ni      3.6858883917     4.9655542119    11.2497782563
Ni      4.9145562702     7.0936811794    11.2497806440
Ni      3.6859142434     0.7093100888    11.2498582506
Ni      4.9145638400     2.8374139476    11.2497507543
Ni      6.1432319508     4.9655534285    11.2496982780
Ni      7.3719062963     7.0936852916    11.2497445348
Ni      6.1432408085     0.7092914584    11.2498079548
Ni      7.3719142507     2.8374054522    11.2497150722
Ni      8.6005913195     4.9655485843    11.2497069187
Ni      9.8292500312     7.0936711932    11.2497861531
Ni      8.6005788391     0.7092905758    11.2498050492
Ni      9.8292595709     2.8374109457    11.2497600322
Ni     11.0579223914     4.9655428089    11.2497912060
Ni     12.2865601812     7.0936504437    11.2498644199
Ni     14.7391914675     8.5053866775    13.3010794318
Ni     11.0533184046     2.1205364982    13.3003824850
Ni     12.2819133530     4.2489716598    13.3002542130
Ni     13.5103360874     6.3773885121    13.3007448460
Ni      7.3672697570     8.5049551291    13.3007198574
Ni      3.6812468091     2.1206695972    13.3002317634
Ni      4.9097663911     4.2493426857    13.3001325835
Ni      6.1381494443     6.3776630838    13.3003689921
Ni      9.8242074462     8.5048626350    13.3007173311
Ni      6.1383172586     2.1206011370    13.3000931315
Ni      7.3669403430     4.2490158471    13.2999044019
Ni      8.5955082002     6.3768920706    13.3002428460
Ni     12.2817734372     8.5052482998    13.3004015261
Ni      8.5959706849     2.1204314214    13.3003913152
Ni      9.8246623049     4.2486884687    13.3000510532
Ni     11.0530393399     6.3770428777    13.3002238371
Cu      2.4475086913     1.4020666061    15.3758034261
Cu      3.6757836081     3.5308027488    15.3744522399
Cu      4.9033750698     5.6605501822    15.3746634465
Cu      6.1327916019     7.7888064480    15.3769824672
Cu      4.9045467659     1.4018295099    15.3761960187
Cu      6.1324162978     3.5309098376    15.3742455791
Cu      7.3612581724     5.6606371281    15.3745564707
Cu      8.5909362651     7.7876923356    15.3770982150
Cu      7.3623859301     1.4028219095    15.3743958726
Cu      8.5911453182     3.5316512222    15.3751595491
Cu      9.8198853844     5.6601151181    15.3747792215
Cu     11.0493106249     7.7878940635    15.3769502034
Cu      9.8201460290     1.4035650503    15.3762026821
Cu     11.0486453853     3.5313094120    15.3758715418
Cu     12.2770681208     5.6597187324    15.3764011645
Cu     13.5056754762     7.7884388697    15.3770109481
Cu      1.2130815722     0.6828289901    17.5688497368
Cu      2.4398753305     2.8218873188    17.5448085673
Cu      3.6639919075     4.9425835743    17.5591476035
Cu      4.8962766332     7.0734909641    17.5665314048
Cu      3.6723475397     0.6801003814    17.5683642678
Cu      4.8945804890     2.8042714716    17.5521847630
Cu      6.1245875574     4.9497667952    17.5351122325
Cu      7.3551027788     7.0763437073    17.5627228942
Cu      6.1297839019     0.6796956067    17.5653750052
Cu      7.3610233355     2.8062360018    17.5526254390
Cu      8.5930205424     4.9440233610    17.5417763482
Cu      9.8174479611     7.0730495510    17.5650953178
Cu      8.5878289723     0.6824269736    17.5632642100
Cu      9.8185016331     2.8103516999    17.5675498408
Cu     11.0462433141     4.9418855702    17.5645291241
Cu     12.2739020815     7.0698588007    17.5708995909
O       6.4938409254     3.7269113643    21.9054569283
O       7.8928139588     5.2050614105    20.0157950055
O       7.4075160601     4.1857486162    24.6772620003
C       7.6208570038     4.5233319447    22.3131764065
C       8.5905915145     4.6609976534    21.1413227555
C       8.3002427150     4.0093922214    23.5714951169
H       7.1883299830     5.5088873599    22.5301139196
H       9.0359805196     3.6825322342    20.8814733919
H       9.4075345271     5.3609424131    21.3703468646
H       9.2360120401     4.5804915892    23.7227378193
H       8.5720602854     2.9449832674    23.4413277223
H       6.7945390175     2.8033472318    21.7853350083
H       7.0342137414     4.7273267165    19.9654020891
H       7.8489400959     3.8945878536    25.4806841023
O       2.4493006494     1.4155354739    18.9947858763
H       2.5375268088     1.4068865443    19.9568116718
80
Step 3 | NEB Image 3 | Cartesian Angstrom
Ni      1.2285995380     0.7093240265    11.2498964399
Ni      2.4572265334     2.8374247379    11.2497835046
Ni      3.6858799078     4.9655662602    11.2497016845
Ni      4.9145570306     7.0937051890    11.2497170568
Ni      3.6859073823     0.7092932045    11.2498087348
Ni      4.9145648386     2.8374076146    11.2496672771
Ni      6.1432437506     4.9655666669    11.2496132338
Ni      7.3719215721     7.0937075353    11.2496838898
Ni      6.1432481975     0.7092727321    11.2497472859
Ni      7.3719336487     2.8374003767    11.2496368247
Ni      8.6006159666     4.9655587134    11.2496393904
Ni      9.8292716915     7.0936869450    11.2497438508
Ni      8.6005972394     0.7092755971    11.2497538792
Ni      9.8292859766     2.8374075303    11.2497059443
Ni     11.0579480487     4.9655491234    11.2497511475
Ni     12.2865785776     7.0936591902    11.2498423546
Ni     14.7392071983     8.5053940323    13.3010706984
Ni     11.0533837614     2.1205234259    13.3002993616
Ni     12.2819690627     4.2489785363    13.3002012397
Ni     13.5103683723     6.3773992642    13.3007221510
Ni      7.3673006385     8.5050194743    13.3006198945
Ni      3.6812115899     2.1206218847    13.3000293623
Ni      4.9097796018     4.2493770280    13.2998518700
Ni      6.1381843313     6.3777394694    13.3001741155
Ni      9.8242490852     8.5049046499    13.3006541842
Ni      6.1383593614     2.1205602358    13.2998580131
Ni      7.3670108068     4.2490422153    13.2996729508
Ni      8.5955716475     6.3769477901    13.3000931746
Ni     12.2818036617     8.5052673132    13.3003756069
Ni      8.5960443632     2.1204042484    13.3002266744
Ni      9.8247456383     4.2487006863    13.2999104656
Ni     11.0530996876     6.3770712769    13.3001522829
Cu      2.4473311124     1.4018568766    15.3756016728
Cu      3.6754882560     3.5308408850    15.3731569232
Cu      4.9034859949     5.6609590457    15.3737824302
Cu      6.1328631861     7.7890666129    15.3766376593
Cu      4.9045263205     1.4013933226    15.3753349424
Cu      6.1328081904     3.5310458093    15.3730756785
Cu      7.3614475496     5.6609166787    15.3738535988
Cu      8.5910859429     7.7878913621    15.3768413565
Cu      7.3626357748     1.4026234490    15.3738114670
Cu      8.5914777678     3.5316197364    15.3744805387
Cu      9.8202177760     5.6602764884    15.3743527791
Cu     11.0494267649     7.7879689077    15.3768709041
Cu      9.8203693376     1.4034697332    15.3759138133
Cu     11.0488868238     3.5313130897    15.3756690584
Cu     12.2771910196     5.6597542516    15.3763445871
Cu     13.5057193494     7.7884574020    15.3769995626
Cu      1.2138420566     0.6834348974    17.5698533868
Cu      2.4373039214     2.8186093593    17.5395882080
Cu      3.6598839659     4.9472593940    17.5500598933
Cu      4.8965927500     7.0751958631    17.5650369834
Cu      3.6706159115     0.6799113605    17.5688739975
Cu      4.8937453021     2.7982131852    17.5313270086
Cu      6.1304876718     4.9536849846    17.5345891083
Cu      7.3556756624     7.0778359041    17.5612535939
Cu      6.1304461473     0.6777350772    17.5630995008
Cu      7.3638408213     2.8072247940    17.5494031357
Cu      8.5984437449     4.9464982857    17.5322021225
Cu      9.8182498490     7.0735460344    17.5648141325
Cu      8.5888129767     0.6816013682    17.5619772909
Cu      9.8202008324     2.8100206105    17.5662867551
Cu     11.0470233639     4.9420990872    17.5646285759
Cu     12.2740390368     7.0698883640    17.5709766626
O       5.7942371730     3.2999694632    21.8402201013
O       7.2204819106     4.3100945000    19.8456919519
O       6.3807235594     4.2175388663    24.5658063505
C       6.8036734193     4.2653267948    22.2050375312
C       7.8784615867     4.2985551666    21.1148170952
C       7.3928750094     4.0058088452    23.5779002287
H       6.2686270897     5.2243142471    22.2127597820
H       8.5492004821     3.4225531725    21.1848232245
H       8.4914327441     5.2087903922    21.1759314078
H       8.2517966665     4.6877047392    23.7287626170
H       7.7804846308     2.9690618943    23.6144862171
H       6.1584803750     2.4073793450    21.9674526083
H       6.4055872481     3.7668958985    19.9583015662
H       6.7420006976     4.0153489618    25.4292147389
O       3.6154364767     2.0872491271    19.0102393941
H       3.2713543288     1.9762102645    19.8965781888
80
Step 4 | NEB Image 4 | Cartesian Angstrom
Ni      1.2286024012     0.7093263074    11.2499014039
Ni      2.4572307859     2.8374263827    11.2497950858
Ni      3.6858837539     4.9655646148    11.2497179478
Ni      4.9145591036     7.0937005683    11.2497318055
Ni      3.6859098576     0.7092971414    11.2498180646
Ni      4.9145667487     2.8374101446    11.2496844236
Ni      6.1432438972     4.9655651287    11.2496328122
Ni      7.3719203771     7.0937031789    11.2496993244
Ni      6.1432484935     0.7092774433    11.2497591355
Ni      7.3719320743     2.8374030079    11.2496541397
Ni      8.6006128566     4.9655577005    11.2496563390
Ni      9.8292683457     7.0936837865    11.2497558145
Ni      8.6005953321     0.7092797865    11.2497648905
Ni      9.8292822713     2.8374095727    11.2497192653
Ni     11.0579437183     4.9655485092    11.2497625135
Ni     12.2865750123     7.0936573263    11.2498496074
Ni     14.7392031620     8.5053918202    13.3010753043
Ni     11.0533735895     2.1205295589    13.3003218799
Ni     12.2819582727     4.2489789552    13.3002195599
Ni     13.5103609122     6.3773969263    13.3007323776
Ni      7.3672986294     8.5050050101    13.3006468758
Ni      3.6812213124     2.1206329897    13.3000663820
Ni      4.9097858689     4.2493751483    13.2999108068
Ni      6.1381848804     6.3777250350    13.3002226029
Ni      9.8242426053     8.5048945126    13.3006744636
Ni      6.1383585372     2.1205734593    13.2999033654
Ni      7.3670040918     4.2490424491    13.2997279937
Ni      8.5955634448     6.3769374918    13.3001338530
Ni     12.2817972931     8.5052620896    13.3003864001
Ni      8.5960362760     2.1204146243    13.3002628588
Ni      9.8247333809     4.2487018218    13.2999477722
Ni     11.0530888657     6.3770657542    13.3001759971
Cu      2.4473617645     1.4018976668    15.3756516866
Cu      3.6755511009     3.5308438976    15.3733802493
Cu      4.9035209935     5.6608845100    15.3739975669
Cu      6.1328702378     7.7890064629    15.3767298885
Cu      4.9045444317     1.4014724974    15.3754616081
Cu      6.1327840024     3.5310714681    15.3733341459
Cu      7.3614262723     5.6608669378    15.3740526469
Cu      8.5910687811     7.7878453303    15.3769228876
Cu      7.3626184546     1.4026794900    15.3739148491
Cu      8.5914400974     3.5316506537    15.3746390443
Cu      9.8201678413     5.6602521136    15.3744761647
Cu     11.0494032032     7.7879473507    15.3769122537
Cu      9.8203434007     1.4035028005    15.3759825499
Cu     11.0488457247     3.5313242681    15.3757407471
Cu     12.2771620926     5.6597471254    15.3763822515
Cu     13.5057066941     7.7884505144    15.3770128685
Cu      1.2137554377     0.6833841300    17.5697101810
Cu      2.4375989436     2.8181473274    17.5413869931
Cu      3.6609642370     4.9467609793    17.5514509521
Cu      4.8966957999     7.0747934486    17.5654037168
Cu      3.6707561564     0.6799714920    17.5687874148
Cu      4.8947627839     2.7996948700    17.5340484964
Cu      6.1295319808     4.9526551160    17.5366387796
Cu      7.3557038678     7.0774711553    17.5617337752
Cu      6.1304622897     0.6779986459    17.5632831182
Cu      7.3634335972     2.8074895457    17.5501118251
Cu      8.5980474753     4.9465088090    17.5341992944
Cu      9.8181063342     7.0733659211    17.5650994189
Cu      8.5887653483     0.6817646885    17.5621806406
Cu      9.8199890549     2.8101977825    17.5667215802
Cu     11.0468153995     4.9420803359    17.5648585613
Cu     12.2739819081     7.0698588530    17.5710250567
O       6.0512607514     2.8771896287    21.1423073855
O       7.4222704639     4.2503981561    19.0789569608
O       6.1883922774     4.2073955709    23.7744588822
C       6.7543921106     4.1090259603    21.4438372530
C       7.8811822340     4.3465541532    20.4373219561
C       7.2905998095     4.0524336937    22.8726250377
H       6.0190467445     4.9273007146    21.3835136325
H       8.6810910305     3.5998789794    20.5928585828
H       8.3159416701     5.3440475831    20.6123762692
H       8.0335592738     4.8582892006    23.0220975223
H       7.7941981836     3.0819801823    23.0229921005
H       6.5108196428     2.4443687092    20.3960633708
H       4.5150298122     2.9493175609    20.4231961904
H       6.5038884922     4.0434694372    24.6788002788
O       3.6387300769     2.8692945410    19.9413712059
H       3.3438810593     1.9532761732    20.0930333534
80
Step 5 | NEB Image 5 | Cartesian Angstrom
Ni      1.2286497034     0.7093615225    11.2499999440
Ni      2.4572989609     2.8374461750    11.2499999440
Ni      3.6859482184     4.9655308275    11.2499999440
Ni      4.9145974759     7.0936154800    11.2499999440
Ni      3.6859497034     0.7093615225    11.2499999440
Ni      4.9145989609     2.8374461750    11.2499999440
Ni      6.1432482184     4.9655308275    11.2499999440
Ni      7.3718974759     7.0936154800    11.2499999440
Ni      6.1432497034     0.7093615225    11.2499999440
Ni      7.3718989609     2.8374461750    11.2499999440
Ni      8.6005482184     4.9655308275    11.2499999440
Ni      9.8291974759     7.0936154800    11.2499999440
Ni      8.6005497034     0.7093615225    11.2499999440
Ni      9.8291989609     2.8374461750    11.2499999440
Ni     11.0578482184     4.9655308275    11.2499999440
Ni     12.2864974759     7.0936154800    11.2499999440
Ni     14.7391156794     8.5053429999    13.3011712910
Ni     11.0531329642     2.1206495503    13.3008022026
Ni     12.2817169557     4.2489790177    13.3006008466
Ni     13.5101985270     6.3773433856    13.3009432678
Ni      7.3672569131     8.5047181091    13.3011774747
Ni      3.6813641840     2.1207833643    13.3007249066
Ni      4.9098915592     4.2493198517    13.3009123494
Ni      6.1382080000     6.3774560890    13.3011137055
Ni      9.8241033938     8.5046823573    13.3010831736
Ni      6.1383369699     2.1207818321    13.3007716707
Ni      7.3668809566     4.2490234521    13.3008056810
Ni      8.5953896076     6.3767159412    13.3009509974
Ni     12.2816608204     8.5051500252    13.3006066438
Ni      8.5958457422     2.1206092019    13.3010364095
Ni      9.8244550440     4.2487038138    13.3007276120
Ni     11.0528529688     6.3769410074    13.3006611374
Cu      2.4478274055     1.4024593708    15.3768195742
Cu      3.6763308468     3.5307009057    15.3768060474
Cu      4.9041378398     5.6597275336    15.3773448005
Cu      6.1330260451     7.7878910103    15.3784795057
Cu      4.9046987540     1.4026027186    15.3777977550
Cu      6.1325026510     3.5313493756    15.3777258697
Cu      7.3610720952     5.6598451741    15.3779276123
Cu      8.5906751295     7.7868954923    15.3785351588
Cu      7.3621786280     1.4037477983    15.3762151195
Cu      8.5904727564     3.5321453644    15.3780682910
Cu      9.8190628915     5.6596863338    15.3769316534
Cu     11.0489115080     7.7874997832    15.3777154348
Cu      9.8196453802     1.4041813317    15.3774700200
Cu     11.0479045662     3.5315147704    15.3771971651
Cu     12.2765483193     5.6595852924    15.3771299176
Cu     13.5054403579     7.7883030926    15.3772814178
Cu      1.2140125591     0.6836803076    17.5697065574
Cu      2.4431555374     2.8116125893    17.5665702724
Cu      3.6705110760     4.9384343512    17.5687388115
Cu      4.8988742539     7.0688538531    17.5715929661
Cu      3.6716454744     0.6829118137    17.5713989532
Cu      4.8981418913     2.8112417067    17.5722074693
Cu      6.1274353048     4.9410331682    17.5708265763
Cu      7.3554752500     7.0698228126    17.5713297733
Cu      6.1297077779     0.6833063606    17.5689100221
Cu      7.3567237656     2.8135682139    17.5698797004
Cu      8.5851063076     4.9421568820    17.5702368079
Cu      9.8152975701     7.0699596058    17.5700617325
Cu      8.5865082080     0.6855771971    17.5667967496
Cu      9.8144914881     2.8135456562    17.5749499312
Cu     11.0427692018     4.9416447797    17.5690866435
Cu     12.2728600100     7.0692517198    17.5719744219
O       5.4816243728     2.5651691502    20.6539118200
O       7.3508896973     4.2099530947    19.0383354809
O       4.4981563510     3.9587391709    22.9072956728
C       5.9290713561     3.8945947838    20.9960208007
C       7.3297021271     4.1881915565    20.4688911028
C       5.8721709119     4.0116672750    22.5089584937
H       5.2340507257     4.6323215466    20.5533350446
H       8.0432145389     3.4244560240    20.8191443760
H       7.6571223136     5.1738780612    20.8354754738
H       6.3359933253     4.9675285031    22.8148914030
H       6.4497260984     3.1808581747    22.9509168945
H       5.8597578631     2.3152772777    19.7784701378
H       3.6583776659     2.5435355524    20.3168147116
H       4.4610770249     3.8064239805    23.8648388416
O       2.7103082747     2.5416543255    20.0177020144
H       2.4292112216     1.6097423068    20.0822731560
