80
Step 1 | NEB Image 1 | Cartesian Angstrom
Ni      1.2286497034     0.7093615225    11.2499999440
Ni      2.4572989609     2.8374461750    11.2499999440
Ni      3.6859482184     4.9655308275    11.2499999440
Ni      4.9145974759     7.0936154800    11.2499999440
Ni      3.6859497034     0.7093615225    11.2499999440
Ni      4.9145989609     2.8374461750    11.2499999440
Ni      6.1432482184     4.9655308275    11.2499999440
Ni      7.3718974759     7.0936154800    11.2499999440
Ni      6.1432497034     0.7093615225    11.2499999440
Ni      7.3718989609     2.8374461750    11.2499999440
Ni      8.6005482184     4.9655308275    11.2499999440
Ni      9.8291974759     7.0936154800    11.2499999440
Ni      8.6005497034     0.7093615225    11.2499999440
Ni      9.8291989609     2.8374461750    11.2499999440
Ni     11.0578482184     4.9655308275    11.2499999440
Ni     12.2864974759     7.0936154800    11.2499999440
Ni     14.7391156794     8.5053429999    13.3011712910
Ni     11.0531329642     2.1206495503    13.3008022026
Ni     12.2817169557     4.2489790177    13.3006008466
Ni     13.5101985270     6.3773433856    13.3009432678
Ni      7.3672569131     8.5047181091    13.3011774747
Ni      3.6813641840     2.1207833643    13.3007249066
Ni      4.9098915592     4.2493198517    13.3009123494
Ni      6.1382080000     6.3774560890    13.3011137055
Ni      9.8241033938     8.5046823573    13.3010831736
Ni      6.1383369699     2.1207818321    13.3007716707
Ni      7.3668809566     4.2490234521    13.3008056810
Ni      8.5953896076     6.3767159412    13.3009509974
Ni     12.2816608204     8.5051500252    13.3006066438
Ni      8.5958457422     2.1206092019    13.3010364095
Ni      9.8244550440     4.2487038138    13.3007276120
Ni     11.0528529688     6.3769410074    13.3006611374
Cu      2.4478274055     1.4024593708    15.3768195742
Cu      3.6763308468     3.5307009057    15.3768060474
Cu      4.9041378398     5.6597275336    15.3773448005
Cu      6.1330260451     7.7878910103    15.3784795057
Cu      4.9046987540     1.4026027186    15.3777977550
Cu      6.1325026510     3.5313493756    15.3777258697
Cu      7.3610720952     5.6598451741    15.3779276123
Cu      8.5906751295     7.7868954923    15.3785351588
Cu      7.3621786280     1.4037477983    15.3762151195
Cu      8.5904727564     3.5321453644    15.3780682910
Cu      9.8190628915     5.6596863338    15.3769316534
Cu     11.0489115080     7.7874997832    15.3777154348
Cu      9.8196453802     1.4041813317    15.3774700200
Cu     11.0479045662     3.5315147704    15.3771971651
Cu     12.2765483193     5.6595852924    15.3771299176
Cu     13.5054403579     7.7883030926    15.3772814178
Cu      1.2140125591     0.6836803076    17.5697065574
Cu      2.4431555374     2.8116125893    17.5665702724
Cu      3.6705110760     4.9384343512    17.5687388115
Cu      4.8988742539     7.0688538531    17.5715929661
Cu      3.6716454744     0.6829118137    17.5713989532
Cu      4.8981418913     2.8112417067    17.5722074693
Cu      6.1274353048     4.9410331682    17.5708265763
Cu      7.3554752500     7.0698228126    17.5713297733
Cu      6.1297077779     0.6833063606    17.5689100221
Cu      7.3567237656     2.8135682139    17.5698797004
Cu      8.5851063076     4.9421568820    17.5702368079
Cu      9.8152975701     7.0699596058    17.5700617325
Cu      8.5865082080     0.6855771971    17.5667967496
Cu      9.8144914881     2.8135456562    17.5749499312
Cu     11.0427692018     4.9416447797    17.5690866435
Cu     12.2728600100     7.0692517198    17.5719744219
O       7.2288202015     4.2734569284    22.3446828621
O       8.3044696405     5.3171068409    20.0014702420
O       8.8891638945     4.8479579810    24.7349733808
C       8.5251333110     4.9000290628    22.3715153937
C       9.1804211035     4.7744357207    20.9993344800
C       9.4189460410     4.3898719266    23.4895992517
H       8.3072385962     5.9614198807    22.5605187870
H       9.4153356173     3.7172718747    20.7683620669
H      10.1139922737     5.3503076003    20.9408546493
H      10.4461642949     4.7683945991    23.3275539960
H       9.4595638267     3.2836247445    23.4537018323
H       7.3561498138     3.3073831923    22.3295378714
H       7.4071380143     4.9636379387    20.1831718691
H       9.4432595602     4.5017937719    25.4528614775
O       2.4447775074     1.3898406800    19.0162048647
H       2.5328987835     1.2730973609    19.9764139723
80
Step 2 | NEB Image 2 | Cartesian Angstrom
Ni      1.2286132771     0.7093360530    11.2499282000
Ni      2.4572450216     2.8374312049    11.2498546010
Ni      3.6858903664     4.9655514884    11.2497956883
Ni      4.9145561445     7.0936757236    11.2497951464
Ni      3.6859158270     0.7093139400    11.2498694981
Ni      4.9145636577     2.8374154144    11.2497697461
Ni      6.1432293208     4.9655504417    11.2497176710
Ni      7.3719028621     7.0936802355    11.2497583952
Ni      6.1432391659     0.7092957371    11.2498217445
Ni      7.3719098886     2.8374066406    11.2497329005
Ni      8.6005857535     4.9655463024    11.2497223472
Ni      9.8292451267     7.0936676112    11.2497958466
Ni      8.6005746926     0.7092940072    11.2498167014
Ni      9.8292535998     2.8374117511    11.2497723845
Ni     11.0579165741     4.9655413868    11.2498003861
Ni     12.2865560004     7.0936484523    11.2498694976
Ni     14.7391878715     8.5053849894    13.3010814783
Ni     11.0533036044     2.1205395453    13.3004015117
Ni     12.2819006924     4.2489701341    13.3002664226
Ni     13.5103287248     6.3773860632    13.3007501273
Ni      7.3672628231     8.5049404636    13.3007427365
Ni      3.6812548745     2.1206804798    13.3002777147
Ni      4.9097635760     4.2493349823    13.3001964751
Ni      6.1381416708     6.3776457321    13.3004135075
Ni      9.8241980170     8.5048530444    13.3007318525
Ni      6.1383078457     2.1206105447    13.3001465604
Ni      7.3669244764     4.2490099679    13.2999572180
Ni      8.5954938679     6.3768794182    13.3002771081
Ni     12.2817665575     8.5052439461    13.3004075389
Ni      8.5959540719     2.1204377051    13.3004288225
Ni      9.8246434489     4.2486857664    13.3000832167
Ni     11.0530256436     6.3770364232    13.3002403074
Cu      2.4475489684     1.4021142727    15.3758495084
Cu      3.6758508492     3.5307943025    15.3747460286
Cu      4.9033510587     5.6604573629    15.3748646093
Cu      6.1327757772     7.7887471162    15.3770613676
Cu      4.9045517123     1.4019285250    15.3763908560
Cu      6.1323283331     3.5308800393    15.3745121260
Cu      7.3612154612     5.6605736909    15.3747175390
Cu      8.5909025002     7.7876469463    15.3771572625
Cu      7.3623298094     1.4028673848    15.3745284764
Cu      8.5910703324     3.5316589039    15.3753144331
Cu      9.8198101515     5.6600785911    15.3748769996
Cu     11.0492842084     7.7878769047    15.3769687761
Cu      9.8200956472     1.4035870217    15.3762686014
Cu     11.0485906362     3.5313088284    15.3759182466
Cu     12.2770400822     5.6597106551    15.3764145885
Cu     13.5056654175     7.7884345881    15.3770137709
Cu      1.2129100315     0.6826927038    17.5686227332
Cu      2.4404554026     2.8226090066    17.5460116458
Cu      3.6649315115     4.9415295848    17.5612050455
Cu      4.8962082760     7.0731019787    17.5668726651
Cu      3.6727369307     0.6801438369    17.5682486844
Cu      4.8947884382     2.8056548117    17.5568969308
Cu      6.1232506672     4.9488706037    17.5352724311
Cu      7.3549755364     7.0760029855    17.5630609543
Cu      6.1296364624     0.6801386926    17.5658866833
Cu      7.3603859715     2.8060209642    17.5533595314
Cu      8.5918019385     4.9434712985    17.5439552096
Cu      9.8172659747     7.0729349403    17.5651641144
Cu      8.5876083793     0.6826146726    17.5635557012
Cu      9.8181179618     2.8104293402    17.5678409218
Cu     11.0460648342     4.9418375258    17.5645118079
Cu     12.2738703082     7.0698515779    17.5708834184
O       6.5381943339     3.7503699688    21.8519013675
O       7.8137098973     5.0484518691    19.8117939060
O       7.5465115943     4.4914478062    24.5283151146
C       7.6730411872     4.5822497447    22.1491301805
C       8.5941822641     4.6268664993    20.9373269140
C       8.3979281123     4.1944047040    23.4232281597
H       7.2369851126     5.5851875119    22.2900570500
H       9.0463095575     3.6358935559    20.7369358493
H       9.4030213067     5.3598492261    21.0468239947
H       9.3427785777     4.7670171440    23.4755830918
H       8.6582861544     3.1173860217    23.3872888450
H       6.8460964396     2.8230467134    21.7746014540
H       6.9639438848     4.5495866951    19.8631001219
H       7.9993446176     4.2327233351    25.3493113609
O       2.4539336184     1.4185643086    18.9958700311
H       2.5136927178     1.3767837181    19.9677147162
80
Step 3 | NEB Image 3 | Cartesian Angstrom
Ni      1.2286016587     0.7093259405    11.2499017654
Ni      2.4572292851     2.8374256603    11.2497953062
Ni      3.6858810963     4.9655636137    11.2497170455
Ni      4.9145563168     7.0937002522    11.2497295006
Ni      3.6859085029     0.7092965035    11.2498189663
Ni      4.9145641051     2.8374085874    11.2496841699
Ni      6.1432407170     4.9655636912    11.2496299137
Ni      7.3719179928     7.0937029806    11.2496954141
Ni      6.1432462466     0.7092763044    11.2497597169
Ni      7.3719291178     2.8374010047    11.2496523471
Ni      8.6006104884     4.9655563954    11.2496522825
Ni      9.8292670310     7.0936837380    11.2497515886
Ni      8.6005930454     0.7092783488    11.2497641084
Ni      9.8292802013     2.8374078846    11.2497163343
Ni     11.0579426205     4.9655476740    11.2497584657
Ni     12.2865748013     7.0936574372    11.2498461364
Ni     14.7392042172     8.5053927201    13.3010717593
Ni     11.0533697184     2.1205252051    13.3003148152
Ni     12.2819576250     4.2489766847    13.3002100907
Ni     13.5103620472     6.3773971208    13.3007253457
Ni      7.3672933004     8.5050067665    13.3006385035
Ni      3.6812180919     2.1206312123    13.3000714652
Ni      4.9097746724     4.2493687785    13.2999083557
Ni      6.1381753332     6.3777236963    13.3002114266
Ni      9.8242401382     8.5048965262    13.3006651268
Ni      6.1383488758     2.1205673013    13.2999063318
Ni      7.3669945984     4.2490354599    13.2997179038
Ni      8.5955575947     6.3769362264    13.3001209669
Ni     12.2817975856     8.5052637967    13.3003794781
Ni      8.5960276831     2.1204085428    13.3002593974
Ni      9.8247275537     4.2486972982    13.2999367980
Ni     11.0530870800     6.3770654519    13.3001644979
Cu      2.4473685110     1.4018998935    15.3756403469
Cu      3.6755474777     3.5308304430    15.3734297858
Cu      4.9034490317     5.6608739330    15.3739521323
Cu      6.1328432347     7.7890156507    15.3767020592
Cu      4.9045269631     1.4014842091    15.3755218055
Cu      6.1327147398     3.5310048315    15.3733078619
Cu      7.3614047995     5.6608581782    15.3739821001
Cu      8.5910522412     7.7878523801    15.3768861079
Cu      7.3625766740     1.4026597728    15.3739339146
Cu      8.5914028005     3.5316199659    15.3746131648
Cu      9.8201459044     5.6602416292    15.3744300845
Cu     11.0494031884     7.7879553152    15.3768806558
Cu      9.8203191407     1.4034856334    15.3759699084
Cu     11.0488358315     3.5313093476    15.3757024729
Cu     12.2771670744     5.6597470212    15.3763494940
Cu     13.5057113864     7.7884544257    15.3769991115
Cu      1.2136706800     0.6832937716    17.5696344700
Cu      2.4378828559     2.8195579150    17.5404621177
Cu      3.6606558608     4.9461971078    17.5520184012
Cu      4.8964865799     7.0748639703    17.5653243858
Cu      3.6710204531     0.6799442594    17.5687662947
Cu      4.8937018053     2.7993795589    17.5359404745
Cu      6.1292293315     4.9529486183    17.5342070586
Cu      7.3555230844     7.0775485681    17.5615061168
Cu      6.1302739049     0.6781667711    17.5636312722
Cu      7.3632275786     2.8069071662    17.5500434557
Cu      8.5971659894     4.9458670978    17.5341319247
Cu      9.8180822504     7.0734651918    17.5648138760
Cu      8.5885750389     0.6817700148    17.5622530392
Cu      9.8198224965     2.8100601876    17.5664983008
Cu     11.0468775020     4.9420495719    17.5645455432
Cu     12.2740186065     7.0698882695    17.5709449319
O       6.0094593341     3.5037996368    21.2617707685
O       7.4657140076     4.3604868272    19.4264454911
O       6.4997657254     4.3027684919    24.0319340102
C       7.0470853973     4.4019885562    21.7252605688
C       8.1609329220     4.4423555563    20.6790431822
C       7.5603028436     4.0760056700    23.0954941766
H       6.5409128111     5.3815361975    21.7307229371
H       8.8637141106     3.5896879673    20.7522116978
H       8.7342949795     5.3763664792    20.6901885016
H       8.4301889793     4.7226526802    23.3007629402
H       7.9044397749     3.0265326108    23.1117225760
H       6.3505237282     2.5830865158    21.2491011882
H       6.5807398879     3.9422931855    19.6673725545
H       6.8259115777     4.1268665502    24.9196021704
O       3.0638012574     1.7777079247    19.1466917428
H       2.3753621031     1.3844509253    19.7190596100
80
Step 4 | NEB Image 4 | Cartesian Angstrom
Ni      1.2286082050     0.7093308618    11.2499109603
Ni      2.4572395277     2.8374298072    11.2498175724
Ni      3.6858920590     4.9655617173    11.2497498971
Ni      4.9145639953     7.0936916666    11.2497612352
Ni      3.6859150938     0.7093050041    11.2498359577
Ni      4.9145712793     2.8374155494    11.2497178940
Ni      6.1432451580     4.9655625741    11.2496718298
Ni      7.3719187808     7.0936947555    11.2497305822
Ni      6.1432497588     0.7092869677    11.2497820342
Ni      7.3719299146     2.8374087464    11.2496884102
Ni      8.6006075261     4.9655561280    11.2496905902
Ni      9.8292622331     7.0936776501    11.2497804097
Ni      8.6005923191     0.7092883860    11.2497865746
Ni      9.8292756898     2.8374140680    11.2497461067
Ni     11.0579356215     4.9655475694    11.2497858900
Ni     12.2865681334     7.0936536624    11.2498647966
Ni     14.7391949778     8.5053872363    13.3010853615
Ni     11.0533549671     2.1205428379    13.3003679005
Ni     12.2819374578     4.2489804671    13.3002581421
Ni     13.5103460356     6.3773923136    13.3007544503
Ni      7.3672963510     8.5049763025    13.3007019889
Ni      3.6812412344     2.1206551615    13.3001369187
Ni      4.9098015072     4.2493734407    13.3000263371
Ni      6.1381888776     6.3776973347    13.3003204589
Ni      9.8242307425     8.5048741530    13.3007168207
Ni      6.1383598948     2.1206011004    13.2999907789
Ni      7.3669939256     4.2490450478    13.2998382833
Ni      8.5955492642     6.3769178238    13.3002170255
Ni     12.2817848007     8.5052513933    13.3004095425
Ni      8.5960231615     2.1204366964    13.3003343892
Ni      9.8247112969     4.2487054202    13.3000237918
Ni     11.0530683378     6.3770550914    13.3002257066
Cu      2.4474193904     1.4019764227    15.3757525652
Cu      3.6756746016     3.5308538905    15.3737999837
Cu      4.9036112204     5.6607425959    15.3744304762
Cu      6.1328922516     7.7888865038    15.3769180379
Cu      4.9045850600     1.4016230981    15.3756898282
Cu      6.1327581363     3.5311418729    15.3738455685
Cu      7.3613914199     5.6607727542    15.3744619248
Cu      8.5910404308     7.7877535220    15.3770929473
Cu      7.3625975361     1.4027946756    15.3741103380
Cu      8.5913781721     3.5317202754    15.3749556687
Cu      9.8200773213     5.6602078592    15.3747305876
Cu     11.0493573216     7.7879029265    15.3770024712
Cu      9.8203003282     1.4035724633    15.3761202902
Cu     11.0487687184     3.5313506132    15.3758920972
Cu     12.2771042298     5.6597332790    15.3764656478
Cu     13.5056806090     7.7884359015    15.3770430002
Cu      1.2136127400     0.6833129701    17.5694545064
Cu      2.4380864323     2.8168149580    17.5451737281
Cu      3.6631626196     4.9459632370    17.5539860123
Cu      4.8969606473     7.0739881246    17.5661422537
Cu      3.6709482334     0.6800969485    17.5686252727
Cu      4.8970696760     2.8026771282    17.5387683763
Cu      6.1277635922     4.9505594530    17.5413761981
Cu      7.3558142361     7.0767370715    17.5627387364
Cu      6.1305514965     0.6784603863    17.5635339474
Cu      7.3627037098     2.8081837377    17.5515129564
Cu      8.5975460586     4.9467260883    17.5381094250
Cu      9.8178342260     7.0729847102    17.5657425750
Cu      8.5887309523     0.6820811197    17.5625544605
Cu      9.8196276969     2.8105850177    17.5676368679
Cu     11.0463913468     4.9420532518    17.5654024449
Cu     12.2738593967     7.0697923599    17.5711438745
O       5.9763400740     3.0051062268    21.0075165215
O       7.4778338947     4.2645629965    19.0471739163
O       6.0490900759     4.2904065872    23.6458350938
C       6.7378755508     4.1868151966    21.3581907675
C       7.9174087693     4.3529190281    20.4092255920
C       7.1904629428     4.0920445023    22.8059000137
H       6.0626874214     5.0598284193    21.2550233562
H       8.6676247911     3.5558160249    20.5890315693
H       8.4119992840     5.3211390634    20.5812839100
H       7.9628897466     4.8594024382    23.0041583517
H       7.6394626339     3.0970223293    22.9664847711
H       6.4390879659     2.5709284867    20.2554220710
H       4.3980518618     2.9354419809    20.3162675629
H       6.3066534569     4.1038758427    24.5683930021
O       3.5120689707     2.7433630114    19.8766963621
H       3.3030736258     1.8290257978    20.0763936735
80
Step 5 | NEB Image 5 | Cartesian Angstrom
Ni      1.2286497034     0.7093615225    11.2499999440
Ni      2.4572989609     2.8374461750    11.2499999440
Ni      3.6859482184     4.9655308275    11.2499999440
Ni      4.9145974759     7.0936154800    11.2499999440
Ni      3.6859497034     0.7093615225    11.2499999440
Ni      4.9145989609     2.8374461750    11.2499999440
Ni      6.1432482184     4.9655308275    11.2499999440
Ni      7.3718974759     7.0936154800    11.2499999440
Ni      6.1432497034     0.7093615225    11.2499999440
Ni      7.3718989609     2.8374461750    11.2499999440
Ni      8.6005482184     4.9655308275    11.2499999440
Ni      9.8291974759     7.0936154800    11.2499999440
Ni      8.6005497034     0.7093615225    11.2499999440
Ni      9.8291989609     2.8374461750    11.2499999440
Ni     11.0578482184     4.9655308275    11.2499999440
Ni     12.2864974759     7.0936154800    11.2499999440
Ni     14.7391156794     8.5053429999    13.3011712910
Ni     11.0531329642     2.1206495503    13.3008022026
Ni     12.2817169557     4.2489790177    13.3006008466
Ni     13.5101985270     6.3773433856    13.3009432678
Ni      7.3672569131     8.5047181091    13.3011774747
Ni      3.6813641840     2.1207833643    13.3007249066
Ni      4.9098915592     4.2493198517    13.3009123494
Ni      6.1382080000     6.3774560890    13.3011137055
Ni      9.8241033938     8.5046823573    13.3010831736
Ni      6.1383369699     2.1207818321    13.3007716707
Ni      7.3668809566     4.2490234521    13.3008056810
Ni      8.5953896076     6.3767159412    13.3009509974
Ni     12.2816608204     8.5051500252    13.3006066438
Ni      8.5958457422     2.1206092019    13.3010364095
Ni      9.8244550440     4.2487038138    13.3007276120
Ni     11.0528529688     6.3769410074    13.3006611374
Cu      2.4478274055     1.4024593708    15.3768195742
Cu      3.6763308468     3.5307009057    15.3768060474
Cu      4.9041378398     5.6597275336    15.3773448005
Cu      6.1330260451     7.7878910103    15.3784795057
Cu      4.9046987540     1.4026027186    15.3777977550
Cu      6.1325026510     3.5313493756    15.3777258697
Cu      7.3610720952     5.6598451741    15.3779276123
Cu      8.5906751295     7.7868954923    15.3785351588
Cu      7.3621786280     1.4037477983    15.3762151195
Cu      8.5904727564     3.5321453644    15.3780682910
Cu      9.8190628915     5.6596863338    15.3769316534
Cu     11.0489115080     7.7874997832    15.3777154348
Cu      9.8196453802     1.4041813317    15.3774700200
Cu     11.0479045662     3.5315147704    15.3771971651
Cu     12.2765483193     5.6595852924    15.3771299176
Cu     13.5054403579     7.7883030926    15.3772814178
Cu      1.2140125591     0.6836803076    17.5697065574
Cu      2.4431555374     2.8116125893    17.5665702724
Cu      3.6705110760     4.9384343512    17.5687388115
Cu      4.8988742539     7.0688538531    17.5715929661
Cu      3.6716454744     0.6829118137    17.5713989532
Cu      4.8981418913     2.8112417067    17.5722074693
Cu      6.1274353048     4.9410331682    17.5708265763
Cu      7.3554752500     7.0698228126    17.5713297733
Cu      6.1297077779     0.6833063606    17.5689100221
Cu      7.3567237656     2.8135682139    17.5698797004
Cu      8.5851063076     4.9421568820    17.5702368079
Cu      9.8152975701     7.0699596058    17.5700617325
Cu      8.5865082080     0.6855771971    17.5667967496
Cu      9.8144914881     2.8135456562    17.5749499312
Cu     11.0427692018     4.9416447797    17.5690866435
Cu     12.2728600100     7.0692517198    17.5719744219
O       5.4816243728     2.5651691502    20.6539118200
O       7.3508896973     4.2099530947    19.0383354809
O       4.4981563510     3.9587391709    22.9072956728
C       5.9290713561     3.8945947838    20.9960208007
C       7.3297021271     4.1881915565    20.4688911028
C       5.8721709119     4.0116672750    22.5089584937
H       5.2340507257     4.6323215466    20.5533350446
H       8.0432145389     3.4244560240    20.8191443760
H       7.6571223136     5.1738780612    20.8354754738
H       6.3359933253     4.9675285031    22.8148914030
H       6.4497260984     3.1808581747    22.9509168945
H       5.8597578631     2.3152772777    19.7784701378
H       3.6583776659     2.5435355524    20.3168147116
H       4.4610770249     3.8064239805    23.8648388416
O       2.7103082747     2.5416543255    20.0177020144
H       2.4292112216     1.6097423068    20.0822731560
