80
Step 1 | NEB Image 1 | Cartesian Angstrom
Ni      1.2286497034     0.7093615225    11.2499999440
Ni      2.4572989609     2.8374461750    11.2499999440
Ni      3.6859482184     4.9655308275    11.2499999440
Ni      4.9145974759     7.0936154800    11.2499999440
Ni      3.6859497034     0.7093615225    11.2499999440
Ni      4.9145989609     2.8374461750    11.2499999440
Ni      6.1432482184     4.9655308275    11.2499999440
Ni      7.3718974759     7.0936154800    11.2499999440
Ni      6.1432497034     0.7093615225    11.2499999440
Ni      7.3718989609     2.8374461750    11.2499999440
Ni      8.6005482184     4.9655308275    11.2499999440
Ni      9.8291974759     7.0936154800    11.2499999440
Ni      8.6005497034     0.7093615225    11.2499999440
Ni      9.8291989609     2.8374461750    11.2499999440
Ni     11.0578482184     4.9655308275    11.2499999440
Ni     12.2864974759     7.0936154800    11.2499999440
Ni     14.7391156794     8.5053429999    13.3011712910
Ni     11.0531329642     2.1206495503    13.3008022026
Ni     12.2817169557     4.2489790177    13.3006008466
Ni     13.5101985270     6.3773433856    13.3009432678
Ni      7.3672569131     8.5047181091    13.3011774747
Ni      3.6813641840     2.1207833643    13.3007249066
Ni      4.9098915592     4.2493198517    13.3009123494
Ni      6.1382080000     6.3774560890    13.3011137055
Ni      9.8241033938     8.5046823573    13.3010831736
Ni      6.1383369699     2.1207818321    13.3007716707
Ni      7.3668809566     4.2490234521    13.3008056810
Ni      8.5953896076     6.3767159412    13.3009509974
Ni     12.2816608204     8.5051500252    13.3006066438
Ni      8.5958457422     2.1206092019    13.3010364095
Ni      9.8244550440     4.2487038138    13.3007276120
Ni     11.0528529688     6.3769410074    13.3006611374
Cu      2.4478274055     1.4024593708    15.3768195742
Cu      3.6763308468     3.5307009057    15.3768060474
Cu      4.9041378398     5.6597275336    15.3773448005
Cu      6.1330260451     7.7878910103    15.3784795057
Cu      4.9046987540     1.4026027186    15.3777977550
Cu      6.1325026510     3.5313493756    15.3777258697
Cu      7.3610720952     5.6598451741    15.3779276123
Cu      8.5906751295     7.7868954923    15.3785351588
Cu      7.3621786280     1.4037477983    15.3762151195
Cu      8.5904727564     3.5321453644    15.3780682910
Cu      9.8190628915     5.6596863338    15.3769316534
Cu     11.0489115080     7.7874997832    15.3777154348
Cu      9.8196453802     1.4041813317    15.3774700200
Cu     11.0479045662     3.5315147704    15.3771971651
Cu     12.2765483193     5.6595852924    15.3771299176
Cu     13.5054403579     7.7883030926    15.3772814178
Cu      1.2140125591     0.6836803076    17.5697065574
Cu      2.4431555374     2.8116125893    17.5665702724
Cu      3.6705110760     4.9384343512    17.5687388115
Cu      4.8988742539     7.0688538531    17.5715929661
Cu      3.6716454744     0.6829118137    17.5713989532
Cu      4.8981418913     2.8112417067    17.5722074693
Cu      6.1274353048     4.9410331682    17.5708265763
Cu      7.3554752500     7.0698228126    17.5713297733
Cu      6.1297077779     0.6833063606    17.5689100221
Cu      7.3567237656     2.8135682139    17.5698797004
Cu      8.5851063076     4.9421568820    17.5702368079
Cu      9.8152975701     7.0699596058    17.5700617325
Cu      8.5865082080     0.6855771971    17.5667967496
Cu      9.8144914881     2.8135456562    17.5749499312
Cu     11.0427692018     4.9416447797    17.5690866435
Cu     12.2728600100     7.0692517198    17.5719744219
O       7.2288202015     4.2734569284    22.3446828621
O       8.3044696405     5.3171068409    20.0014702420
O       8.8891638945     4.8479579810    24.7349733808
C       8.5251333110     4.9000290628    22.3715153937
C       9.1804211035     4.7744357207    20.9993344800
C       9.4189460410     4.3898719266    23.4895992517
H       8.3072385962     5.9614198807    22.5605187870
H       9.4153356173     3.7172718747    20.7683620669
H      10.1139922737     5.3503076003    20.9408546493
H      10.4461642949     4.7683945991    23.3275539960
H       9.4595638267     3.2836247445    23.4537018323
H       7.3561498138     3.3073831923    22.3295378714
H       7.4071380143     4.9636379387    20.1831718691
H       9.4432595602     4.5017937719    25.4528614775
O       2.4447775074     1.3898406800    19.0162048647
H       2.5328987835     1.2730973609    19.9764139723
80
Step 2 | NEB Image 2 | Cartesian Angstrom
Ni      1.2286107888     0.7093338764    11.2499224721
Ni      2.4572416680     2.8374300277    11.2498417653
Ni      3.6858884542     4.9655541455    11.2497787047
Ni      4.9145562815     7.0936810402    11.2497810292
Ni      3.6859142893     0.7093101886    11.2498585400
Ni      4.9145638480     2.8374139897    11.2497512459
Ni      6.1432319001     4.9655533567    11.2496987962
Ni      7.3719062197     7.0936851594    11.2497449190
Ni      6.1432407762     0.7092915738    11.2498083160
Ni      7.3719141520     2.8374054914    11.2497155516
Ni      8.6005911855     4.9655485292    11.2497073496
Ni      9.8292499081     7.0936710973    11.2497864340
Ni      8.6005787401     0.7092906735    11.2498053658
Ni      9.8292594220     2.8374109749    11.2497603792
Ni     11.0579222412     4.9655427742    11.2497914743
Ni     12.2865600701     7.0936503889    11.2498645751
Ni     14.7391913644     8.5053866263    13.3010795071
Ni     11.0533180233     2.1205366021    13.3003830369
Ni     12.2819130140     4.2489716294    13.3002545935
Ni     13.5103358824     6.3773884441    13.3007450272
Ni      7.3672696040     8.5049547338    13.3007205039
Ni      3.6812470209     2.1206698677    13.3002329148
Ni      4.9097663732     4.2493425125    13.3001342154
Ni      6.1381492980     6.3776626416    13.3003701989
Ni      9.8242072084     8.5048623677    13.3007177674
Ni      6.1383170635     2.1206013992    13.3000945075
Ni      7.3669399830     4.2490157232    13.2999058413
Ni      8.5955078524     6.3768917389    13.3002438223
Ni     12.2817732511     8.5052481727    13.3004017251
Ni      8.5959702856     2.1204316165    13.3003923405
Ni      9.8246618293     4.2486884156    13.3000519744
Ni     11.0530389823     6.3770427043    13.3002243398
Cu      2.4475096601     1.4020677563    15.3758047646
Cu      3.6757852258     3.5308025287    15.3744593174
Cu      4.9033748145     5.6605479193    15.3746686533
Cu      6.1327913433     7.7888048656    15.3769846677
Cu      4.9045469194     1.4018318862    15.3762007368
Cu      6.1324144470     3.5309093446    15.3742524638
Cu      7.3612571952     5.6606354975    15.3745610724
Cu      8.5909354513     7.7876910900    15.3770999712
Cu      7.3623846549     1.4028231994    15.3743993409
Cu      8.5911434770     3.5316515532    15.3751638680
Cu      9.8198834889     5.6601141872    15.3747820524
Cu     11.0493099220     7.7878935606    15.3769508626
Cu      9.8201447745     1.4035657322    15.3762045303
Cu     11.0486439564     3.5313094691    15.3758729964
Cu     12.2770673415     5.6597185133    15.3764017013
Cu     13.5056751800     7.7884387313    15.3770111011
Cu      1.2130782575     0.6828263891    17.5688452269
Cu      2.4398888731     2.8218993234    17.5448415586
Cu      3.6640140132     4.9425596083    17.5591947417
Cu      4.8962760597     7.0734810886    17.5665404234
Cu      3.6723556016     0.6801023108    17.5683629214
Cu      4.8945858036     2.8043031111    17.5522922248
Cu      6.1245602489     4.9497447969    17.5351277375
Cu      7.3551001633     7.0763341693    17.5627330811
Cu      6.1297806942     0.6797063356    17.5653872183
Cu      7.3610082397     2.8062339193    17.5526471871
Cu      8.5929916209     4.9440107983    17.5418326825
Cu      9.8174433279     7.0730460427    17.5650984749
Cu      8.5878237668     0.6824320841    17.5632716751
Cu      9.8184920146     2.8103544517    17.5675585986
Cu     11.0462383042     4.9418844572    17.5645303042
Cu     12.2739010447     7.0698584380    17.5708996117
O       6.5138983999     3.7268795430    21.9052381651
O       7.9111223912     5.2454729650    20.0405162756
O       7.4478252107     4.1311224138    24.7122596086
C       7.6280999092     4.5412078040    22.3246031491
C       8.6261082595     4.6861157812    21.1512887269
C       8.3153938373     3.9812658916    23.5890026411
H       7.2224401649     5.4982616415    22.5598975076
H       9.0454369361     3.6951706909    20.8756320055
H       9.4260121513     5.3564862277    21.3978591469
H       9.2551948090     4.5493709245    23.7392756709
H       8.5865125580     2.9209563933    23.4280412032
H       6.8000542653     2.8279079179    21.7710980481
H       7.0599836358     4.7835479040    19.9775180731
H       7.8521034355     3.8477355355    25.4641606638
O       2.4426858649     1.4101585757    18.9965123309
H       2.5249714516     1.3919364019    19.9465045462
80
Step 3 | NEB Image 3 | Cartesian Angstrom
Ni      1.2286003752     0.7093247615    11.2498983914
Ni      2.4572276561     2.8374251291    11.2497878685
Ni      3.6858805288     4.9655653461    11.2497074451
Ni      4.9145569546     7.0937033787    11.2497218301
Ni      3.6859078898     0.7092944718    11.2498124700
Ni      4.9145647455     2.8374080810    11.2496735622
Ni      6.1432428405     4.9655656602    11.2496196191
Ni      7.3719204056     7.0937058588    11.2496884307
Ni      6.1432476259     0.7092741347    11.2497518589
Ni      7.3719321679     2.8374007454    11.2496427056
Ni      8.6006140944     4.9655579417    11.2496444487
Ni      9.8292700513     7.0936857584    11.2497470082
Ni      8.6005958382     0.7092767155    11.2497577277
Ni      9.8292839740     2.8374077761    11.2497099980
Ni     11.0579461090     4.9655486422    11.2497541371
Ni     12.2865771907     7.0936585323    11.2498439930
Ni     14.7392060207     8.5053934844    13.3010713322
Ni     11.0533788131     2.1205243810    13.3003055742
Ni     12.2819648627     4.2489780031    13.3002051653
Ni     13.5103659486     6.3773984557    13.3007238128
Ni      7.3672982768     8.5050146402    13.3006273664
Ni      3.6812142206     2.1206254660    13.3000446397
Ni      4.9097785314     4.2493743987    13.2998729944
Ni      6.1381816395     6.3777337077    13.3001887166
Ni      9.8242459326     8.5049014992    13.3006588769
Ni      6.1383561254     2.1205632745    13.2998757403
Ni      7.3670054360     4.2490401823    13.2996903138
Ni      8.5955668297     6.3769435852    13.3001043597
Ni     12.2818013874     8.5052658927    13.3003775122
Ni      8.5960387564     2.1204062538    13.3002390505
Ni      9.8247393230     4.2486997357    13.2999209795
Ni     11.0530951307     6.3770691361    13.3001575943
Cu      2.4473445316     1.4018726865    15.3756167909
Cu      3.6755104747     3.5308379220    15.3732548092
Cu      4.9034771556     5.6609281823    15.3738484740
Cu      6.1328576128     7.7890470815    15.3766634396
Cu      4.9045277423     1.4014262513    15.3754001975
Cu      6.1327782093     3.5310351195    15.3731636081
Cu      7.3614331424     5.6608955661    15.3739060576
Cu      8.5910745588     7.7878764205    15.3768604530
Cu      7.3626166767     1.4026382624    15.3738556085
Cu      8.5914524787     3.5316219006    15.3745315019
Cu      9.8201925949     5.6602642645    15.3743845846
Cu     11.0494180181     7.7879633247    15.3768766632
Cu      9.8203523561     1.4034767959    15.3759354834
Cu     11.0488685738     3.5313127121    15.3756840497
Cu     12.2771817974     5.6597515759    15.3763486271
Cu     13.5057160769     7.7884560327    15.3770003273
Cu      1.2137842131     0.6833886571    17.5697772917
Cu      2.4374994935     2.8188657437    17.5399751173
Cu      3.6601912534     4.9469034478    17.5507481243
Cu      4.8965675318     7.0750679412    17.5651489952
Cu      3.6707481045     0.6799254138    17.5688354699
Cu      4.8938010328     2.7986673052    17.5329105918
Cu      6.1300412957     4.9533918849    17.5346121012
Cu      7.3556312976     7.0777240457    17.5613627144
Cu      6.1303950010     0.6778838622    17.5632732228
Cu      7.3636272429     2.8071463994    17.5496453569
Cu      8.5980293645     4.9463075632    17.5329227182
Cu      9.8181892949     7.0735093129    17.5648333829
Cu      8.5887375850     0.6816635825    17.5620747000
Cu      9.8200717382     2.8100446174    17.5663803743
Cu     11.0469650358     4.9420827993    17.5646189748
Cu     12.2740289700     7.0698863359    17.5709703178
O       5.8467057898     3.2819115510    21.9154232970
O       7.2268873268     4.3993083179    19.9026809034
O       6.4827693931     4.2000998317    24.6503788517
C       6.8527754527     4.2624586757    22.2698756703
C       7.9088572167     4.3216678876    21.1626183808
C       7.4748499512     3.9962528208    23.6271100679
H       6.3122761054     5.2143328447    22.2969658567
H       8.5544672103     3.4147146781    21.1821196777
H       8.5416706342     5.1993386743    21.2489435117
H       8.3309115998     4.6795018293    23.7641207248
H       7.8640552350     2.9605668839    23.6551603644
H       6.2197635942     2.4062732642    22.0314438154
H       6.4393012017     3.8334753396    19.9760277265
H       6.8629560783     4.0080256743    25.4898250025
O       3.6129448015     2.0935155526    19.0068625988
H       3.4197939178     2.0749498502    19.9232653197
80
Step 4 | NEB Image 4 | Cartesian Angstrom
Ni      1.2286019261     0.7093259294    11.2499005839
Ni      2.4572300794     2.8374261091    11.2497931714
Ni      3.6858831120     4.9655648846    11.2497152567
Ni      4.9145587546     7.0937013316    11.2497293617
Ni      3.6859094453     0.7092964890    11.2498165239
Ni      4.9145664269     2.8374097228    11.2496815879
Ni      6.1432438659     4.9655653799    11.2496295685
Ni      7.3719205693     7.0937038987    11.2496967636
Ni      6.1432484395     0.7092766618    11.2497571775
Ni      7.3719323280     2.8374025684    11.2496512727
Ni      8.6006133655     4.9655578650    11.2496535275
Ni      9.8292688960     7.0936843086    11.2497538269
Ni      8.6005956424     0.7092790906    11.2497630681
Ni      9.8292828793     2.8374092312    11.2497170562
Ni     11.0579444319     4.9655486089    11.2497606251
Ni     12.2865756013     7.0936576348    11.2498484004
Ni     14.7392038317     8.5053921880    13.3010745348
Ni     11.0533752627     2.1205285351    13.3003181408
Ni     12.2819600553     4.2489788808    13.3002165095
Ni     13.5103621482     6.3773973133    13.3007306710
Ni      7.3672989497     8.5050074056    13.3006423958
Ni      3.6812196976     2.1206311495    13.3000602724
Ni      4.9097848076     4.2493754448    13.2999010564
Ni      6.1381847683     6.3777274187    13.3002145607
Ni      9.8242436712     8.5048961933    13.3006710896
Ni      6.1383586519     2.1205712591    13.2998958733
Ni      7.3670051809     4.2490423948    13.2997188700
Ni      8.5955647880     6.3769391917    13.3001270982
Ni     12.2817983468     8.5052629571    13.3003846000
Ni      8.5960375940     2.1204128951    13.3002568681
Ni      9.8247353946     4.2487016239    13.2999415792
Ni     11.0530906511     6.3770666666    13.3001720504
Cu      2.4473567115     1.4018909273    15.3756433916
Cu      3.6755407017     3.5308433694    15.3733434341
Cu      4.9035150457     5.6608968104    15.3739618934
Cu      6.1328690114     7.7890164290    15.3767145765
Cu      4.9045413980     1.4014594324    15.3754407991
Cu      6.1327878468     3.5310670765    15.3732913507
Cu      7.3614297424     5.6608751426    15.3740195775
Cu      8.5910715817     7.7878529572    15.3769093245
Cu      7.3626212250     1.4026701797    15.3738977980
Cu      8.5914462426     3.5316454730    15.3746127783
Cu      9.8201760487     5.6602561204    15.3744556604
Cu     11.0494070990     7.7879509329    15.3769053460
Cu      9.8203476350     1.4034972946    15.3759711563
Cu     11.0488524981     3.5313223864    15.3757288081
Cu     12.2771668867     5.6597483034    15.3763759506
Cu     13.5057087971     7.7884516620    15.3770106376
Cu      1.2137695702     0.6833923220    17.5697336900
Cu      2.4375507981     2.8182268775    17.5410875036
Cu      3.6607849295     4.9468421285    17.5512222164
Cu      4.8966782931     7.0748601437    17.5653429017
Cu      3.6707335587     0.6799614886    17.5688016836
Cu      4.8945921749     2.7994491751    17.5336027431
Cu      6.1296893228     4.9528260565    17.5362944366
Cu      7.3556987998     7.0775316379    17.5616538702
Cu      6.1304591993     0.6779554421    17.5632535367
Cu      7.3635004690     2.8074444675    17.5499944936
Cu      8.5981110249     4.9465056336    17.5338689206
Cu      9.8181300098     7.0733959240    17.5650516094
Cu      8.5887727978     0.6817376962    17.5621471797
Cu      9.8200236988     2.8101681802    17.5666491844
Cu     11.0468499244     4.9420833675    17.5648198341
Cu     12.2739914362     7.0698637983    17.5710168757
O       6.1069881709     2.8226314225    21.1010084820
O       7.4238539520     4.2470966966    19.0614306773
O       6.2122424577     4.2059147786    23.7515582326
C       6.7707748088     4.1021946447    21.4403705629
C       7.8845203233     4.3466832302    20.4181703465
C       7.3143494058     4.0647489072    22.8601121124
H       6.0237495925     4.9072706019    21.3741701532
H       8.6952484740     3.6007028897    20.5659837773
H       8.3155541771     5.3422531743    20.5927277358
H       8.0482031916     4.8714508571    23.0026815403
H       7.8333221939     3.0906056431    23.0159547865
H       6.5373397762     2.4239067087    20.4521282041
H       4.5618543221     2.9496995108    20.4512786366
H       6.5363951031     4.0394588912    24.6793999654
O       3.6394664720     2.8724986447    19.9296025417
H       3.3860821344     2.0312566979    20.0654458252
80
Step 5 | NEB Image 5 | Cartesian Angstrom
Ni      1.2286497034     0.7093615225    11.2499999440
Ni      2.4572989609     2.8374461750    11.2499999440
Ni      3.6859482184     4.9655308275    11.2499999440
Ni      4.9145974759     7.0936154800    11.2499999440
Ni      3.6859497034     0.7093615225    11.2499999440
Ni      4.9145989609     2.8374461750    11.2499999440
Ni      6.1432482184     4.9655308275    11.2499999440
Ni      7.3718974759     7.0936154800    11.2499999440
Ni      6.1432497034     0.7093615225    11.2499999440
Ni      7.3718989609     2.8374461750    11.2499999440
Ni      8.6005482184     4.9655308275    11.2499999440
Ni      9.8291974759     7.0936154800    11.2499999440
Ni      8.6005497034     0.7093615225    11.2499999440
Ni      9.8291989609     2.8374461750    11.2499999440
Ni     11.0578482184     4.9655308275    11.2499999440
Ni     12.2864974759     7.0936154800    11.2499999440
Ni     14.7391156794     8.5053429999    13.3011712910
Ni     11.0531329642     2.1206495503    13.3008022026
Ni     12.2817169557     4.2489790177    13.3006008466
Ni     13.5101985270     6.3773433856    13.3009432678
Ni      7.3672569131     8.5047181091    13.3011774747
Ni      3.6813641840     2.1207833643    13.3007249066
Ni      4.9098915592     4.2493198517    13.3009123494
Ni      6.1382080000     6.3774560890    13.3011137055
Ni      9.8241033938     8.5046823573    13.3010831736
Ni      6.1383369699     2.1207818321    13.3007716707
Ni      7.3668809566     4.2490234521    13.3008056810
Ni      8.5953896076     6.3767159412    13.3009509974
Ni     12.2816608204     8.5051500252    13.3006066438
Ni      8.5958457422     2.1206092019    13.3010364095
Ni      9.8244550440     4.2487038138    13.3007276120
Ni     11.0528529688     6.3769410074    13.3006611374
Cu      2.4478274055     1.4024593708    15.3768195742
Cu      3.6763308468     3.5307009057    15.3768060474
Cu      4.9041378398     5.6597275336    15.3773448005
Cu      6.1330260451     7.7878910103    15.3784795057
Cu      4.9046987540     1.4026027186    15.3777977550
Cu      6.1325026510     3.5313493756    15.3777258697
Cu      7.3610720952     5.6598451741    15.3779276123
Cu      8.5906751295     7.7868954923    15.3785351588
Cu      7.3621786280     1.4037477983    15.3762151195
Cu      8.5904727564     3.5321453644    15.3780682910
Cu      9.8190628915     5.6596863338    15.3769316534
Cu     11.0489115080     7.7874997832    15.3777154348
Cu      9.8196453802     1.4041813317    15.3774700200
Cu     11.0479045662     3.5315147704    15.3771971651
Cu     12.2765483193     5.6595852924    15.3771299176
Cu     13.5054403579     7.7883030926    15.3772814178
Cu      1.2140125591     0.6836803076    17.5697065574
Cu      2.4431555374     2.8116125893    17.5665702724
Cu      3.6705110760     4.9384343512    17.5687388115
Cu      4.8988742539     7.0688538531    17.5715929661
Cu      3.6716454744     0.6829118137    17.5713989532
Cu      4.8981418913     2.8112417067    17.5722074693
Cu      6.1274353048     4.9410331682    17.5708265763
Cu      7.3554752500     7.0698228126    17.5713297733
Cu      6.1297077779     0.6833063606    17.5689100221
Cu      7.3567237656     2.8135682139    17.5698797004
Cu      8.5851063076     4.9421568820    17.5702368079
Cu      9.8152975701     7.0699596058    17.5700617325
Cu      8.5865082080     0.6855771971    17.5667967496
Cu      9.8144914881     2.8135456562    17.5749499312
Cu     11.0427692018     4.9416447797    17.5690866435
Cu     12.2728600100     7.0692517198    17.5719744219
O       5.4816243728     2.5651691502    20.6539118200
O       7.3508896973     4.2099530947    19.0383354809
O       4.4981563510     3.9587391709    22.9072956728
C       5.9290713561     3.8945947838    20.9960208007
C       7.3297021271     4.1881915565    20.4688911028
C       5.8721709119     4.0116672750    22.5089584937
H       5.2340507257     4.6323215466    20.5533350446
H       8.0432145389     3.4244560240    20.8191443760
H       7.6571223136     5.1738780612    20.8354754738
H       6.3359933253     4.9675285031    22.8148914030
H       6.4497260984     3.1808581747    22.9509168945
H       5.8597578631     2.3152772777    19.7784701378
H       3.6583776659     2.5435355524    20.3168147116
H       4.4610770249     3.8064239805    23.8648388416
O       2.7103082747     2.5416543255    20.0177020144
H       2.4292112216     1.6097423068    20.0822731560
