80
Step 1 | NEB Image 1 | Cartesian Angstrom
Ni      1.2286497034     0.7093615225    11.2499999440
Ni      2.4572989609     2.8374461750    11.2499999440
Ni      3.6859482184     4.9655308275    11.2499999440
Ni      4.9145974759     7.0936154800    11.2499999440
Ni      3.6859497034     0.7093615225    11.2499999440
Ni      4.9145989609     2.8374461750    11.2499999440
Ni      6.1432482184     4.9655308275    11.2499999440
Ni      7.3718974759     7.0936154800    11.2499999440
Ni      6.1432497034     0.7093615225    11.2499999440
Ni      7.3718989609     2.8374461750    11.2499999440
Ni      8.6005482184     4.9655308275    11.2499999440
Ni      9.8291974759     7.0936154800    11.2499999440
Ni      8.6005497034     0.7093615225    11.2499999440
Ni      9.8291989609     2.8374461750    11.2499999440
Ni     11.0578482184     4.9655308275    11.2499999440
Ni     12.2864974759     7.0936154800    11.2499999440
Ni     14.7391156794     8.5053429999    13.3011712910
Ni     11.0531329642     2.1206495503    13.3008022026
Ni     12.2817169557     4.2489790177    13.3006008466
Ni     13.5101985270     6.3773433856    13.3009432678
Ni      7.3672569131     8.5047181091    13.3011774747
Ni      3.6813641840     2.1207833643    13.3007249066
Ni      4.9098915592     4.2493198517    13.3009123494
Ni      6.1382080000     6.3774560890    13.3011137055
Ni      9.8241033938     8.5046823573    13.3010831736
Ni      6.1383369699     2.1207818321    13.3007716707
Ni      7.3668809566     4.2490234521    13.3008056810
Ni      8.5953896076     6.3767159412    13.3009509974
Ni     12.2816608204     8.5051500252    13.3006066438
Ni      8.5958457422     2.1206092019    13.3010364095
Ni      9.8244550440     4.2487038138    13.3007276120
Ni     11.0528529688     6.3769410074    13.3006611374
Cu      2.4478274055     1.4024593708    15.3768195742
Cu      3.6763308468     3.5307009057    15.3768060474
Cu      4.9041378398     5.6597275336    15.3773448005
Cu      6.1330260451     7.7878910103    15.3784795057
Cu      4.9046987540     1.4026027186    15.3777977550
Cu      6.1325026510     3.5313493756    15.3777258697
Cu      7.3610720952     5.6598451741    15.3779276123
Cu      8.5906751295     7.7868954923    15.3785351588
Cu      7.3621786280     1.4037477983    15.3762151195
Cu      8.5904727564     3.5321453644    15.3780682910
Cu      9.8190628915     5.6596863338    15.3769316534
Cu     11.0489115080     7.7874997832    15.3777154348
Cu      9.8196453802     1.4041813317    15.3774700200
Cu     11.0479045662     3.5315147704    15.3771971651
Cu     12.2765483193     5.6595852924    15.3771299176
Cu     13.5054403579     7.7883030926    15.3772814178
Cu      1.2140125591     0.6836803076    17.5697065574
Cu      2.4431555374     2.8116125893    17.5665702724
Cu      3.6705110760     4.9384343512    17.5687388115
Cu      4.8988742539     7.0688538531    17.5715929661
Cu      3.6716454744     0.6829118137    17.5713989532
Cu      4.8981418913     2.8112417067    17.5722074693
Cu      6.1274353048     4.9410331682    17.5708265763
Cu      7.3554752500     7.0698228126    17.5713297733
Cu      6.1297077779     0.6833063606    17.5689100221
Cu      7.3567237656     2.8135682139    17.5698797004
Cu      8.5851063076     4.9421568820    17.5702368079
Cu      9.8152975701     7.0699596058    17.5700617325
Cu      8.5865082080     0.6855771971    17.5667967496
Cu      9.8144914881     2.8135456562    17.5749499312
Cu     11.0427692018     4.9416447797    17.5690866435
Cu     12.2728600100     7.0692517198    17.5719744219
O       7.2288202015     4.2734569284    22.3446828621
O       8.3044696405     5.3171068409    20.0014702420
O       8.8891638945     4.8479579810    24.7349733808
C       8.5251333110     4.9000290628    22.3715153937
C       9.1804211035     4.7744357207    20.9993344800
C       9.4189460410     4.3898719266    23.4895992517
H       8.3072385962     5.9614198807    22.5605187870
H       9.4153356173     3.7172718747    20.7683620669
H      10.1139922737     5.3503076003    20.9408546493
H      10.4461642949     4.7683945991    23.3275539960
H       9.4595638267     3.2836247445    23.4537018323
H       7.3561498138     3.3073831923    22.3295378714
H       7.4071380143     4.9636379387    20.1831718691
H       9.4432595602     4.5017937719    25.4528614775
O       2.4447775074     1.3898406800    19.0162048647
H       2.5328987835     1.2730973609    19.9764139723
80
Step 2 | NEB Image 2 | Cartesian Angstrom
Ni      1.2286137321     0.7093364522    11.2499292585
Ni      2.4572456323     2.8374314179    11.2498569686
Ni      3.6858907062     4.9655509934    11.2497988150
Ni      4.9145561061     7.0936747416    11.2497977388
Ni      3.6859161038     0.7093146283    11.2498715238
Ni      4.9145636100     2.8374156691    11.2497731566
Ni      6.1432288303     4.9655498970    11.2497211387
Ni      7.3719022317     7.0936793261    11.2497608632
Ni      6.1432388581     0.7092964994    11.2498242251
Ni      7.3719090882     2.8374068428    11.2497360933
Ni      8.6005847402     4.9655458851    11.2497250961
Ni      9.8292442382     7.0936669674    11.2497975642
Ni      8.6005739347     0.7092946155    11.2498187904
Ni      9.8292525153     2.8374118863    11.2497745871
Ni     11.0579155228     4.9655411266    11.2498020125
Ni     12.2865552481     7.0936480952    11.2498703902
Ni     14.7391872314     8.5053846912    13.3010818259
Ni     11.0533009236     2.1205400682    13.3004048900
Ni     12.2818984142     4.2489698472    13.3002685626
Ni     13.5103274085     6.3773856243    13.3007510364
Ni      7.3672615473     8.5049378388    13.3007467995
Ni      3.6812563053     2.1206824249    13.3002859988
Ni      4.9097630070     4.2493335623    13.3002079398
Ni      6.1381402203     6.3776426072    13.3004214417
Ni      9.8241963091     8.5048513327    13.3007344086
Ni      6.1383061001     2.1206122000    13.3001561760
Ni      7.3669215723     4.2490088722    13.2999666497
Ni      8.5954912599     6.3768771380    13.3002831907
Ni     12.2817653232     8.5052431736    13.3004085800
Ni      8.5959510387     2.1204387997    13.3004355413
Ni      9.8246400284     4.2486852553    13.3000889331
Ni     11.0530231730     6.3770352620    13.3002432015
Cu      2.4475562425     1.4021228488    15.3758577233
Cu      3.6758629090     3.5307927091    15.3747990891
Cu      4.9033463384     5.6604406276    15.3749004926
Cu      6.1327727817     7.7887365088    15.3770753853
Cu      4.9045525023     1.4019463798    15.3764261996
Cu      6.1323121385     3.5308743094    15.3745598640
Cu      7.3612076667     5.6605622446    15.3747460772
Cu      8.5908963407     7.7876388317    15.3771676629
Cu      7.3623194910     1.4028754433    15.3745524070
Cu      8.5910566502     3.5316601106    15.3753421126
Cu      9.8197965116     5.6600719696    15.3748943056
Cu     11.0492794624     7.7878738670    15.3769719343
Cu      9.8200864588     1.4035908720    15.3762803728
Cu     11.0485807443     3.5313086392    15.3759264212
Cu     12.2770350731     5.6597092034    15.3764168152
Cu     13.5056636369     7.7884338410    15.3770142004
Cu      1.2128787345     0.6826677088    17.5685815232
Cu      2.4405612194     2.8227466301    17.5462225604
Cu      3.6650985742     4.9413370447    17.5615778812
Cu      4.8961948134     7.0730324938    17.5669335261
Cu      3.6728083798     0.6801514901    17.5682278000
Cu      4.8948198038     2.8059015547    17.5577541842
Cu      6.1230087782     4.9487112562    17.5352874746
Cu      7.3549516554     7.0759422104    17.5631204025
Cu      6.1296089100     0.6802192451    17.5659805756
Cu      7.3602703019     2.8059790417    17.5534910287
Cu      8.5915780304     4.9433684925    17.5443462728
Cu      9.8172331438     7.0729149107    17.5651748610
Cu      8.5875676736     0.6826484238    17.5636084781
Cu      9.8180480924     2.8104425114    17.5678919547
Cu     11.0460331202     4.9418287205    17.5645069286
Cu     12.2738648072     7.0698504464    17.5708800603
O       6.5344407643     3.7663683740    21.7600028550
O       7.6692796581     4.8347170983    19.6946474100
O       7.5332851837     4.6285765074    24.3527114611
C       7.6845022187     4.6126939001    22.0040477303
C       8.5767962929     4.5653347901    20.7804326930
C       8.3983777953     4.2772910483    23.2770486143
H       7.2694632080     5.6292924927    22.0676275540
H       9.0561848691     3.5784152006    20.6505203961
H       9.3607941721     5.3396971084    20.7972218737
H       9.3424671874     4.8442595677    23.2986893081
H       8.6418850124     3.1936044201    23.2850843607
H       6.8583635089     2.8655965049    21.5888451090
H       6.8284588490     4.4568433959    19.9779646835
H       7.9237997834     4.2993531207    25.1773019565
O       2.5246312871     1.5595479606    19.0677528279
H       2.4932074373     1.3335220866    20.0274237829
80
Step 3 | NEB Image 3 | Cartesian Angstrom
Ni      1.2286017574     0.7093260063    11.2499018419
Ni      2.4572294545     2.8374257339    11.2497955204
Ni      3.6858813240     4.9655636389    11.2497174158
Ni      4.9145565171     7.0937001798    11.2497299217
Ni      3.6859086291     0.7092966172    11.2498190974
Ni      4.9145642941     2.8374087262    11.2496845204
Ni      6.1432409022     4.9655637435    11.2496304635
Ni      7.3719181061     7.0937029066    11.2496959407
Ni      6.1432463812     0.7092764620    11.2497599157
Ni      7.3719292565     2.8374011711    11.2496527891
Ni      8.6006105632     4.9655564504    11.2496528471
Ni      9.8292670409     7.0936836789    11.2497520653
Ni      8.6005931392     0.7092785133    11.2497643690
Ni      9.8292802474     2.8374080214    11.2497167634
Ni     11.0579425986     4.9655477099    11.2497589204
Ni     12.2865747435     7.0936573943    11.2498464775
Ni     14.7392040776     8.5053926252    13.3010720527
Ni     11.0533697410     2.1205255749    13.3003156613
Ni     12.2819574508     4.2489768231    13.3002109926
Ni     13.5103618360     6.3773970639    13.3007259492
Ni      7.3672935666     8.5050063824    13.3006395121
Ni      3.6812184670     2.1206315317    13.3000718990
Ni      4.9097754371     4.2493691069    13.2999096509
Ni      6.1381758914     6.3777234902    13.3002130173
Ni      9.8242401527     8.5048962121    13.3006660594
Ni      6.1383494136     2.1205679134    13.2999070502
Ni      7.3669950111     4.2490358652    13.2997195606
Ni      8.5955577694     6.3769360972    13.3001225027
Ni     12.2817974441     8.5052635964    13.3003800864
Ni      8.5960280173     2.1204090947    13.3002603047
Ni      9.8247276477     4.2486975798    13.2999381580
Ni     11.0530869704     6.3770653610    13.3001656217
Cu      2.4473687247     1.4019005649    15.3756419769
Cu      3.6755489166     3.5308312734    15.3734313208
Cu      4.9034538431     5.6608730792    15.3739589519
Cu      6.1328449210     7.7890139455    15.3767054616
Cu      4.9045283195     1.4014850887    15.3755208357
Cu      6.1327182370     3.5310091546    15.3733144324
Cu      7.3614056138     5.6608577059    15.3739900443
Cu      8.5910528533     7.7878510741    15.3768898138
Cu      7.3625787301     1.4026620011    15.3739348469
Cu      8.5914042009     3.5316223310    15.3746177538
Cu      9.8201461839     5.6602417528    15.3744351436
Cu     11.0494027277     7.7879544363    15.3768832775
Cu      9.8203200235     1.4034872655    15.3759719797
Cu     11.0488355935     3.5313104220    15.3757060717
Cu     12.2771662221     5.6597468876    15.3763521100
Cu     13.5057108694     7.7884540665    15.3770001609
Cu      1.2136738425     0.6832979576    17.5696360053
Cu      2.4378723579     2.8194679897    17.5405503834
Cu      3.6606947043     4.9462196722    17.5520131192
Cu      4.8965005940     7.0748520434    17.5653361187
Cu      3.6710080475     0.6799469987    17.5687658094
Cu      4.8937825680     2.7994266640    17.5358853168
Cu      6.1292279608     4.9529116150    17.5343866319
Cu      7.3555340019     7.0775369840    17.5615285763
Cu      6.1302850219     0.6781622954    17.5636149085
Cu      7.3632314125     2.8069457427    17.5500612593
Cu      8.5972087647     4.9459040955    17.5341749132
Cu      9.8180808196     7.0734559718    17.5648358361
Cu      8.5885850169     0.6817729090    17.5622528721
Cu      9.8198278970     2.8100715473    17.5665196207
Cu     11.0468698673     4.9420509684    17.5645679952
Cu     12.2740153832     7.0698860048    17.5709504738
O       6.0665184244     3.4179719853    21.1394149096
O       7.7217450509     4.6640449605    19.3174453538
O       6.5292045741     4.4454733207    23.9429402542
C       7.1491248773     4.4787520613    21.6108221672
C       8.2660539226     4.4752009401    20.5814427110
C       7.5918056089     4.2015321488    23.0172815675
H       6.5589813619     5.4074957773    21.5678662344
H       8.8431558292     3.5240837690    20.6729548879
H       8.9579790481     5.2870060826    20.8917572823
H       8.4262410398     4.8966494822    23.1791134341
H       8.0135845006     3.1740146743    23.1553399722
H       6.5401729024     2.5949711409    20.9063369096
H       5.6439187732     3.6687196220    20.2689106798
H       6.8115362015     4.1608953971    24.8202912076
O       2.7069065256     2.0102142484    19.3163125720
H       2.4192685568     1.3241251701    19.9721992721
80
Step 4 | NEB Image 4 | Cartesian Angstrom
Ni      1.2286159201     0.7093366294    11.2499215592
Ni      2.4572516563     2.8374347373    11.2498433496
Ni      3.6859052183     4.9655596881    11.2497881363
Ni      4.9145733692     7.0936817664    11.2497984168
Ni      3.6859229641     0.7093149673    11.2498555041
Ni      4.9145800440     2.8374238843    11.2497570350
Ni      6.1432508448     4.9655615223    11.2497209158
Ni      7.3719200979     7.0936852532    11.2497720160
Ni      6.1432542109     0.7092995229    11.2498078095
Ni      7.3719313387     2.8374180608    11.2497305234
Ni      8.6006044927     4.9655560389    11.2497356890
Ni      9.8292568930     7.0936706003    11.2498145387
Ni      8.6005918640     0.7093002659    11.2498127532
Ni      9.8292708097     2.8374215225    11.2497811193
Ni     11.0579276930     4.9655475894    11.2498183696
Ni     12.2865604388     7.0936492675    11.2498870177
Ni     14.7391840875     8.5053807264    13.3011017313
Ni     11.0533385203     2.1205640175    13.3004306408
Ni     12.2819141865     4.2489852364    13.3003154531
Ni     13.5103272804     6.3773867074    13.3007893829
Ni      7.3673007895     8.5049406867    13.3007770076
Ni      3.6812686096     2.1206832279    13.3002119421
Ni      4.9098345131     4.2493799239    13.3001635339
Ni      6.1382061961     6.3776669989    13.3004487571
Ni      9.8242202671     8.5048478739    13.3007783322
Ni      6.1383743047     2.1206413276    13.3000881808
Ni      7.3669947522     4.2490573464    13.2999795532
Ni      8.5955405964     6.3768967029    13.3003305721
Ni     12.2817699289     8.5052367244    13.3004455692
Ni      8.5960193736     2.1204703656    13.3004219169
Ni      9.8246934358     4.2487156020    13.3001265055
Ni     11.0530469112     6.3770431311    13.3002986152
Cu      2.4474772356     1.4020647702    15.3758845849
Cu      3.6758225962     3.5308833516    15.3742207898
Cu      4.9038114332     5.6605921200    15.3749927345
Cu      6.1329536495     7.7887352221    15.3771731432
Cu      4.9046553710     1.4017821373    15.3758744376
Cu      6.1328201703     3.5313120300    15.3744734081
Cu      7.3613795424     5.6606752003    15.3750301500
Cu      8.5910295377     7.7876377175    15.3773389715
Cu      7.3626287936     1.4029544125    15.3743116482
Cu      8.5913559313     3.5318417632    15.3753571310
Cu      9.8200015220     5.6601704822    15.3750867753
Cu     11.0493041483     7.7878408417    15.3771490458
Cu      9.8202826237     1.4036760350    15.3762967752
Cu     11.0486925850     3.5314009799    15.3761184160
Cu     12.2770305277     5.6597173645    15.3766058548
Cu     13.5056441330     7.7884137635    15.3770962110
Cu      1.2135599118     0.6833505203    17.5692586787
Cu      2.4382743994     2.8133961756    17.5507926700
Cu      3.6661210254     4.9457875287    17.5561711301
Cu      4.8975456671     7.0729607761    17.5671038764
Cu      3.6708197754     0.6802785778    17.5684653530
Cu      4.9011537850     2.8065535354    17.5417267090
Cu      6.1261155052     4.9477398968    17.5500993019
Cu      7.3561823795     7.0757831600    17.5642063056
Cu      6.1309052054     0.6787723359    17.5633621916
Cu      7.3621312283     2.8097622960    17.5532281957
Cu      8.5981358765     4.9478305646    17.5427321497
Cu      9.8175507545     7.0724108622    17.5668675897
Cu      8.5889439190     0.6824408984    17.5628916611
Cu      9.8194300441     2.8112167673    17.5689946561
Cu     11.0458172114     4.9420627247    17.5664488711
Cu     12.2736686057     7.0696761885    17.5713880796
O       5.7037195974     2.9899685665    20.8893546777
O       7.5327975927     4.3723216582    19.1433586448
O       5.6042455134     4.2502121649    23.5326958615
C       6.5576139750     4.2407827665    21.3408988075
C       7.8370421096     4.3149084945    20.5108871541
C       6.8327798474     4.1281721130    22.8188472099
H       5.9143279454     5.1001539884    21.1173521606
H       8.5180580098     3.4700455827    20.7394621587
H       8.3593712404     5.2277950116    20.8584678574
H       7.5227451087     4.9451352247    23.0562400186
H       7.3609125086     3.1787886695    23.0693692921
H       6.2322593197     2.4351961589    20.2676271622
H       4.8095865325     3.0936593397    20.4081756826
H       5.7586260340     4.0021692322    24.4584359887
O       2.9462236751     2.3931193178    19.5707959704
H       2.5321776384     1.5727503814    19.9852367358
80
Step 5 | NEB Image 5 | Cartesian Angstrom
Ni      1.2286497034     0.7093615225    11.2499999440
Ni      2.4572989609     2.8374461750    11.2499999440
Ni      3.6859482184     4.9655308275    11.2499999440
Ni      4.9145974759     7.0936154800    11.2499999440
Ni      3.6859497034     0.7093615225    11.2499999440
Ni      4.9145989609     2.8374461750    11.2499999440
Ni      6.1432482184     4.9655308275    11.2499999440
Ni      7.3718974759     7.0936154800    11.2499999440
Ni      6.1432497034     0.7093615225    11.2499999440
Ni      7.3718989609     2.8374461750    11.2499999440
Ni      8.6005482184     4.9655308275    11.2499999440
Ni      9.8291974759     7.0936154800    11.2499999440
Ni      8.6005497034     0.7093615225    11.2499999440
Ni      9.8291989609     2.8374461750    11.2499999440
Ni     11.0578482184     4.9655308275    11.2499999440
Ni     12.2864974759     7.0936154800    11.2499999440
Ni     14.7391156794     8.5053429999    13.3011712910
Ni     11.0531329642     2.1206495503    13.3008022026
Ni     12.2817169557     4.2489790177    13.3006008466
Ni     13.5101985270     6.3773433856    13.3009432678
Ni      7.3672569131     8.5047181091    13.3011774747
Ni      3.6813641840     2.1207833643    13.3007249066
Ni      4.9098915592     4.2493198517    13.3009123494
Ni      6.1382080000     6.3774560890    13.3011137055
Ni      9.8241033938     8.5046823573    13.3010831736
Ni      6.1383369699     2.1207818321    13.3007716707
Ni      7.3668809566     4.2490234521    13.3008056810
Ni      8.5953896076     6.3767159412    13.3009509974
Ni     12.2816608204     8.5051500252    13.3006066438
Ni      8.5958457422     2.1206092019    13.3010364095
Ni      9.8244550440     4.2487038138    13.3007276120
Ni     11.0528529688     6.3769410074    13.3006611374
Cu      2.4478274055     1.4024593708    15.3768195742
Cu      3.6763308468     3.5307009057    15.3768060474
Cu      4.9041378398     5.6597275336    15.3773448005
Cu      6.1330260451     7.7878910103    15.3784795057
Cu      4.9046987540     1.4026027186    15.3777977550
Cu      6.1325026510     3.5313493756    15.3777258697
Cu      7.3610720952     5.6598451741    15.3779276123
Cu      8.5906751295     7.7868954923    15.3785351588
Cu      7.3621786280     1.4037477983    15.3762151195
Cu      8.5904727564     3.5321453644    15.3780682910
Cu      9.8190628915     5.6596863338    15.3769316534
Cu     11.0489115080     7.7874997832    15.3777154348
Cu      9.8196453802     1.4041813317    15.3774700200
Cu     11.0479045662     3.5315147704    15.3771971651
Cu     12.2765483193     5.6595852924    15.3771299176
Cu     13.5054403579     7.7883030926    15.3772814178
Cu      1.2140125591     0.6836803076    17.5697065574
Cu      2.4431555374     2.8116125893    17.5665702724
Cu      3.6705110760     4.9384343512    17.5687388115
Cu      4.8988742539     7.0688538531    17.5715929661
Cu      3.6716454744     0.6829118137    17.5713989532
Cu      4.8981418913     2.8112417067    17.5722074693
Cu      6.1274353048     4.9410331682    17.5708265763
Cu      7.3554752500     7.0698228126    17.5713297733
Cu      6.1297077779     0.6833063606    17.5689100221
Cu      7.3567237656     2.8135682139    17.5698797004
Cu      8.5851063076     4.9421568820    17.5702368079
Cu      9.8152975701     7.0699596058    17.5700617325
Cu      8.5865082080     0.6855771971    17.5667967496
Cu      9.8144914881     2.8135456562    17.5749499312
Cu     11.0427692018     4.9416447797    17.5690866435
Cu     12.2728600100     7.0692517198    17.5719744219
O       5.4816243728     2.5651691502    20.6539118200
O       7.3508896973     4.2099530947    19.0383354809
O       4.4981563510     3.9587391709    22.9072956728
C       5.9290713561     3.8945947838    20.9960208007
C       7.3297021271     4.1881915565    20.4688911028
C       5.8721709119     4.0116672750    22.5089584937
H       5.2340507257     4.6323215466    20.5533350446
H       8.0432145389     3.4244560240    20.8191443760
H       7.6571223136     5.1738780612    20.8354754738
H       6.3359933253     4.9675285031    22.8148914030
H       6.4497260984     3.1808581747    22.9509168945
H       5.8597578631     2.3152772777    19.7784701378
H       3.6583776659     2.5435355524    20.3168147116
H       4.4610770249     3.8064239805    23.8648388416
O       2.7103082747     2.5416543255    20.0177020144
H       2.4292112216     1.6097423068    20.0822731560
