80
Step 1 | NEB Image 1 | Cartesian Angstrom
Ni      1.2286497034     0.7093615225    11.2499999440
Ni      2.4572989609     2.8374461750    11.2499999440
Ni      3.6859482184     4.9655308275    11.2499999440
Ni      4.9145974759     7.0936154800    11.2499999440
Ni      3.6859497034     0.7093615225    11.2499999440
Ni      4.9145989609     2.8374461750    11.2499999440
Ni      6.1432482184     4.9655308275    11.2499999440
Ni      7.3718974759     7.0936154800    11.2499999440
Ni      6.1432497034     0.7093615225    11.2499999440
Ni      7.3718989609     2.8374461750    11.2499999440
Ni      8.6005482184     4.9655308275    11.2499999440
Ni      9.8291974759     7.0936154800    11.2499999440
Ni      8.6005497034     0.7093615225    11.2499999440
Ni      9.8291989609     2.8374461750    11.2499999440
Ni     11.0578482184     4.9655308275    11.2499999440
Ni     12.2864974759     7.0936154800    11.2499999440
Ni     14.7391156794     8.5053429999    13.3011712910
Ni     11.0531329642     2.1206495503    13.3008022026
Ni     12.2817169557     4.2489790177    13.3006008466
Ni     13.5101985270     6.3773433856    13.3009432678
Ni      7.3672569131     8.5047181091    13.3011774747
Ni      3.6813641840     2.1207833643    13.3007249066
Ni      4.9098915592     4.2493198517    13.3009123494
Ni      6.1382080000     6.3774560890    13.3011137055
Ni      9.8241033938     8.5046823573    13.3010831736
Ni      6.1383369699     2.1207818321    13.3007716707
Ni      7.3668809566     4.2490234521    13.3008056810
Ni      8.5953896076     6.3767159412    13.3009509974
Ni     12.2816608204     8.5051500252    13.3006066438
Ni      8.5958457422     2.1206092019    13.3010364095
Ni      9.8244550440     4.2487038138    13.3007276120
Ni     11.0528529688     6.3769410074    13.3006611374
Cu      2.4478274055     1.4024593708    15.3768195742
Cu      3.6763308468     3.5307009057    15.3768060474
Cu      4.9041378398     5.6597275336    15.3773448005
Cu      6.1330260451     7.7878910103    15.3784795057
Cu      4.9046987540     1.4026027186    15.3777977550
Cu      6.1325026510     3.5313493756    15.3777258697
Cu      7.3610720952     5.6598451741    15.3779276123
Cu      8.5906751295     7.7868954923    15.3785351588
Cu      7.3621786280     1.4037477983    15.3762151195
Cu      8.5904727564     3.5321453644    15.3780682910
Cu      9.8190628915     5.6596863338    15.3769316534
Cu     11.0489115080     7.7874997832    15.3777154348
Cu      9.8196453802     1.4041813317    15.3774700200
Cu     11.0479045662     3.5315147704    15.3771971651
Cu     12.2765483193     5.6595852924    15.3771299176
Cu     13.5054403579     7.7883030926    15.3772814178
Cu      1.2140125591     0.6836803076    17.5697065574
Cu      2.4431555374     2.8116125893    17.5665702724
Cu      3.6705110760     4.9384343512    17.5687388115
Cu      4.8988742539     7.0688538531    17.5715929661
Cu      3.6716454744     0.6829118137    17.5713989532
Cu      4.8981418913     2.8112417067    17.5722074693
Cu      6.1274353048     4.9410331682    17.5708265763
Cu      7.3554752500     7.0698228126    17.5713297733
Cu      6.1297077779     0.6833063606    17.5689100221
Cu      7.3567237656     2.8135682139    17.5698797004
Cu      8.5851063076     4.9421568820    17.5702368079
Cu      9.8152975701     7.0699596058    17.5700617325
Cu      8.5865082080     0.6855771971    17.5667967496
Cu      9.8144914881     2.8135456562    17.5749499312
Cu     11.0427692018     4.9416447797    17.5690866435
Cu     12.2728600100     7.0692517198    17.5719744219
O       7.2288202015     4.2734569284    22.3446828621
O       8.3044696405     5.3171068409    20.0014702420
O       8.8891638945     4.8479579810    24.7349733808
C       8.5251333110     4.9000290628    22.3715153937
C       9.1804211035     4.7744357207    20.9993344800
C       9.4189460410     4.3898719266    23.4895992517
H       8.3072385962     5.9614198807    22.5605187870
H       9.4153356173     3.7172718747    20.7683620669
H      10.1139922737     5.3503076003    20.9408546493
H      10.4461642949     4.7683945991    23.3275539960
H       9.4595638267     3.2836247445    23.4537018323
H       7.3561498138     3.3073831923    22.3295378714
H       7.4071380143     4.9636379387    20.1831718691
H       9.4432595602     4.5017937719    25.4528614775
O       2.4447775074     1.3898406800    19.0162048647
H       2.5328987835     1.2730973609    19.9764139723
80
Step 2 | NEB Image 2 | Cartesian Angstrom
Ni      1.2286112764     0.7093343059    11.2499236061
Ni      2.4572423218     2.8374302576    11.2498443086
Ni      3.6858888122     4.9655536126    11.2497820618
Ni      4.9145562312     7.0936799859    11.2497838035
Ni      3.6859145838     0.7093109277    11.2498607121
Ni      4.9145637892     2.8374142616    11.2497549033
Ni      6.1432313629     4.9655527699    11.2497025037
Ni      7.3719055360     7.0936841860    11.2497475473
Ni      6.1432404402     0.7092923887    11.2498109705
Ni      7.3719132852     2.8374057036    11.2497189606
Ni      8.6005900934     4.9655480802    11.2497102733
Ni      9.8292489541     7.0936704103    11.2497882538
Ni      8.6005779235     0.7092913197    11.2498075922
Ni      9.8292582575     2.8374111147    11.2497627193
Ni     11.0579211157     4.9655424947    11.2497931952
Ni     12.2865592668     7.0936500090    11.2498655151
Ni     14.7391906861     8.5053863124    13.3010798643
Ni     11.0533151544     2.1205371460    13.3003866134
Ni     12.2819105837     4.2489713170    13.3002568418
Ni     13.5103344833     6.3773879778    13.3007459709
Ni      7.3672682197     8.5049519317    13.3007248222
Ni      3.6812485581     2.1206719679    13.3002418256
Ni      4.9097657295     4.2493409760    13.3001465348
Ni      6.1381477060     6.3776592866    13.3003786732
Ni      9.8242053756     8.5048605476    13.3007204656
Ni      6.1383151617     2.1206031673    13.3001048190
Ni      7.3669368365     4.2490145334    13.2999159014
Ni      8.5955050441     6.3768893006    13.3002502794
Ni     12.2817719351     8.5052473555    13.3004028113
Ni      8.5959670190     2.1204327693    13.3003994969
Ni      9.8246581604     4.2486878594    13.3000580360
Ni     11.0530363396     6.3770414660    13.3002273885
Cu      2.4475175205     1.4020770313    15.3758134489
Cu      3.6757982864     3.5308008474    15.3745166432
Cu      4.9033695247     5.6605298557    15.3747072158
Cu      6.1327880320     7.7887935211    15.3769995930
Cu      4.9045477744     1.4018511950    15.3762388436
Cu      6.1323967889     3.5309030500    15.3743037153
Cu      7.3612487503     5.6606232296    15.3745913745
Cu      8.5909288183     7.7876824465    15.3771109655
Cu      7.3623734936     1.4028317649    15.3744249279
Cu      8.5911287779     3.5316527736    15.3751932867
Cu      9.8198688538     5.6601070929    15.3748003968
Cu     11.0493048524     7.7878903470    15.3769541309
Cu      9.8201349192     1.4035697803    15.3762170342
Cu     11.0486333806     3.5313092227    15.3758815890
Cu     12.2770620145     5.6597169670    15.3764039621
Cu     13.5056732977     7.7884379503    15.3770115079
Cu      1.2130437363     0.6827988347    17.5687998188
Cu      2.4400032630     2.8220508662    17.5450676280
Cu      3.6641959494     4.9423509222    17.5595995424
Cu      4.8962608288     7.0734062562    17.5666056474
Cu      3.6724337238     0.6801097643    17.5683389233
Cu      4.8946215325     2.8045724489    17.5532222953
Cu      6.1242941692     4.9495721780    17.5351371608
Cu      7.3550742248     7.0762695744    17.5627958228
Cu      6.1297509030     0.6797931255    17.5654882587
Cu      7.3608832064     2.8061865987    17.5527855677
Cu      8.5927506029     4.9439000662    17.5422521884
Cu      9.8174080941     7.0730249180    17.5651091677
Cu      8.5877799802     0.6824680112    17.5633282060
Cu      9.8184171039     2.8103680954    17.5676125218
Cu     11.0462045705     4.9418749442    17.5645240429
Cu     12.2738952905     7.0698573443    17.5708957249
O       6.4879996972     3.7174145388    21.8726800766
O       7.8461963608     5.1116704995    19.9240970892
O       7.4153117997     4.2989340733    24.6230041355
C       7.6162189448     4.5424179361    22.2500091469
C       8.5737593776     4.6446055771    21.0646504225
C       8.3059185031     4.0796918102    23.5109075863
H       7.1747290234     5.5336459596    22.4259030118
H       9.0415362386     3.6612802303    20.8450396108
H       9.3756047594     5.3720094129    21.2472241522
H       9.2381077745     4.6569091753    23.6363314617
H       8.5750778650     3.0121756672    23.4247814500
H       6.7895874717     2.8049102601    21.7913135703
H       6.9981258373     4.6169409186    19.9172792998
H       7.8657246013     4.0439507251    25.4323517043
O       2.4526093153     1.4180191796    18.9989686248
H       2.5332033870     1.4084401845    19.9638195265
80
Step 3 | NEB Image 3 | Cartesian Angstrom
Ni      1.2285991935     0.7093237228    11.2498956276
Ni      2.4572260738     2.8374245787    11.2497816909
Ni      3.6858796619     4.9655666445    11.2496992956
Ni      4.9145570748     7.0937059424    11.2497150843
Ni      3.6859071775     0.7092926810    11.2498071791
Ni      4.9145648891     2.8374074279    11.2496646674
Ni      6.1432441430     4.9655670915    11.2496105945
Ni      7.3719220675     7.0937082327    11.2496820212
Ni      6.1432484451     0.7092721546    11.2497453836
Ni      7.3719342772     2.8374002326    11.2496343899
Ni      8.6006167550     4.9655590398    11.2496373075
Ni      9.8292723787     7.0936874381    11.2497425583
Ni      8.6005978317     0.7092751391    11.2497522841
Ni      9.8292868179     2.8374074358    11.2497042737
Ni     11.0579488594     4.9655493270    11.2497499239
Ni     12.2865791547     7.0936594631    11.2498416897
Ni     14.7392076827     8.5053942558    13.3010704511
Ni     11.0533858344     2.1205230488    13.3002968128
Ni     12.2819708103     4.2489787681    13.3001996517
Ni     13.5103693741     6.3773995991    13.3007214925
Ni      7.3673016436     8.5050214745    13.3006168285
Ni      3.6812105117     2.1206204050    13.3000229931
Ni      4.9097800971     4.2493781490    13.2998431060
Ni      6.1381854926     6.3777418689    13.3001681007
Ni      9.8242504059     8.5049059495    13.3006522770
Ni      6.1383607493     2.1205590012    13.2998506359
Ni      7.3670130807     4.2490430913    13.2996657838
Ni      8.5955736752     6.3769495425    13.3000885865
Ni     12.2818046051     8.5052678955    13.3003748467
Ni      8.5960467311     2.1204034428    13.3002215490
Ni      9.8247482879     4.2487011016    13.2999061477
Ni     11.0531015886     6.3770721676    13.3001501285
Cu      2.4473255076     1.4018502990    15.3755954440
Cu      3.6754790427     3.5308421765    15.3731160376
Cu      4.9034899916     5.6609719141    15.3737552006
Cu      6.1328656231     7.7890746848    15.3766270758
Cu      4.9045258087     1.4013795911    15.3753075638
Cu      6.1328209572     3.5310505507    15.3730392713
Cu      7.3614536312     5.6609254883    15.3738321261
Cu      8.5910907464     7.7878975369    15.3768335900
Cu      7.3626438967     1.4026173845    15.3737930448
Cu      8.5914884411     3.5316189759    15.3744594856
Cu      9.8202283351     5.6602816134    15.3743397753
Cu     11.0494303984     7.7879711908    15.3768686545
Cu      9.8203765012     1.4034668769    15.3759048688
Cu     11.0488944494     3.5313133139    15.3756630038
Cu     12.2771948279     5.6597553636    15.3763430568
Cu     13.5057206877     7.7884579532    15.3769993070
Cu      1.2138664679     0.6834545139    17.5698853392
Cu      2.4372213994     2.8184964903    17.5394316591
Cu      3.6597577078     4.9474097994    17.5497714387
Cu      4.8966041702     7.0752486837    17.5649908118
Cu      3.6705598050     0.6799056464    17.5688900986
Cu      4.8937269362     2.7980259626    17.5306606454
Cu      6.1306744672     4.9538054152    17.5345905338
Cu      7.3556949073     7.0778820201    17.5612092934
Cu      6.1304682434     0.6776725133    17.5630257660
Cu      7.3639304718     2.8072599886    17.5493028282
Cu      8.5986198553     4.9465804070    17.5319030922
Cu      9.8182751118     7.0735608402    17.5648074249
Cu      8.5888451530     0.6815755007    17.5619365009
Cu      9.8202552093     2.8100112593    17.5662488738
Cu     11.0470473129     4.9421059920    17.5646339773
Cu     12.2740430529     7.0698890736    17.5709796600
O       5.8030911621     3.3620291967    21.5897885479
O       7.3275895047     4.2252229546    19.6930166097
O       6.2750338865     4.2272136703    24.3414679261
C       6.8063552156     4.3019940683    22.0160027855
C       7.9398716128     4.3341233035    20.9837345953
C       7.3273433284     4.0150796994    23.4113259043
H       6.2844560758     5.2662905925    22.0127431848
H       8.6549024571     3.5068138490    21.1249317011
H       8.4939986662     5.2845735332    21.0124917414
H       8.1913737121     4.6833965215    23.6052267906
H       7.7034217332     2.9710523412    23.4430235313
H       6.1345682154     2.4540875524    21.7094544135
H       6.4692399684     3.7471876050    19.8574231781
H       6.5980820675     4.0062238595    25.2351984361
O       3.3641767137     1.9438276257    19.0986980562
H       2.7478709119     1.6321776904    19.7735474045
80
Step 4 | NEB Image 4 | Cartesian Angstrom
Ni      1.2286048024     0.7093282434    11.2499057371
Ni      2.4572343110     2.8374277314    11.2498051310
Ni      3.6858868079     4.9655630875    11.2497319290
Ni      4.9145606099     7.0936965369    11.2497443312
Ni      3.6859118599     0.7093004826    11.2498262317
Ni      4.9145681288     2.8374121734    11.2496992361
Ni      6.1432436958     4.9655636492    11.2496494563
Ni      7.3719190967     7.0936993883    11.2497122779
Ni      6.1432485176     0.7092814029    11.2497694502
Ni      7.3719304065     2.8374050782    11.2496689392
Ni      8.6006099207     4.9655566892    11.2496705877
Ni      9.8292653146     7.0936810481    11.2497657318
Ni      8.6005934456     0.7092832635    11.2497743390
Ni      9.8292788509     2.8374111660    11.2497304909
Ni     11.0579398574     4.9655478915    11.2497719319
Ni     12.2865719050     7.0936557248    11.2498555257
Ni     14.7391997779     8.5053899988    13.3010789244
Ni     11.0533643871     2.1205344170    13.3003406381
Ni     12.2819488681     4.2489790832    13.3002344368
Ni     13.5103545733     6.3773949231    13.3007405019
Ni      7.3672963407     8.5049926739    13.3006693612
Ni      3.6812293938     2.1206424165    13.3000989439
Ni      4.9097901366     4.2493728639    13.2999615580
Ni      6.1381843701     6.3777124052    13.3002634105
Ni      9.8242367429     8.5048859477    13.3006910497
Ni      6.1383568266     2.1205842673    13.2999429198
Ni      7.3669973006     4.2490419300    13.2997745866
Ni      8.5955557423     6.3769284489    13.3001677262
Ni     12.2817918119     8.5052577453    13.3003950261
Ni      8.5960283903     2.1204229760    13.3002938158
Ni      9.8247221718     4.2487023374    13.2999789247
Ni     11.0530793161     6.3770609436    13.3001953325
Cu      2.4473889875     1.4019331969    15.3756937982
Cu      3.6756051131     3.5308451158    15.3735786306
Cu      4.9035438529     5.6608189144    15.3741790573
Cu      6.1328735529     7.7889553571    15.3768068314
Cu      4.9045583020     1.4015422248    15.3755774395
Cu      6.1327559200     3.5310867946    15.3735551119
Cu      7.3614056423     5.6608229875    15.3742176220
Cu      8.5910522218     7.7878062219    15.3769896484
Cu      7.3625991527     1.4027259528    15.3740062847
Cu      8.5914036471     3.5316742418    15.3747735446
Cu      9.8201223631     5.6602299373    15.3745781865
Cu     11.0493828112     7.7879295174    15.3769447760
Cu      9.8203184504     1.4035296451    15.3760407300
Cu     11.0488091360     3.5313324016    15.3757988360
Cu     12.2771375732     5.6597409475    15.3764114649
Cu     13.5056962264     7.7884449576    15.3770229634
Cu      1.2136717278     0.6833308680    17.5695784342
Cu      2.4378835655     2.8178930954    17.5428481992
Cu      3.6618672771     4.9462714402    17.5527133602
Cu      4.8967633824     7.0744524765    17.5657129009
Cu      3.6709048082     0.6800207190    17.5687103055
Cu      4.8955337955     2.8009445802    17.5365989955
Cu      6.1286736777     4.9517941592    17.5381615543
Cu      7.3557096149     7.0771634906    17.5621258262
Cu      6.1304568127     0.6782440952    17.5634779615
Cu      7.3630599159     2.8076585450    17.5507180717
Cu      8.5976135464     4.9464516727    17.5359207049
Cu      9.8179796494     7.0732202975    17.5653168313
Cu      8.5887044850     0.6819065767    17.5623640944
Cu      9.8197885878     2.8103369046    17.5670748317
Cu     11.0466418366     4.9420609326    17.5650252797
Cu     12.2739362569     7.0698363507    17.5710586660
O       6.0453893922     2.8986984436    21.0782728111
O       7.4407410936     4.2467283109    19.0556430013
O       6.1653145184     4.2389306872    23.7146952679
C       6.7510412281     4.1263278821    21.4001894637
C       7.8975426800     4.3512299246    20.4132497247
C       7.2749794447     4.0630309470    22.8293210575
H       6.0332860192     4.9592309081    21.3235269788
H       8.6946933727     3.6047832244    20.5769313348
H       8.3316631308     5.3516013356    20.5803342170
H       8.0253037492     4.8596151550    22.9763908985
H       7.7636386357     3.0881643165    22.9829759169
H       6.4289624523     2.5434793373    20.2597592587
H       4.4215890008     2.9189179105    20.4407090011
H       6.4811798583     4.0807912169    24.6349074165
O       3.5250850767     2.8191377243    20.0069672797
H       3.2786018503     1.8956097558    20.1233462877
80
Step 5 | NEB Image 5 | Cartesian Angstrom
Ni      1.2286497034     0.7093615225    11.2499999440
Ni      2.4572989609     2.8374461750    11.2499999440
Ni      3.6859482184     4.9655308275    11.2499999440
Ni      4.9145974759     7.0936154800    11.2499999440
Ni      3.6859497034     0.7093615225    11.2499999440
Ni      4.9145989609     2.8374461750    11.2499999440
Ni      6.1432482184     4.9655308275    11.2499999440
Ni      7.3718974759     7.0936154800    11.2499999440
Ni      6.1432497034     0.7093615225    11.2499999440
Ni      7.3718989609     2.8374461750    11.2499999440
Ni      8.6005482184     4.9655308275    11.2499999440
Ni      9.8291974759     7.0936154800    11.2499999440
Ni      8.6005497034     0.7093615225    11.2499999440
Ni      9.8291989609     2.8374461750    11.2499999440
Ni     11.0578482184     4.9655308275    11.2499999440
Ni     12.2864974759     7.0936154800    11.2499999440
Ni     14.7391156794     8.5053429999    13.3011712910
Ni     11.0531329642     2.1206495503    13.3008022026
Ni     12.2817169557     4.2489790177    13.3006008466
Ni     13.5101985270     6.3773433856    13.3009432678
Ni      7.3672569131     8.5047181091    13.3011774747
Ni      3.6813641840     2.1207833643    13.3007249066
Ni      4.9098915592     4.2493198517    13.3009123494
Ni      6.1382080000     6.3774560890    13.3011137055
Ni      9.8241033938     8.5046823573    13.3010831736
Ni      6.1383369699     2.1207818321    13.3007716707
Ni      7.3668809566     4.2490234521    13.3008056810
Ni      8.5953896076     6.3767159412    13.3009509974
Ni     12.2816608204     8.5051500252    13.3006066438
Ni      8.5958457422     2.1206092019    13.3010364095
Ni      9.8244550440     4.2487038138    13.3007276120
Ni     11.0528529688     6.3769410074    13.3006611374
Cu      2.4478274055     1.4024593708    15.3768195742
Cu      3.6763308468     3.5307009057    15.3768060474
Cu      4.9041378398     5.6597275336    15.3773448005
Cu      6.1330260451     7.7878910103    15.3784795057
Cu      4.9046987540     1.4026027186    15.3777977550
Cu      6.1325026510     3.5313493756    15.3777258697
Cu      7.3610720952     5.6598451741    15.3779276123
Cu      8.5906751295     7.7868954923    15.3785351588
Cu      7.3621786280     1.4037477983    15.3762151195
Cu      8.5904727564     3.5321453644    15.3780682910
Cu      9.8190628915     5.6596863338    15.3769316534
Cu     11.0489115080     7.7874997832    15.3777154348
Cu      9.8196453802     1.4041813317    15.3774700200
Cu     11.0479045662     3.5315147704    15.3771971651
Cu     12.2765483193     5.6595852924    15.3771299176
Cu     13.5054403579     7.7883030926    15.3772814178
Cu      1.2140125591     0.6836803076    17.5697065574
Cu      2.4431555374     2.8116125893    17.5665702724
Cu      3.6705110760     4.9384343512    17.5687388115
Cu      4.8988742539     7.0688538531    17.5715929661
Cu      3.6716454744     0.6829118137    17.5713989532
Cu      4.8981418913     2.8112417067    17.5722074693
Cu      6.1274353048     4.9410331682    17.5708265763
Cu      7.3554752500     7.0698228126    17.5713297733
Cu      6.1297077779     0.6833063606    17.5689100221
Cu      7.3567237656     2.8135682139    17.5698797004
Cu      8.5851063076     4.9421568820    17.5702368079
Cu      9.8152975701     7.0699596058    17.5700617325
Cu      8.5865082080     0.6855771971    17.5667967496
Cu      9.8144914881     2.8135456562    17.5749499312
Cu     11.0427692018     4.9416447797    17.5690866435
Cu     12.2728600100     7.0692517198    17.5719744219
O       5.4816243728     2.5651691502    20.6539118200
O       7.3508896973     4.2099530947    19.0383354809
O       4.4981563510     3.9587391709    22.9072956728
C       5.9290713561     3.8945947838    20.9960208007
C       7.3297021271     4.1881915565    20.4688911028
C       5.8721709119     4.0116672750    22.5089584937
H       5.2340507257     4.6323215466    20.5533350446
H       8.0432145389     3.4244560240    20.8191443760
H       7.6571223136     5.1738780612    20.8354754738
H       6.3359933253     4.9675285031    22.8148914030
H       6.4497260984     3.1808581747    22.9509168945
H       5.8597578631     2.3152772777    19.7784701378
H       3.6583776659     2.5435355524    20.3168147116
H       4.4610770249     3.8064239805    23.8648388416
O       2.7103082747     2.5416543255    20.0177020144
H       2.4292112216     1.6097423068    20.0822731560
