80
Step 1 | NEB Image 1 | Cartesian Angstrom
Ni      1.2286497034     0.7093615225    11.2499999440
Ni      2.4572989609     2.8374461750    11.2499999440
Ni      3.6859482184     4.9655308275    11.2499999440
Ni      4.9145974759     7.0936154800    11.2499999440
Ni      3.6859497034     0.7093615225    11.2499999440
Ni      4.9145989609     2.8374461750    11.2499999440
Ni      6.1432482184     4.9655308275    11.2499999440
Ni      7.3718974759     7.0936154800    11.2499999440
Ni      6.1432497034     0.7093615225    11.2499999440
Ni      7.3718989609     2.8374461750    11.2499999440
Ni      8.6005482184     4.9655308275    11.2499999440
Ni      9.8291974759     7.0936154800    11.2499999440
Ni      8.6005497034     0.7093615225    11.2499999440
Ni      9.8291989609     2.8374461750    11.2499999440
Ni     11.0578482184     4.9655308275    11.2499999440
Ni     12.2864974759     7.0936154800    11.2499999440
Ni     14.7391156794     8.5053429999    13.3011712910
Ni     11.0531329642     2.1206495503    13.3008022026
Ni     12.2817169557     4.2489790177    13.3006008466
Ni     13.5101985270     6.3773433856    13.3009432678
Ni      7.3672569131     8.5047181091    13.3011774747
Ni      3.6813641840     2.1207833643    13.3007249066
Ni      4.9098915592     4.2493198517    13.3009123494
Ni      6.1382080000     6.3774560890    13.3011137055
Ni      9.8241033938     8.5046823573    13.3010831736
Ni      6.1383369699     2.1207818321    13.3007716707
Ni      7.3668809566     4.2490234521    13.3008056810
Ni      8.5953896076     6.3767159412    13.3009509974
Ni     12.2816608204     8.5051500252    13.3006066438
Ni      8.5958457422     2.1206092019    13.3010364095
Ni      9.8244550440     4.2487038138    13.3007276120
Ni     11.0528529688     6.3769410074    13.3006611374
Cu      2.4478274055     1.4024593708    15.3768195742
Cu      3.6763308468     3.5307009057    15.3768060474
Cu      4.9041378398     5.6597275336    15.3773448005
Cu      6.1330260451     7.7878910103    15.3784795057
Cu      4.9046987540     1.4026027186    15.3777977550
Cu      6.1325026510     3.5313493756    15.3777258697
Cu      7.3610720952     5.6598451741    15.3779276123
Cu      8.5906751295     7.7868954923    15.3785351588
Cu      7.3621786280     1.4037477983    15.3762151195
Cu      8.5904727564     3.5321453644    15.3780682910
Cu      9.8190628915     5.6596863338    15.3769316534
Cu     11.0489115080     7.7874997832    15.3777154348
Cu      9.8196453802     1.4041813317    15.3774700200
Cu     11.0479045662     3.5315147704    15.3771971651
Cu     12.2765483193     5.6595852924    15.3771299176
Cu     13.5054403579     7.7883030926    15.3772814178
Cu      1.2140125591     0.6836803076    17.5697065574
Cu      2.4431555374     2.8116125893    17.5665702724
Cu      3.6705110760     4.9384343512    17.5687388115
Cu      4.8988742539     7.0688538531    17.5715929661
Cu      3.6716454744     0.6829118137    17.5713989532
Cu      4.8981418913     2.8112417067    17.5722074693
Cu      6.1274353048     4.9410331682    17.5708265763
Cu      7.3554752500     7.0698228126    17.5713297733
Cu      6.1297077779     0.6833063606    17.5689100221
Cu      7.3567237656     2.8135682139    17.5698797004
Cu      8.5851063076     4.9421568820    17.5702368079
Cu      9.8152975701     7.0699596058    17.5700617325
Cu      8.5865082080     0.6855771971    17.5667967496
Cu      9.8144914881     2.8135456562    17.5749499312
Cu     11.0427692018     4.9416447797    17.5690866435
Cu     12.2728600100     7.0692517198    17.5719744219
O       7.2288202015     4.2734569284    22.3446828621
O       8.3044696405     5.3171068409    20.0014702420
O       8.8891638945     4.8479579810    24.7349733808
C       8.5251333110     4.9000290628    22.3715153937
C       9.1804211035     4.7744357207    20.9993344800
C       9.4189460410     4.3898719266    23.4895992517
H       8.3072385962     5.9614198807    22.5605187870
H       9.4153356173     3.7172718747    20.7683620669
H      10.1139922737     5.3503076003    20.9408546493
H      10.4461642949     4.7683945991    23.3275539960
H       9.4595638267     3.2836247445    23.4537018323
H       7.3561498138     3.3073831923    22.3295378714
H       7.4071380143     4.9636379387    20.1831718691
H       9.4432595602     4.5017937719    25.4528614775
O       2.4447775074     1.3898406800    19.0162048647
H       2.5328987835     1.2730973609    19.9764139723
80
Step 2 | NEB Image 2 | Cartesian Angstrom
Ni      1.2286131577     0.7093359492    11.2499279291
Ni      2.4572448597     2.8374311478    11.2498539932
Ni      3.6858902704     4.9655516123    11.2497948818
Ni      4.9145561452     7.0936759749    11.2497944726
Ni      3.6859157514     0.7093137610    11.2498689804
Ni      4.9145636613     2.8374153438    11.2497688687
Ni      6.1432294364     4.9655505770    11.2497167702
Ni      7.3719030163     7.0936804686    11.2497577480
Ni      6.1432392376     0.7092955375    11.2498211088
Ni      7.3719100846     2.8374065820    11.2497320740
Ni      8.6005860062     4.9655464054    11.2497216274
Ni      9.8292453508     7.0936677765    11.2497953913
Ni      8.6005748799     0.7092938461    11.2498161619
Ni      9.8292538717     2.8374117108    11.2497718088
Ni     11.0579168407     4.9655414509    11.2497999548
Ni     12.2865561931     7.0936485445    11.2498692568
Ni     14.7391880395     8.5053850690    13.3010813773
Ni     11.0533042807     2.1205393967    13.3004006202
Ni     12.2819012758     4.2489702004    13.3002658415
Ni     13.5103290668     6.3773861766    13.3007498706
Ni      7.3672631335     8.5049411440    13.3007416647
Ni      3.6812544961     2.1206799741    13.3002756022
Ni      4.9097636855     4.2493353263    13.3001935204
Ni      6.1381420122     6.3776465308    13.3004114315
Ni      9.8241984479     8.5048534909    13.3007311649
Ni      6.1383082627     2.1206100990    13.3001440988
Ni      7.3669251917     4.2490102266    13.2999547607
Ni      8.5954945190     6.3768800002    13.3002755024
Ni     12.2817668757     8.5052441503    13.3004072485
Ni      8.5959548233     2.1204374038    13.3004270843
Ni      9.8246443090     4.2486858829    13.3000817114
Ni     11.0530262728     6.3770367207    13.3002395259
Cu      2.4475471209     1.4021120757    15.3758473598
Cu      3.6758477377     3.5307946679    15.3747325534
Cu      4.9033520356     5.6604616295    15.3748552374
Cu      6.1327764585     7.7887498727    15.3770576734
Cu      4.9045514519     1.4019239744    15.3763819695
Cu      6.1323322681     3.5308812932    15.3744997699
Cu      7.3612173941     5.6605766041    15.3747099724
Cu      8.5909040290     7.7876490551    15.3771544686
Cu      7.3623323243     1.4028652488    15.3745223882
Cu      8.5910737266     3.5316584930    15.3753072338
Cu      9.8198135853     5.6600802586    15.3748724002
Cu     11.0492854281     7.7878777116    15.3769678606
Cu      9.8200979291     1.4035859757    15.3762655344
Cu     11.0485931461     3.5313088280    15.3759160199
Cu     12.2770413861     5.6597110279    15.3764139087
Cu     13.5056658905     7.7884347930    15.3770136154
Cu      1.2129177973     0.6826988315    17.5686330766
Cu      2.4404291374     2.8225782652    17.5459543995
Cu      3.6648875601     4.9415772208    17.5611110811
Cu      4.8962110493     7.0731200694    17.5668567620
Cu      3.6727194343     0.6801417805    17.5682539829
Cu      4.8947768933     2.8055903579    17.5566828084
Cu      6.1233118446     4.9489125232    17.5352605812
Cu      7.3549810809     7.0760188603    17.5630449273
Cu      6.1296429256     0.6801185408    17.5658636938
Cu      7.3604150248     2.8060298273    17.5533255091
Cu      8.5918565941     4.9434956152    17.5438544762
Cu      9.8172743339     7.0729404143    17.5651604148
Cu      8.5876182168     0.6826060153    17.5635423740
Cu      9.8181353731     2.8104255031    17.5678270721
Cu     11.0460731893     4.9418396879    17.5645120343
Cu     12.2738718425     7.0698519652    17.5708840184
O       6.5260118282     3.7374734447    21.8190015280
O       7.7837358446     5.0074526570    19.7699117496
O       7.5311187234     4.5232744164    24.4928258321
C       7.6577851701     4.5880796788    22.1088298985
C       8.5773208214     4.6135080790    20.8959090941
C       8.3788821431     4.2129924986    23.3879236367
H       7.2218317780     5.5843021276    22.2350608545
H       9.0381520308     3.6219740790    20.7077601297
H       9.3791566568     5.3554068172    20.9861377373
H       9.3274326195     4.7871327373    23.4342347091
H       8.6424735524     3.1344649206    23.3673087531
H       6.8320905199     2.8278358868    21.7355795721
H       6.9349260135     4.5043388711    19.8413046325
H       7.9621297647     4.2537938684    25.3064285365
O       2.4355128765     1.4060468749    19.0214501531
H       2.5095823205     1.3731394497    19.9487359705
80
Step 3 | NEB Image 3 | Cartesian Angstrom
Ni      1.2286018385     0.7093261049    11.2499022324
Ni      2.4572295147     2.8374257357    11.2497963369
Ni      3.6858811815     4.9655633760    11.2497183788
Ni      4.9145562352     7.0936998195    11.2497305699
Ni      3.6859085912     0.7092967868    11.2498198648
Ni      4.9145640228     2.8374086614    11.2496856414
Ni      6.1432404304     4.9655634217    11.2496313483
Ni      7.3719176641     7.0937025820    11.2496963920
Ni      6.1432460609     0.7092766080    11.2497608050
Ni      7.3719287022     2.8374010456    11.2496536883
Ni      8.6006099942     4.9655561842    11.2496533786
Ni      9.8292666155     7.0936834580    11.2497522341
Ni      8.6005926638     0.7092785788    11.2497649951
Ni      9.8292796833     2.8374079038    11.2497172201
Ni     11.0579421395     4.9655475418    11.2497590758
Ni     12.2865744705     7.0936572850    11.2498464422
Ni     14.7392039645     8.5053926119    13.3010718272
Ni     11.0533684668     2.1205253301    13.3003161138
Ni     12.2819566230     4.2489765075    13.3002107970
Ni     13.5103615035     6.3773969353    13.3007255755
Ni      7.3672926235     8.5050056705    13.3006400683
Ni      3.6812186366     2.1206320134    13.3000751722
Ni      4.9097741649     4.2493680149    13.2999132648
Ni      6.1381744823     6.3777223114    13.3002146030
Ni      9.8242393408     8.5048958317    13.3006660164
Ni      6.1383478944     2.1205678748    13.2999105662
Ni      7.3669931190     4.2490348223    13.2997217541
Ni      8.5955563286     6.3769352092    13.3001233013
Ni     12.2817970578     8.5052635018    13.3003797676
Ni      8.5960261688     2.1204088751    13.3002622271
Ni      9.8247259362     4.2486969714    13.2999390183
Ni     11.0530859681     6.3770649418    13.3001654834
Cu      2.4473718193     1.4019036603    15.3756436410
Cu      3.6755526172     3.5308294390    15.3734539253
Cu      4.9034453091     5.6608664371    15.3739666166
Cu      6.1328413075     7.7890112700    15.3767074824
Cu      4.9045268980     1.4014922164    15.3755385191
Cu      6.1327061097     3.5310007957    15.3733279279
Cu      7.3614009224     5.6608530157    15.3739928172
Cu      8.5910491874     7.7878490295    15.3768897555
Cu      7.3625712302     1.4026628038    15.3739447253
Cu      8.5913960041     3.5316197730    15.3746245515
Cu      9.8201394844     5.6602385165    15.3744365066
Cu     11.0494011322     7.7879541851    15.3768812871
Cu      9.8203145949     1.4034869010    15.3759747127
Cu     11.0488313159     3.5313089177    15.3757051215
Cu     12.2771650208     5.6597463899    15.3763496947
Cu     13.5057107245     7.7884541933    15.3769989767
Cu      1.2136551466     0.6832808375    17.5696148535
Cu      2.4379353130     2.8196504206    17.5405319155
Cu      3.6607210378     4.9461005565    17.5521931355
Cu      4.8964758698     7.0748355155    17.5653488995
Cu      3.6710575657     0.6799469396    17.5687567556
Cu      4.8936906534     2.7994790898    17.5363559304
Cu      6.1291174944     4.9528864365    17.5341568749
Cu      7.3555085244     7.0775240468    17.5615265600
Cu      6.1302575773     0.6782055846    17.5636800619
Cu      7.3631726697     2.8068754271    17.5500988229
Cu      8.5970484444     4.9458076021    17.5342997527
Cu      9.8180674673     7.0734588302    17.5648118732
Cu      8.5885529688     0.6817847592    17.5622775890
Cu      9.8197883472     2.8100626848    17.5665152008
Cu     11.0468652123     4.9420450404    17.5645361310
Cu     12.2740170793     7.0698884653    17.5709416089
O       6.0365299684     3.5011159764    21.1802338015
O       7.4399187153     4.3734323175    19.3511181021
O       6.4970943253     4.3113291755    23.9334831146
C       7.0805592141     4.4158573498    21.6351909306
C       8.1851252133     4.4492651700    20.5769605463
C       7.5878350521     4.0816123753    22.9968135550
H       6.5773831606     5.3955646650    21.6263931796
H       8.8820624147     3.5963957694    20.6080320926
H       8.7561767838     5.3853533002    20.5449210709
H       8.4394871163     4.7397060284    23.2183876284
H       7.9174153884     3.0417383591    23.0170870164
H       6.3969237237     2.6204469323    21.0682244014
H       6.5669519480     3.9864189011    19.6438185042
H       6.8060700010     4.1749865083    24.7946561324
O       3.0431670026     1.7583002100    19.1379917688
H       2.3483441143     1.3630466461    19.6980516678
80
Step 4 | NEB Image 4 | Cartesian Angstrom
Ni      1.2286093838     0.7093317413    11.2499125670
Ni      2.4572413837     2.8374305627    11.2498214861
Ni      3.6858940822     4.9655614182    11.2497557140
Ni      4.9145654447     7.0936901656    11.2497669042
Ni      3.6859163017     0.7093065234    11.2498389186
Ni      4.9145726348     2.8374168297    11.2497238419
Ni      6.1432460509     4.9655624274    11.2496793125
Ni      7.3719190027     7.0936933139    11.2497369118
Ni      6.1432504556     0.7092888852    11.2497859443
Ni      7.3719301579     2.8374101796    11.2496948237
Ni      8.6006070870     4.9655561264    11.2496974779
Ni      9.8292614339     7.0936765797    11.2497856326
Ni      8.6005922709     0.7092902037    11.2497905584
Ni      9.8292749674     2.8374152158    11.2497514520
Ni     11.0579344272     4.9655475800    11.2497908607
Ni     12.2865669665     7.0936529938    11.2498682037
Ni     14.7391933139     8.5053862392    13.3010878805
Ni     11.0533525041     2.1205460949    13.3003774954
Ni     12.2819339287     4.2489812123    13.3002669343
Ni     13.5103431762     6.3773914602    13.3007598209
Ni      7.3672970739     8.5049708763    13.3007134609
Ni      3.6812454221     2.1206594411    13.3001482686
Ni      4.9098066232     4.2493744837    13.3000472001
Ni      6.1381915955     6.3776927388    13.3003400498
Ni      9.8242291738     8.5048701428    13.3007262497
Ni      6.1383621719     2.1206072672    13.3000055475
Ni      7.3669941378     4.2490469798    13.2998598348
Ni      8.5955480010     6.3769146270    13.3002343912
Ni     12.2817825389     8.5052491494    13.3004150782
Ni      8.5960226645     2.1204418664    13.3003477165
Ni      9.8247086370     4.2487070081    13.3000394945
Ni     11.0530650994     6.3770532773    13.3002368866
Cu      2.4474281156     1.4019898226    15.3757727229
Cu      3.6756971155     3.5308584886    15.3738634531
Cu      4.9036422904     5.6607198347    15.3745162997
Cu      6.1329018247     7.7888634398    15.3769570433
Cu      4.9045958999     1.4016471497    15.3757173213
Cu      6.1327681918     3.5311683287    15.3739411792
Cu      7.3613898117     5.6607580155    15.3745488840
Cu      8.5910389271     7.7877358666    15.3771306549
Cu      7.3626026657     1.4028191201    15.3741407436
Cu      8.5913751342     3.5317390100    15.3750168883
Cu      9.8200660074     5.6602022772    15.3747851143
Cu     11.0493492445     7.7878934230    15.3770250248
Cu      9.8202978604     1.4035883529    15.3761472142
Cu     11.0487572438     3.5313584003    15.3759268251
Cu     12.2770929888     5.6597308625    15.3764872447
Cu     13.5056750253     7.7884325030    15.3770512087
Cu      1.2136054891     0.6833194991    17.5694254509
Cu      2.4381123929     2.8162827560    17.5460357062
Cu      3.6636148257     4.9459416946    17.5543127572
Cu      4.8970514238     7.0738314235    17.5662890513
Cu      3.6709263071     0.6801247872    17.5686011733
Cu      4.8976997511     2.8032688447    17.5392004816
Cu      6.1275160062     4.9501284744    17.5427234653
Cu      7.3558718088     7.0765914628    17.5629637431
Cu      6.1306069459     0.6785062374    17.5635046784
Cu      7.3626186292     2.8084288426    17.5517741305
Cu      8.5976437018     4.9468997204    17.5388122456
Cu      9.8177913858     7.0728966347    17.5659160751
Cu      8.5887650401     0.6821357225    17.5626050213
Cu      9.8195991935     2.8106822386    17.5678451585
Cu     11.0463035669     4.9420549717    17.5655642580
Cu     12.2738300799     7.0697744446    17.5711817016
O       5.9454825331     3.0223879039    20.9645750985
O       7.4841532002     4.2748922173    19.0584901208
O       5.9644805870     4.2728289044    23.6362093847
C       6.7110283956     4.2036655898    21.3519555735
C       7.9090576534     4.3490435657    20.4237093691
C       7.1290306220     4.0934488190    22.8023029927
H       6.0514659416     5.0853406713    21.2314126020
H       8.6391183341     3.5344857083    20.6123330875
H       8.4232667426     5.3056564657    20.6095671495
H       7.8881561100     4.8599824445    23.0307889418
H       7.5756849320     3.0967696412    22.9661965801
H       6.4071846057     2.5999585151    20.2464584007
H       4.4300287357     2.9030140776    20.2438921640
H       6.2016760339     4.1022196285    24.5351479626
O       3.5459638366     2.6865194142    19.7804123479
H       3.2254156945     1.8279251109    20.0503014510
80
Step 5 | NEB Image 5 | Cartesian Angstrom
Ni      1.2286497034     0.7093615225    11.2499999440
Ni      2.4572989609     2.8374461750    11.2499999440
Ni      3.6859482184     4.9655308275    11.2499999440
Ni      4.9145974759     7.0936154800    11.2499999440
Ni      3.6859497034     0.7093615225    11.2499999440
Ni      4.9145989609     2.8374461750    11.2499999440
Ni      6.1432482184     4.9655308275    11.2499999440
Ni      7.3718974759     7.0936154800    11.2499999440
Ni      6.1432497034     0.7093615225    11.2499999440
Ni      7.3718989609     2.8374461750    11.2499999440
Ni      8.6005482184     4.9655308275    11.2499999440
Ni      9.8291974759     7.0936154800    11.2499999440
Ni      8.6005497034     0.7093615225    11.2499999440
Ni      9.8291989609     2.8374461750    11.2499999440
Ni     11.0578482184     4.9655308275    11.2499999440
Ni     12.2864974759     7.0936154800    11.2499999440
Ni     14.7391156794     8.5053429999    13.3011712910
Ni     11.0531329642     2.1206495503    13.3008022026
Ni     12.2817169557     4.2489790177    13.3006008466
Ni     13.5101985270     6.3773433856    13.3009432678
Ni      7.3672569131     8.5047181091    13.3011774747
Ni      3.6813641840     2.1207833643    13.3007249066
Ni      4.9098915592     4.2493198517    13.3009123494
Ni      6.1382080000     6.3774560890    13.3011137055
Ni      9.8241033938     8.5046823573    13.3010831736
Ni      6.1383369699     2.1207818321    13.3007716707
Ni      7.3668809566     4.2490234521    13.3008056810
Ni      8.5953896076     6.3767159412    13.3009509974
Ni     12.2816608204     8.5051500252    13.3006066438
Ni      8.5958457422     2.1206092019    13.3010364095
Ni      9.8244550440     4.2487038138    13.3007276120
Ni     11.0528529688     6.3769410074    13.3006611374
Cu      2.4478274055     1.4024593708    15.3768195742
Cu      3.6763308468     3.5307009057    15.3768060474
Cu      4.9041378398     5.6597275336    15.3773448005
Cu      6.1330260451     7.7878910103    15.3784795057
Cu      4.9046987540     1.4026027186    15.3777977550
Cu      6.1325026510     3.5313493756    15.3777258697
Cu      7.3610720952     5.6598451741    15.3779276123
Cu      8.5906751295     7.7868954923    15.3785351588
Cu      7.3621786280     1.4037477983    15.3762151195
Cu      8.5904727564     3.5321453644    15.3780682910
Cu      9.8190628915     5.6596863338    15.3769316534
Cu     11.0489115080     7.7874997832    15.3777154348
Cu      9.8196453802     1.4041813317    15.3774700200
Cu     11.0479045662     3.5315147704    15.3771971651
Cu     12.2765483193     5.6595852924    15.3771299176
Cu     13.5054403579     7.7883030926    15.3772814178
Cu      1.2140125591     0.6836803076    17.5697065574
Cu      2.4431555374     2.8116125893    17.5665702724
Cu      3.6705110760     4.9384343512    17.5687388115
Cu      4.8988742539     7.0688538531    17.5715929661
Cu      3.6716454744     0.6829118137    17.5713989532
Cu      4.8981418913     2.8112417067    17.5722074693
Cu      6.1274353048     4.9410331682    17.5708265763
Cu      7.3554752500     7.0698228126    17.5713297733
Cu      6.1297077779     0.6833063606    17.5689100221
Cu      7.3567237656     2.8135682139    17.5698797004
Cu      8.5851063076     4.9421568820    17.5702368079
Cu      9.8152975701     7.0699596058    17.5700617325
Cu      8.5865082080     0.6855771971    17.5667967496
Cu      9.8144914881     2.8135456562    17.5749499312
Cu     11.0427692018     4.9416447797    17.5690866435
Cu     12.2728600100     7.0692517198    17.5719744219
O       5.4816243728     2.5651691502    20.6539118200
O       7.3508896973     4.2099530947    19.0383354809
O       4.4981563510     3.9587391709    22.9072956728
C       5.9290713561     3.8945947838    20.9960208007
C       7.3297021271     4.1881915565    20.4688911028
C       5.8721709119     4.0116672750    22.5089584937
H       5.2340507257     4.6323215466    20.5533350446
H       8.0432145389     3.4244560240    20.8191443760
H       7.6571223136     5.1738780612    20.8354754738
H       6.3359933253     4.9675285031    22.8148914030
H       6.4497260984     3.1808581747    22.9509168945
H       5.8597578631     2.3152772777    19.7784701378
H       3.6583776659     2.5435355524    20.3168147116
H       4.4610770249     3.8064239805    23.8648388416
O       2.7103082747     2.5416543255    20.0177020144
H       2.4292112216     1.6097423068    20.0822731560
