80
Step 1 | NEB Image 1 | Cartesian Angstrom
Ni      1.2286497034     0.7093615225    11.2499999440
Ni      2.4572989609     2.8374461750    11.2499999440
Ni      3.6859482184     4.9655308275    11.2499999440
Ni      4.9145974759     7.0936154800    11.2499999440
Ni      3.6859497034     0.7093615225    11.2499999440
Ni      4.9145989609     2.8374461750    11.2499999440
Ni      6.1432482184     4.9655308275    11.2499999440
Ni      7.3718974759     7.0936154800    11.2499999440
Ni      6.1432497034     0.7093615225    11.2499999440
Ni      7.3718989609     2.8374461750    11.2499999440
Ni      8.6005482184     4.9655308275    11.2499999440
Ni      9.8291974759     7.0936154800    11.2499999440
Ni      8.6005497034     0.7093615225    11.2499999440
Ni      9.8291989609     2.8374461750    11.2499999440
Ni     11.0578482184     4.9655308275    11.2499999440
Ni     12.2864974759     7.0936154800    11.2499999440
Ni     14.7391156794     8.5053429999    13.3011712910
Ni     11.0531329642     2.1206495503    13.3008022026
Ni     12.2817169557     4.2489790177    13.3006008466
Ni     13.5101985270     6.3773433856    13.3009432678
Ni      7.3672569131     8.5047181091    13.3011774747
Ni      3.6813641840     2.1207833643    13.3007249066
Ni      4.9098915592     4.2493198517    13.3009123494
Ni      6.1382080000     6.3774560890    13.3011137055
Ni      9.8241033938     8.5046823573    13.3010831736
Ni      6.1383369699     2.1207818321    13.3007716707
Ni      7.3668809566     4.2490234521    13.3008056810
Ni      8.5953896076     6.3767159412    13.3009509974
Ni     12.2816608204     8.5051500252    13.3006066438
Ni      8.5958457422     2.1206092019    13.3010364095
Ni      9.8244550440     4.2487038138    13.3007276120
Ni     11.0528529688     6.3769410074    13.3006611374
Cu      2.4478274055     1.4024593708    15.3768195742
Cu      3.6763308468     3.5307009057    15.3768060474
Cu      4.9041378398     5.6597275336    15.3773448005
Cu      6.1330260451     7.7878910103    15.3784795057
Cu      4.9046987540     1.4026027186    15.3777977550
Cu      6.1325026510     3.5313493756    15.3777258697
Cu      7.3610720952     5.6598451741    15.3779276123
Cu      8.5906751295     7.7868954923    15.3785351588
Cu      7.3621786280     1.4037477983    15.3762151195
Cu      8.5904727564     3.5321453644    15.3780682910
Cu      9.8190628915     5.6596863338    15.3769316534
Cu     11.0489115080     7.7874997832    15.3777154348
Cu      9.8196453802     1.4041813317    15.3774700200
Cu     11.0479045662     3.5315147704    15.3771971651
Cu     12.2765483193     5.6595852924    15.3771299176
Cu     13.5054403579     7.7883030926    15.3772814178
Cu      1.2140125591     0.6836803076    17.5697065574
Cu      2.4431555374     2.8116125893    17.5665702724
Cu      3.6705110760     4.9384343512    17.5687388115
Cu      4.8988742539     7.0688538531    17.5715929661
Cu      3.6716454744     0.6829118137    17.5713989532
Cu      4.8981418913     2.8112417067    17.5722074693
Cu      6.1274353048     4.9410331682    17.5708265763
Cu      7.3554752500     7.0698228126    17.5713297733
Cu      6.1297077779     0.6833063606    17.5689100221
Cu      7.3567237656     2.8135682139    17.5698797004
Cu      8.5851063076     4.9421568820    17.5702368079
Cu      9.8152975701     7.0699596058    17.5700617325
Cu      8.5865082080     0.6855771971    17.5667967496
Cu      9.8144914881     2.8135456562    17.5749499312
Cu     11.0427692018     4.9416447797    17.5690866435
Cu     12.2728600100     7.0692517198    17.5719744219
O       7.2288202015     4.2734569284    22.3446828621
O       8.3044696405     5.3171068409    20.0014702420
O       8.8891638945     4.8479579810    24.7349733808
C       8.5251333110     4.9000290628    22.3715153937
C       9.1804211035     4.7744357207    20.9993344800
C       9.4189460410     4.3898719266    23.4895992517
H       8.3072385962     5.9614198807    22.5605187870
H       9.4153356173     3.7172718747    20.7683620669
H      10.1139922737     5.3503076003    20.9408546493
H      10.4461642949     4.7683945991    23.3275539960
H       9.4595638267     3.2836247445    23.4537018323
H       7.3561498138     3.3073831923    22.3295378714
H       7.4071380143     4.9636379387    20.1831718691
H       9.4432595602     4.5017937719    25.4528614775
O       2.4447775074     1.3898406800    19.0162048647
H       2.5328987835     1.2730973609    19.9764139723
80
Step 2 | NEB Image 2 | Cartesian Angstrom
Ni      1.2286107823     0.7093338712    11.2499224581
Ni      2.4572416590     2.8374300248    11.2498417348
Ni      3.6858884474     4.9655541512    11.2497786636
Ni      4.9145562792     7.0936810528    11.2497809928
Ni      3.6859142846     0.7093101793    11.2498585135
Ni      4.9145638461     2.8374139854    11.2497512006
Ni      6.1432319032     4.9655533628    11.2496987470
Ni      7.3719062256     7.0936851717    11.2497448813
Ni      6.1432407782     0.7092915628    11.2498082824
Ni      7.3719141597     2.8374054870    11.2497155059
Ni      8.6005911969     4.9655485339    11.2497073071
Ni      9.8292499191     7.0936711064    11.2497864054
Ni      8.6005787484     0.7092906637    11.2498053354
Ni      9.8292594352     2.8374109714    11.2497603449
Ni     11.0579222549     4.9655427772    11.2497914468
Ni     12.2865600806     7.0936503942    11.2498645587
Ni     14.7391913747     8.5053866317    13.3010794981
Ni     11.0533180581     2.1205365902    13.3003829808
Ni     12.2819130461     4.2489716314    13.3002545526
Ni     13.5103359025     6.3773884507    13.3007450065
Ni      7.3672696157     8.5049547716    13.3007204395
Ni      3.6812470010     2.1206698437    13.3002328122
Ni      4.9097663698     4.2493425260    13.3001340669
Ni      6.1381493065     6.3776626817    13.3003700828
Ni      9.8242072297     8.5048623940    13.3007177218
Ni      6.1383170770     2.1206013733    13.3000943815
Ni      7.3669400115     4.2490157320    13.2999057023
Ni      8.5955078822     6.3768917698    13.3002437244
Ni     12.2817732690     8.5052481857    13.3004017029
Ni      8.5959703194     2.1204315956    13.3003922414
Ni      9.8246618718     4.2486884189    13.3000518817
Ni     11.0530390154     6.3770427208    13.3002242866
Cu      2.4475095774     1.4020676576    15.3758046286
Cu      3.6757850871     3.5308025486    15.3744587123
Cu      4.9033748043     5.6605481154    15.3746681722
Cu      6.1327913533     7.7888050156    15.3769844506
Cu      4.9045469025     1.4018316836    15.3762003322
Cu      6.1324145787     3.5309093639    15.3742518302
Cu      7.3612572735     5.6606356463    15.3745606095
Cu      8.5909355205     7.7876912109    15.3770997889
Cu      7.3623847557     1.4028230704    15.3743990192
Cu      8.5911436367     3.5316515103    15.3751634431
Cu      9.8198836582     5.6601142713    15.3747817647
Cu     11.0493099883     7.7878936122    15.3769507856
Cu      9.8201448849     1.4035656592    15.3762043477
Cu     11.0486440885     3.5313094572    15.3758728402
Cu     12.2770674180     5.6597185343    15.3764016346
Cu     13.5056752105     7.7884387465    15.3770110798
Cu      1.2130784642     0.6828265467    17.5688455237
Cu      2.4398877617     2.8218988368    17.5448383294
Cu      3.6640121537     4.9425615127    17.5591909411
Cu      4.8962760033     7.0734819842    17.5665395744
Cu      3.6723550401     0.6801020641    17.5683629054
Cu      4.8945852795     2.8043005386    17.5522836310
Cu      6.1245621343     4.9497467320    17.5351252562
Cu      7.3551003398     7.0763351112    17.5627320130
Cu      6.1297809308     0.6797054169    17.5653861945
Cu      7.3610095030     2.8062337941    17.5526449499
Cu      8.5929940282     4.9440117843    17.5418274989
Cu      9.8174437470     7.0730464153    17.5650980569
Cu      8.5878241961     0.6824315925    17.5632709974
Cu      9.8184928673     2.8103541304    17.5675576803
Cu     11.0462388008     4.9418845475    17.5645300458
Cu     12.2739011597     7.0698584874    17.5708995696
O       6.5080869229     3.7437015026    21.9080608174
O       7.9204577200     5.2499972420    20.0408987053
O       7.4000168757     4.1557047118    24.6771039570
C       7.6518116424     4.5129642357    22.3179807920
C       8.6017961299     4.6721181391    21.1558267685
C       8.3226769892     3.9883623887    23.5531323668
H       7.2129435309     5.5138024511    22.5640666502
H       9.0443620566     3.6974798410    20.8777572877
H       9.4362152109     5.3664731008    21.3998637018
H       9.2561429584     4.5498115175    23.7416739732
H       8.5865316977     2.9190776262    23.4288640112
H       6.8057746740     2.8162107525    21.7701822599
H       7.0536085226     4.7783263056    19.9780651903
H       7.8831415830     3.8263063964    25.5216550643
O       2.4414172789     1.4100683343    18.9830277114
H       2.5263388747     1.3921810092    19.9562636650
80
Step 3 | NEB Image 3 | Cartesian Angstrom
Ni      1.2286004074     0.7093247897    11.2498984659
Ni      2.4572276994     2.8374251443    11.2497880353
Ni      3.6858805533     4.9655653114    11.2497076656
Ni      4.9145569525     7.0937033096    11.2497220132
Ni      3.6859079096     0.7092945204    11.2498126125
Ni      4.9145647427     2.8374080993    11.2496738025
Ni      6.1432428066     4.9655656221    11.2496198641
Ni      7.3719203617     7.0937057947    11.2496886055
Ni      6.1432476047     0.7092741887    11.2497520336
Ni      7.3719321121     2.8374007601    11.2496429310
Ni      8.6006140235     4.9655579126    11.2496446433
Ni      9.8292699890     7.0936857130    11.2497471301
Ni      8.6005957853     0.7092767587    11.2497578751
Ni      9.8292838980     2.8374077860    11.2497101539
Ni     11.0579460351     4.9655486240    11.2497542526
Ni     12.2865771378     7.0936585071    11.2498440566
Ni     14.7392059753     8.5053934632    13.3010713575
Ni     11.0533786250     2.1205244188    13.3003058138
Ni     12.2819647023     4.2489779834    13.3002053182
Ni     13.5103658555     6.3773984247    13.3007238784
Ni      7.3672981881     8.5050144549    13.3006276545
Ni      3.6812143220     2.1206256034    13.3000452223
Ni      4.9097784937     4.2493743000    13.2998738027
Ni      6.1381815394     6.3777334878    13.3001892780
Ni      9.8242458128     8.5049013782    13.3006590591
Ni      6.1383560045     2.1205633925    13.2998764171
Ni      7.3670052335     4.2490401066    13.2996909805
Ni      8.5955666472     6.3769434248    13.3001047911
Ni     12.2818013004     8.5052658379    13.3003775871
Ni      8.5960385445     2.1204063322    13.3002395247
Ni      9.8247390832     4.2486997006    13.2999213847
Ni     11.0530949569     6.3770690543    13.3001578007
Cu      2.4473450426     1.4018732901    15.3756173723
Cu      3.6755113249     3.5308378125    15.3732585365
Cu      4.9034768385     5.6609270056    15.3738510116
Cu      6.1328574076     7.7890463321    15.3766644334
Cu      4.9045278016     1.4014275065    15.3754026747
Cu      6.1327770834     3.5310347300    15.3731669770
Cu      7.3614325979     5.6608947614    15.3739080837
Cu      8.5910741283     7.7878758472    15.3768611938
Cu      7.3626159586     1.4026388345    15.3738572908
Cu      8.5914515225     3.5316219922    15.3745334581
Cu      9.8201916385     5.6602638001    15.3743858140
Cu     11.0494176836     7.7879631089    15.3768768926
Cu      9.8203517137     1.4034770710    15.3759363157
Cu     11.0488678788     3.5313127020    15.3756846340
Cu     12.2771814433     5.6597514736    15.3763487911
Cu     13.5057159504     7.7884559792    15.3770003605
Cu      1.2137820277     0.6833869164    17.5697744065
Cu      2.4375068879     2.8188751370    17.5399901717
Cu      3.6602030831     4.9468900044    17.5507742646
Cu      4.8965666287     7.0750630313    17.5651533000
Cu      3.6707530803     0.6799259603    17.5688340061
Cu      4.8938034605     2.7986847465    17.5329705742
Cu      6.1300243298     4.9533805997    17.5346136839
Cu      7.3556296535     7.0777197462    17.5613669528
Cu      6.1303930996     0.6778895018    17.5632797647
Cu      7.3636191382     2.8071435723    17.5496546417
Cu      8.5980137747     4.9463004549    17.5329502857
Cu      9.8181869868     7.0735078801    17.5648342015
Cu      8.5887347571     0.6816659600    17.5620784035
Cu      9.8200668501     2.8100455752    17.5663840184
Cu     11.0469627877     4.9420821855    17.5646186986
Cu     12.2740285744     7.0698862498    17.5709700986
O       5.8464655272     3.2962163669    21.9132276583
O       7.2383225711     4.4069294933    19.9036609730
O       6.4799345819     4.2039256914    24.6290182503
C       6.8569660334     4.2585815804    22.2701392994
C       7.9053170068     4.3115238328    21.1602539037
C       7.4731349895     3.9967238279    23.6295897336
H       6.3134856123     5.2172102373    22.2973299390
H       8.5539273289     3.4197489320    21.1805683699
H       8.5478544755     5.2053856406    21.2483428576
H       8.3348296422     4.6796573398    23.7639200167
H       7.8662866449     2.9606670819    23.6537290349
H       6.2258755436     2.3990996735    22.0315898208
H       6.4356167857     3.8322056717    19.9772328435
H       6.8741039371     4.0033288181    25.5070776621
O       3.6111082373     2.0899223056    18.9795425176
H       3.4103216270     2.0712042095    19.9466524833
80
Step 4 | NEB Image 4 | Cartesian Angstrom
Ni      1.2286019219     0.7093259262    11.2499005781
Ni      2.4572300727     2.8374261064    11.2497931572
Ni      3.6858831048     4.9655648857    11.2497152356
Ni      4.9145587495     7.0937013371    11.2497293412
Ni      3.6859094410     0.7092964835    11.2498165132
Ni      4.9145664221     2.8374097182    11.2496815663
Ni      6.1432438627     4.9655653804    11.2496295415
Ni      7.3719205686     7.0937039040    11.2496967408
Ni      6.1432484371     0.7092766549    11.2497571633
Ni      7.3719323272     2.8374025632    11.2496512495
Ni      8.6006133672     4.9655578651    11.2496535027
Ni      9.8292688989     7.0936843125    11.2497538081
Ni      8.6005956426     0.7092790840    11.2497630536
Ni      9.8292828820     2.8374092271    11.2497170369
Ni     11.0579444362     4.9655486089    11.2497606072
Ni     12.2865756056     7.0936576372    11.2498483882
Ni     14.7392038377     8.5053921916    13.3010745258
Ni     11.0533752718     2.1205285234    13.3003181062
Ni     12.2819600682     4.2489788782    13.3002164779
Ni     13.5103621586     6.3773973164    13.3007306517
Ni      7.3672989473     8.5050074252    13.3006423545
Ni      3.6812196825     2.1206311341    13.3000602310
Ni      4.9097847894     4.2493754413    13.2999009807
Ni      6.1381847588     6.3777274354    13.3002144900
Ni      9.8242436770     8.5048962078    13.3006710557
Ni      6.1383586439     2.1205712369    13.2998958195
Ni      7.3670051804     4.2490423881    13.2997187922
Ni      8.5955647928     6.3769392034    13.3001270356
Ni     12.2817983550     8.5052629652    13.3003845802
Ni      8.5960375961     2.1204128766    13.3002568199
Ni      9.8247354045     4.2487016183    13.2999415226
Ni     11.0530906629     6.3770666732    13.3001720102
Cu      2.4473566795     1.4018908786    15.3756433189
Cu      3.6755406200     3.5308433532    15.3733432020
Cu      4.9035149354     5.6608968934    15.3739615834
Cu      6.1328689776     7.7890165124    15.3767144359
Cu      4.9045413593     1.4014593447    15.3754406972
Cu      6.1327878127     3.5310669828    15.3732910045
Cu      7.3614297490     5.6608751964    15.3740192642
Cu      8.5910715878     7.7878530211    15.3769091889
Cu      7.3626212078     1.4026700917    15.3738976869
Cu      8.5914462550     3.5316454061    15.3746125569
Cu      9.8201760906     5.6602561411    15.3744554640
Cu     11.0494071283     7.7879509671    15.3769052653
Cu      9.8203476448     1.4034972375    15.3759710590
Cu     11.0488525401     3.5313223586    15.3757286834
Cu     12.2771669273     5.6597483122    15.3763758733
Cu     13.5057088172     7.7884516742    15.3770106083
Cu      1.2137695995     0.6833923015    17.5697337982
Cu      2.4375506939     2.8182287601    17.5410844066
Cu      3.6607832985     4.9468422266    17.5512210101
Cu      4.8966779709     7.0748607101    17.5653423715
Cu      3.6707336290     0.6799613885    17.5688017719
Cu      4.8945899246     2.7994470378    17.5336011077
Cu      6.1296902324     4.9528276109    17.5362896307
Cu      7.3556985971     7.0775321639    17.5616530613
Cu      6.1304590046     0.6779552697    17.5632536307
Cu      7.3635007852     2.8074435981    17.5499935478
Cu      8.5981107014     4.9465050258    17.5338663713
Cu      9.8181301662     7.0733962403    17.5650509895
Cu      8.5887726807     0.6817374977    17.5621469936
Cu      9.8200238081     2.8101678321    17.5666484361
Cu     11.0468502409     4.9420833623    17.5648192577
Cu     12.2739915413     7.0698638623    17.5710167412
O       6.0637709580     2.8708556717    21.1682966427
O       7.4231347356     4.2478612492    19.0632886789
O       6.2158995981     4.2041317585    23.7742430829
C       6.7693023664     4.0963155825    21.4334400280
C       7.8882851190     4.3421158344    20.4200736769
C       7.3168261287     4.0534195901    22.8643083790
H       6.0235354527     4.9066532287    21.3786189327
H       8.6919573232     3.6024347757    20.5688374162
H       8.3174773194     5.3440704893    20.5964618445
H       8.0509122324     4.8729691818    23.0064660966
H       7.8311517985     3.0945593633    23.0183246712
H       6.5771457060     2.3901363820    20.4018386441
H       4.5303626601     2.9453749700    20.4296877590
H       6.5318335602     4.0421924853    24.6682700818
O       3.6939662045     2.9312041582    19.9351420000
H       3.3721720856     1.9758493252    20.0766083637
80
Step 5 | NEB Image 5 | Cartesian Angstrom
Ni      1.2286497034     0.7093615225    11.2499999440
Ni      2.4572989609     2.8374461750    11.2499999440
Ni      3.6859482184     4.9655308275    11.2499999440
Ni      4.9145974759     7.0936154800    11.2499999440
Ni      3.6859497034     0.7093615225    11.2499999440
Ni      4.9145989609     2.8374461750    11.2499999440
Ni      6.1432482184     4.9655308275    11.2499999440
Ni      7.3718974759     7.0936154800    11.2499999440
Ni      6.1432497034     0.7093615225    11.2499999440
Ni      7.3718989609     2.8374461750    11.2499999440
Ni      8.6005482184     4.9655308275    11.2499999440
Ni      9.8291974759     7.0936154800    11.2499999440
Ni      8.6005497034     0.7093615225    11.2499999440
Ni      9.8291989609     2.8374461750    11.2499999440
Ni     11.0578482184     4.9655308275    11.2499999440
Ni     12.2864974759     7.0936154800    11.2499999440
Ni     14.7391156794     8.5053429999    13.3011712910
Ni     11.0531329642     2.1206495503    13.3008022026
Ni     12.2817169557     4.2489790177    13.3006008466
Ni     13.5101985270     6.3773433856    13.3009432678
Ni      7.3672569131     8.5047181091    13.3011774747
Ni      3.6813641840     2.1207833643    13.3007249066
Ni      4.9098915592     4.2493198517    13.3009123494
Ni      6.1382080000     6.3774560890    13.3011137055
Ni      9.8241033938     8.5046823573    13.3010831736
Ni      6.1383369699     2.1207818321    13.3007716707
Ni      7.3668809566     4.2490234521    13.3008056810
Ni      8.5953896076     6.3767159412    13.3009509974
Ni     12.2816608204     8.5051500252    13.3006066438
Ni      8.5958457422     2.1206092019    13.3010364095
Ni      9.8244550440     4.2487038138    13.3007276120
Ni     11.0528529688     6.3769410074    13.3006611374
Cu      2.4478274055     1.4024593708    15.3768195742
Cu      3.6763308468     3.5307009057    15.3768060474
Cu      4.9041378398     5.6597275336    15.3773448005
Cu      6.1330260451     7.7878910103    15.3784795057
Cu      4.9046987540     1.4026027186    15.3777977550
Cu      6.1325026510     3.5313493756    15.3777258697
Cu      7.3610720952     5.6598451741    15.3779276123
Cu      8.5906751295     7.7868954923    15.3785351588
Cu      7.3621786280     1.4037477983    15.3762151195
Cu      8.5904727564     3.5321453644    15.3780682910
Cu      9.8190628915     5.6596863338    15.3769316534
Cu     11.0489115080     7.7874997832    15.3777154348
Cu      9.8196453802     1.4041813317    15.3774700200
Cu     11.0479045662     3.5315147704    15.3771971651
Cu     12.2765483193     5.6595852924    15.3771299176
Cu     13.5054403579     7.7883030926    15.3772814178
Cu      1.2140125591     0.6836803076    17.5697065574
Cu      2.4431555374     2.8116125893    17.5665702724
Cu      3.6705110760     4.9384343512    17.5687388115
Cu      4.8988742539     7.0688538531    17.5715929661
Cu      3.6716454744     0.6829118137    17.5713989532
Cu      4.8981418913     2.8112417067    17.5722074693
Cu      6.1274353048     4.9410331682    17.5708265763
Cu      7.3554752500     7.0698228126    17.5713297733
Cu      6.1297077779     0.6833063606    17.5689100221
Cu      7.3567237656     2.8135682139    17.5698797004
Cu      8.5851063076     4.9421568820    17.5702368079
Cu      9.8152975701     7.0699596058    17.5700617325
Cu      8.5865082080     0.6855771971    17.5667967496
Cu      9.8144914881     2.8135456562    17.5749499312
Cu     11.0427692018     4.9416447797    17.5690866435
Cu     12.2728600100     7.0692517198    17.5719744219
O       5.4816243728     2.5651691502    20.6539118200
O       7.3508896973     4.2099530947    19.0383354809
O       4.4981563510     3.9587391709    22.9072956728
C       5.9290713561     3.8945947838    20.9960208007
C       7.3297021271     4.1881915565    20.4688911028
C       5.8721709119     4.0116672750    22.5089584937
H       5.2340507257     4.6323215466    20.5533350446
H       8.0432145389     3.4244560240    20.8191443760
H       7.6571223136     5.1738780612    20.8354754738
H       6.3359933253     4.9675285031    22.8148914030
H       6.4497260984     3.1808581747    22.9509168945
H       5.8597578631     2.3152772777    19.7784701378
H       3.6583776659     2.5435355524    20.3168147116
H       4.4610770249     3.8064239805    23.8648388416
O       2.7103082747     2.5416543255    20.0177020144
H       2.4292112216     1.6097423068    20.0822731560
