80
Step 1 | NEB Image 1 | Cartesian Angstrom
Ni      1.2286497034     0.7093615225    11.2499999440
Ni      2.4572989609     2.8374461750    11.2499999440
Ni      3.6859482184     4.9655308275    11.2499999440
Ni      4.9145974759     7.0936154800    11.2499999440
Ni      3.6859497034     0.7093615225    11.2499999440
Ni      4.9145989609     2.8374461750    11.2499999440
Ni      6.1432482184     4.9655308275    11.2499999440
Ni      7.3718974759     7.0936154800    11.2499999440
Ni      6.1432497034     0.7093615225    11.2499999440
Ni      7.3718989609     2.8374461750    11.2499999440
Ni      8.6005482184     4.9655308275    11.2499999440
Ni      9.8291974759     7.0936154800    11.2499999440
Ni      8.6005497034     0.7093615225    11.2499999440
Ni      9.8291989609     2.8374461750    11.2499999440
Ni     11.0578482184     4.9655308275    11.2499999440
Ni     12.2864974759     7.0936154800    11.2499999440
Ni     14.7391156794     8.5053429999    13.3011712910
Ni     11.0531329642     2.1206495503    13.3008022026
Ni     12.2817169557     4.2489790177    13.3006008466
Ni     13.5101985270     6.3773433856    13.3009432678
Ni      7.3672569131     8.5047181091    13.3011774747
Ni      3.6813641840     2.1207833643    13.3007249066
Ni      4.9098915592     4.2493198517    13.3009123494
Ni      6.1382080000     6.3774560890    13.3011137055
Ni      9.8241033938     8.5046823573    13.3010831736
Ni      6.1383369699     2.1207818321    13.3007716707
Ni      7.3668809566     4.2490234521    13.3008056810
Ni      8.5953896076     6.3767159412    13.3009509974
Ni     12.2816608204     8.5051500252    13.3006066438
Ni      8.5958457422     2.1206092019    13.3010364095
Ni      9.8244550440     4.2487038138    13.3007276120
Ni     11.0528529688     6.3769410074    13.3006611374
Cu      2.4478274055     1.4024593708    15.3768195742
Cu      3.6763308468     3.5307009057    15.3768060474
Cu      4.9041378398     5.6597275336    15.3773448005
Cu      6.1330260451     7.7878910103    15.3784795057
Cu      4.9046987540     1.4026027186    15.3777977550
Cu      6.1325026510     3.5313493756    15.3777258697
Cu      7.3610720952     5.6598451741    15.3779276123
Cu      8.5906751295     7.7868954923    15.3785351588
Cu      7.3621786280     1.4037477983    15.3762151195
Cu      8.5904727564     3.5321453644    15.3780682910
Cu      9.8190628915     5.6596863338    15.3769316534
Cu     11.0489115080     7.7874997832    15.3777154348
Cu      9.8196453802     1.4041813317    15.3774700200
Cu     11.0479045662     3.5315147704    15.3771971651
Cu     12.2765483193     5.6595852924    15.3771299176
Cu     13.5054403579     7.7883030926    15.3772814178
Cu      1.2140125591     0.6836803076    17.5697065574
Cu      2.4431555374     2.8116125893    17.5665702724
Cu      3.6705110760     4.9384343512    17.5687388115
Cu      4.8988742539     7.0688538531    17.5715929661
Cu      3.6716454744     0.6829118137    17.5713989532
Cu      4.8981418913     2.8112417067    17.5722074693
Cu      6.1274353048     4.9410331682    17.5708265763
Cu      7.3554752500     7.0698228126    17.5713297733
Cu      6.1297077779     0.6833063606    17.5689100221
Cu      7.3567237656     2.8135682139    17.5698797004
Cu      8.5851063076     4.9421568820    17.5702368079
Cu      9.8152975701     7.0699596058    17.5700617325
Cu      8.5865082080     0.6855771971    17.5667967496
Cu      9.8144914881     2.8135456562    17.5749499312
Cu     11.0427692018     4.9416447797    17.5690866435
Cu     12.2728600100     7.0692517198    17.5719744219
O       7.2288202015     4.2734569284    22.3446828621
O       8.3044696405     5.3171068409    20.0014702420
O       8.8891638945     4.8479579810    24.7349733808
C       8.5251333110     4.9000290628    22.3715153937
C       9.1804211035     4.7744357207    20.9993344800
C       9.4189460410     4.3898719266    23.4895992517
H       8.3072385962     5.9614198807    22.5605187870
H       9.4153356173     3.7172718747    20.7683620669
H      10.1139922737     5.3503076003    20.9408546493
H      10.4461642949     4.7683945991    23.3275539960
H       9.4595638267     3.2836247445    23.4537018323
H       7.3561498138     3.3073831923    22.3295378714
H       7.4071380143     4.9636379387    20.1831718691
H       9.4432595602     4.5017937719    25.4528614775
O       2.4447775074     1.3898406800    19.0162048647
H       2.5328987835     1.2730973609    19.9764139723
80
Step 2 | NEB Image 2 | Cartesian Angstrom
Ni      1.2286133436     0.7093361109    11.2499283514
Ni      2.4572451117     2.8374312366    11.2498549405
Ni      3.6858904194     4.9655514189    11.2497961386
Ni      4.9145561434     7.0936755831    11.2497955222
Ni      3.6859158689     0.7093140398    11.2498697874
Ni      4.9145636551     2.8374154535    11.2497702360
Ni      6.1432292555     4.9655503658    11.2497181734
Ni      7.3719027754     7.0936801053    11.2497587557
Ni      6.1432391253     0.7092958484    11.2498220996
Ni      7.3719097784     2.8374066728    11.2497333617
Ni      8.6005856118     4.9655462446    11.2497227483
Ni      9.8292450013     7.0936675189    11.2497960999
Ni      8.6005745875     0.7092940968    11.2498170025
Ni      9.8292534474     2.8374117732    11.2497727054
Ni     11.0579164249     4.9655413508    11.2498006260
Ni     12.2865558928     7.0936484009    11.2498696313
Ni     14.7391877779     8.5053849452    13.3010815339
Ni     11.0533032257     2.1205396273    13.3004020079
Ni     12.2819003664     4.2489700966    13.3002667449
Ni     13.5103285340     6.3773859999    13.3007502691
Ni      7.3672626485     8.5049400840    13.3007433331
Ni      3.6812550850     2.1206807619    13.3002788957
Ni      4.9097635122     4.2493347886    13.3001981247
Ni      6.1381414778     6.3776452856    13.3004146642
Ni      9.8241977758     8.5048527954    13.3007322343
Ni      6.1383076106     2.1206107921    13.3001479359
Ni      7.3669240748     4.2490098218    13.2999585880
Ni      8.5954935029     6.3768790930    13.3002780018
Ni     12.2817663799     8.5052438325    13.3004076994
Ni      8.5959536502     2.1204378719    13.3004297925
Ni      9.8246429673     4.2486857003    13.3000840548
Ni     11.0530252918     6.3770362570    13.3002407412
Cu      2.4475500018     1.4021155002    15.3758507057
Cu      3.6758525861     3.5307940953    15.3747535658
Cu      4.9033504962     5.6604549776    15.3748698328
Cu      6.1327753904     7.7887455788    15.3770634242
Cu      4.9045518537     1.4019310692    15.3763958330
Cu      6.1323261193     3.5308793234    15.3745190204
Cu      7.3612143767     5.6605720619    15.3747217483
Cu      8.5909016425     7.7876457702    15.3771588142
Cu      7.3623283951     1.4028685731    15.3745318809
Cu      8.5910684281     3.5316591262    15.3753184476
Cu      9.8198082287     5.6600776574    15.3748795574
Cu     11.0492835271     7.7878764559    15.3769692800
Cu      9.8200943670     1.4035876018    15.3762703113
Cu     11.0485892321     3.5313088251    15.3759194812
Cu     12.2770393553     5.6597104469    15.3764149605
Cu     13.5056651544     7.7884344746    15.3770138546
Cu      1.2129056746     0.6826892605    17.5686169389
Cu      2.4404701377     2.8226265053    17.5460434002
Cu      3.6649559853     4.9415028490    17.5612576557
Cu      4.8962066782     7.0730918918    17.5668815281
Cu      3.6727467640     0.6801449790    17.5682457204
Cu      4.8947946374     2.8056907341    17.5570169571
Cu      6.1232164299     4.9488472611    17.5352784798
Cu      7.3549723976     7.0759941379    17.5630698517
Cu      6.1296328088     0.6801499864    17.5658996040
Cu      7.3603696975     2.8060158780    17.5533785162
Cu      8.5917712081     4.9434575678    17.5440114515
Cu      9.8172613006     7.0729319064    17.5651661136
Cu      8.5876028407     0.6826195088    17.5635631611
Cu      9.8181081990     2.8104314509    17.5678486043
Cu     11.0460601826     4.9418363110    17.5645116081
Cu     12.2738694599     7.0698513684    17.5708830645
O       6.5452081493     3.7514580296    21.8627598613
O       7.8246172109     5.0649521378    19.8271996091
O       7.5557936047     4.4792753205    24.5440086286
C       7.6810926088     4.5831014614    22.1639829143
C       8.6015608710     4.6325371120    20.9509729588
C       8.4064215853     4.1874498592    23.4345496569
H       7.2457843401     5.5847576448    22.3093699652
H       9.0503230263     3.6408863243    20.7443344089
H       9.4130858686     5.3611727451    21.0671684464
H       9.3513405706     4.7598887165    23.4906029085
H       8.6662152973     3.1112779907    23.3940124425
H       6.8512391182     2.8268174049    21.7851019662
H       6.9742876590     4.5666468815    19.8710266534
H       8.0126593650     4.2245110524    25.3622479032
O       2.4455290819     1.4137558284    18.9948897361
H       2.5158854144     1.3787545531    19.9683158006
80
Step 3 | NEB Image 3 | Cartesian Angstrom
Ni      1.2286016391     0.7093259225    11.2499017137
Ni      2.4572292602     2.8374256521    11.2497951922
Ni      3.6858810876     4.9655636402    11.2497168984
Ni      4.9145563265     7.0937003001    11.2497293831
Ni      3.6859084935     0.7092964724    11.2498188668
Ni      4.9145641149     2.8374085796    11.2496840074
Ni      6.1432407496     4.9655637214    11.2496297560
Ni      7.3719180298     7.0937030247    11.2496953071
Ni      6.1432462678     0.7092762712    11.2497595965
Ni      7.3719291646     2.8374010007    11.2496521994
Ni      8.6006105436     4.9655564191    11.2496521625
Ni      9.8292670773     7.0936837690    11.2497515185
Ni      8.6005930882     0.7092783238    11.2497640107
Ni      9.8292802591     2.8374078829    11.2497162373
Ni     11.0579426739     4.9655476888    11.2497583993
Ni     12.2865748379     7.0936574539    11.2498461036
Ni     14.7392042448     8.5053927318    13.3010717527
Ni     11.0533698577     2.1205251925    13.3003146736
Ni     12.2819577359     4.2489767049    13.3002100153
Ni     13.5103621070     6.3773971413    13.3007253222
Ni      7.3672933766     8.5050068871    13.3006383329
Ni      3.6812180326     2.1206311242    13.3000710543
Ni      4.9097747315     4.2493688646    13.2999078140
Ni      6.1381754299     6.3777238496    13.3002110787
Ni      9.8242402269     8.5048966024    13.3006650311
Ni      6.1383489869     2.1205672396    13.2999058631
Ni      7.3669947644     4.2490355323    13.2997174811
Ni      8.5955577362     6.3769363392    13.3001207125
Ni     12.2817976439     8.5052638288    13.3003794479
Ni      8.5960278527     2.1204085077    13.3002590856
Ni      9.8247277340     4.2486973356    13.2999365556
Ni     11.0530872034     6.3770655083    13.3001643921
Cu      2.4473681436     1.4018994766    15.3756399860
Cu      3.6755469107     3.5308305575    15.3734271050
Cu      4.9034494625     5.6608747642    15.3739505441
Cu      6.1328434550     7.7890161322    15.3767014675
Cu      4.9045269751     1.4014833212    15.3755199424
Cu      6.1327157121     3.5310052955    15.3733056517
Cu      7.3614052337     5.6608587510    15.3739809350
Cu      8.5910525831     7.7878527485    15.3768857148
Cu      7.3625772869     1.4026594432    15.3739327149
Cu      8.5914035616     3.5316199955    15.3746119136
Cu      9.8201466197     5.6602419760    15.3744293873
Cu     11.0494034156     7.7879554379    15.3768805946
Cu      9.8203196496     1.4034854980    15.3759693809
Cu     11.0488363331     3.5313093991    15.3757021906
Cu     12.2771673000     5.6597470910    15.3763494807
Cu     13.5057114583     7.7884544503    15.3769991301
Cu      1.2136724193     0.6832952252    17.5696366581
Cu      2.4378769826     2.8195473114    17.5404546558
Cu      3.6606487424     4.9462079292    17.5519989399
Cu      4.8964878200     7.0748670953    17.5653216986
Cu      3.6710162807     0.6799439706    17.5687673545
Cu      4.8937033249     2.7993686465    17.5358940554
Cu      6.1292417711     4.9529554097    17.5342132624
Cu      7.3555247422     7.0775512566    17.5615039196
Cu      6.1302757601     0.6781624368    17.5636257867
Cu      7.3632337017     2.8069108310    17.5500373563
Cu      8.5971792165     4.9458738457    17.5341133984
Cu      9.8180838904     7.0734658679    17.5648141746
Cu      8.5885775292     0.6817683842    17.5622503069
Cu      9.8198263151     2.8100599490    17.5664964938
Cu     11.0468788432     4.9420500810    17.5645466680
Cu     12.2740187653     7.0698882399    17.5709453207
O       6.0057254956     3.4994135744    21.3005342978
O       7.4748410208     4.3640055972    19.4572704790
O       6.5030804084     4.3006082955    24.0602752432
C       7.0395932517     4.4009262744    21.7573509709
C       8.1588761602     4.4397485139    20.7151657961
C       7.5553784748     4.0731631066    23.1346482939
H       6.5357666704     5.3785691970    21.7699724233
H       8.8572760594     3.5870629451    20.7939884865
H       8.7312962403     5.3733595028    20.7317202817
H       8.4330642251     4.7178541842    23.3328838158
H       7.9030644169     3.0205263183    23.1445039482
H       6.3381430871     2.5813794486    21.3085430595
H       6.5934841845     3.9379417430    19.6785559673
H       6.8384291906     4.1122860813    24.9671072538
O       3.0698557790     1.7754124820    19.1409644354
H       2.3847846886     1.3923841525    19.7235437163
80
Step 4 | NEB Image 4 | Cartesian Angstrom
Ni      1.2286078483     0.7093305937    11.2499104596
Ni      2.4572389695     2.8374295812    11.2498163598
Ni      3.6858914613     4.9655618204    11.2497481077
Ni      4.9145635765     7.0936921341    11.2497595063
Ni      3.6859147345     0.7093045410    11.2498350325
Ni      4.9145708880     2.8374151699    11.2497160572
Ni      6.1432449154     4.9655626346    11.2496695463
Ni      7.3719187374     7.0936952034    11.2497286659
Ni      6.1432495670     0.7092863867    11.2497808189
Ni      7.3719298706     2.8374083244    11.2496864457
Ni      8.6006076870     4.9655561423    11.2496885030
Ni      9.8292624941     7.0936779817    11.2497788391
Ni      8.6005923582     0.7092878390    11.2497853509
Ni      9.8292759351     2.8374137309    11.2497444845
Ni     11.0579360025     4.9655475749    11.2497843955
Ni     12.2865684965     7.0936538680    11.2498637795
Ni     14.7391954812     8.5053875352    13.3010846199
Ni     11.0533557696     2.1205418767    13.3003650078
Ni     12.2819385560     4.2489802606    13.3002555230
Ni     13.5103469079     6.3773925755    13.3007528637
Ni      7.3672961837     8.5049779620    13.3006985294
Ni      3.6812399733     2.1206538568    13.3001333550
Ni      4.9098000433     4.2493731854    13.3000199110
Ni      6.1381881379     6.3776987701    13.3003145182
Ni      9.8242312537     8.5048753720    13.3007140033
Ni      6.1383592926     2.1205992582    13.2999861803
Ni      7.3669939602     4.2490445241    13.2998317249
Ni      8.5955497167     6.3769188258    13.3002117911
Ni     12.2817854970     8.5052520692    13.3004079036
Ni      8.5960234059     2.1204351617    13.3003303041
Ni      9.8247121810     4.2487049769    13.3000190515
Ni     11.0530693582     6.3770556556    13.3002223705
Cu      2.4474166208     1.4019722551    15.3757464510
Cu      3.6756676772     3.5308526106    15.3737798323
Cu      4.9036023715     5.6607497467    15.3744044142
Cu      6.1328895761     7.7888935395    15.3769062690
Cu      4.9045818920     1.4016155363    15.3756806902
Cu      6.1327557578     3.5311343948    15.3738162776
Cu      7.3613921440     5.6607774048    15.3744357768
Cu      8.5910410705     7.7877589077    15.3770816742
Cu      7.3625963908     1.4027873241    15.3741007336
Cu      8.5913795054     3.5317148056    15.3749370092
Cu      9.8200810518     5.6602096961    15.3747142113
Cu     11.0493598196     7.7879057815    15.3769958299
Cu      9.8203013476     1.4035677305    15.3761120972
Cu     11.0487723714     3.5313483626    15.3758817614
Cu     12.2771076536     5.6597340274    15.3764593146
Cu     13.5056822862     7.7884369112    15.3770406069
Cu      1.2136158773     0.6833119049    17.5694642914
Cu      2.4380754065     2.8169646540    17.5449169183
Cu      3.6630260267     4.9459758521    17.5538789730
Cu      4.8969347828     7.0740358413    17.5660976928
Cu      3.6709522240     0.6800886267    17.5686329486
Cu      4.8968860210     2.8024974638    17.5386147701
Cu      6.1278433554     4.9506896382    17.5409852167
Cu      7.3557983399     7.0767812850    17.5626715547
Cu      6.1305363372     0.6784444316    17.5635393235
Cu      7.3627321967     2.8081140853    17.5514329079
Cu      8.5975251677     4.9466791658    17.5378927831
Cu      9.8178477290     7.0730109003    17.5656919332
Cu      8.5887224195     0.6820641771    17.5625380599
Cu      9.8196382702     2.8105564040    17.5675748095
Cu     11.0464178378     4.9420530448    17.5653557074
Cu     12.2738680757     7.0697975898    17.5711330221
O       5.9838940548     2.9990943782    21.0188441531
O       7.4741152873     4.2634817120    19.0502002478
O       6.0731379456     4.2914097978    23.6586665966
C       6.7435693285     4.1844121258    21.3635630695
C       7.9207227722     4.3530911620    20.4093646688
C       7.2074807970     4.0921743956    22.8103622249
H       6.0684885779     5.0530056899    21.2661839024
H       8.6752025572     3.5623927156    20.5862291863
H       8.4084121406     5.3250792284    20.5796226594
H       7.9820134008     4.8591569015    22.9999884905
H       7.6591129372     3.0956468055    22.9698707900
H       6.4361322087     2.5684651133    20.2661791803
H       4.4052600225     2.9388897081    20.3175592331
H       6.3348693537     4.1042072358    24.5750214236
O       3.5126352842     2.7581254566    19.8953333477
H       3.3006395602     1.8230389845    20.0794210916
80
Step 5 | NEB Image 5 | Cartesian Angstrom
Ni      1.2286497034     0.7093615225    11.2499999440
Ni      2.4572989609     2.8374461750    11.2499999440
Ni      3.6859482184     4.9655308275    11.2499999440
Ni      4.9145974759     7.0936154800    11.2499999440
Ni      3.6859497034     0.7093615225    11.2499999440
Ni      4.9145989609     2.8374461750    11.2499999440
Ni      6.1432482184     4.9655308275    11.2499999440
Ni      7.3718974759     7.0936154800    11.2499999440
Ni      6.1432497034     0.7093615225    11.2499999440
Ni      7.3718989609     2.8374461750    11.2499999440
Ni      8.6005482184     4.9655308275    11.2499999440
Ni      9.8291974759     7.0936154800    11.2499999440
Ni      8.6005497034     0.7093615225    11.2499999440
Ni      9.8291989609     2.8374461750    11.2499999440
Ni     11.0578482184     4.9655308275    11.2499999440
Ni     12.2864974759     7.0936154800    11.2499999440
Ni     14.7391156794     8.5053429999    13.3011712910
Ni     11.0531329642     2.1206495503    13.3008022026
Ni     12.2817169557     4.2489790177    13.3006008466
Ni     13.5101985270     6.3773433856    13.3009432678
Ni      7.3672569131     8.5047181091    13.3011774747
Ni      3.6813641840     2.1207833643    13.3007249066
Ni      4.9098915592     4.2493198517    13.3009123494
Ni      6.1382080000     6.3774560890    13.3011137055
Ni      9.8241033938     8.5046823573    13.3010831736
Ni      6.1383369699     2.1207818321    13.3007716707
Ni      7.3668809566     4.2490234521    13.3008056810
Ni      8.5953896076     6.3767159412    13.3009509974
Ni     12.2816608204     8.5051500252    13.3006066438
Ni      8.5958457422     2.1206092019    13.3010364095
Ni      9.8244550440     4.2487038138    13.3007276120
Ni     11.0528529688     6.3769410074    13.3006611374
Cu      2.4478274055     1.4024593708    15.3768195742
Cu      3.6763308468     3.5307009057    15.3768060474
Cu      4.9041378398     5.6597275336    15.3773448005
Cu      6.1330260451     7.7878910103    15.3784795057
Cu      4.9046987540     1.4026027186    15.3777977550
Cu      6.1325026510     3.5313493756    15.3777258697
Cu      7.3610720952     5.6598451741    15.3779276123
Cu      8.5906751295     7.7868954923    15.3785351588
Cu      7.3621786280     1.4037477983    15.3762151195
Cu      8.5904727564     3.5321453644    15.3780682910
Cu      9.8190628915     5.6596863338    15.3769316534
Cu     11.0489115080     7.7874997832    15.3777154348
Cu      9.8196453802     1.4041813317    15.3774700200
Cu     11.0479045662     3.5315147704    15.3771971651
Cu     12.2765483193     5.6595852924    15.3771299176
Cu     13.5054403579     7.7883030926    15.3772814178
Cu      1.2140125591     0.6836803076    17.5697065574
Cu      2.4431555374     2.8116125893    17.5665702724
Cu      3.6705110760     4.9384343512    17.5687388115
Cu      4.8988742539     7.0688538531    17.5715929661
Cu      3.6716454744     0.6829118137    17.5713989532
Cu      4.8981418913     2.8112417067    17.5722074693
Cu      6.1274353048     4.9410331682    17.5708265763
Cu      7.3554752500     7.0698228126    17.5713297733
Cu      6.1297077779     0.6833063606    17.5689100221
Cu      7.3567237656     2.8135682139    17.5698797004
Cu      8.5851063076     4.9421568820    17.5702368079
Cu      9.8152975701     7.0699596058    17.5700617325
Cu      8.5865082080     0.6855771971    17.5667967496
Cu      9.8144914881     2.8135456562    17.5749499312
Cu     11.0427692018     4.9416447797    17.5690866435
Cu     12.2728600100     7.0692517198    17.5719744219
O       5.4816243728     2.5651691502    20.6539118200
O       7.3508896973     4.2099530947    19.0383354809
O       4.4981563510     3.9587391709    22.9072956728
C       5.9290713561     3.8945947838    20.9960208007
C       7.3297021271     4.1881915565    20.4688911028
C       5.8721709119     4.0116672750    22.5089584937
H       5.2340507257     4.6323215466    20.5533350446
H       8.0432145389     3.4244560240    20.8191443760
H       7.6571223136     5.1738780612    20.8354754738
H       6.3359933253     4.9675285031    22.8148914030
H       6.4497260984     3.1808581747    22.9509168945
H       5.8597578631     2.3152772777    19.7784701378
H       3.6583776659     2.5435355524    20.3168147116
H       4.4610770249     3.8064239805    23.8648388416
O       2.7103082747     2.5416543255    20.0177020144
H       2.4292112216     1.6097423068    20.0822731560
