80
Step 1 | NEB Image 1 | Cartesian Angstrom
Ni      1.2286497034     0.7093615225    11.2499999440
Ni      2.4572989609     2.8374461750    11.2499999440
Ni      3.6859482184     4.9655308275    11.2499999440
Ni      4.9145974759     7.0936154800    11.2499999440
Ni      3.6859497034     0.7093615225    11.2499999440
Ni      4.9145989609     2.8374461750    11.2499999440
Ni      6.1432482184     4.9655308275    11.2499999440
Ni      7.3718974759     7.0936154800    11.2499999440
Ni      6.1432497034     0.7093615225    11.2499999440
Ni      7.3718989609     2.8374461750    11.2499999440
Ni      8.6005482184     4.9655308275    11.2499999440
Ni      9.8291974759     7.0936154800    11.2499999440
Ni      8.6005497034     0.7093615225    11.2499999440
Ni      9.8291989609     2.8374461750    11.2499999440
Ni     11.0578482184     4.9655308275    11.2499999440
Ni     12.2864974759     7.0936154800    11.2499999440
Ni     14.7391156794     8.5053429999    13.3011712910
Ni     11.0531329642     2.1206495503    13.3008022026
Ni     12.2817169557     4.2489790177    13.3006008466
Ni     13.5101985270     6.3773433856    13.3009432678
Ni      7.3672569131     8.5047181091    13.3011774747
Ni      3.6813641840     2.1207833643    13.3007249066
Ni      4.9098915592     4.2493198517    13.3009123494
Ni      6.1382080000     6.3774560890    13.3011137055
Ni      9.8241033938     8.5046823573    13.3010831736
Ni      6.1383369699     2.1207818321    13.3007716707
Ni      7.3668809566     4.2490234521    13.3008056810
Ni      8.5953896076     6.3767159412    13.3009509974
Ni     12.2816608204     8.5051500252    13.3006066438
Ni      8.5958457422     2.1206092019    13.3010364095
Ni      9.8244550440     4.2487038138    13.3007276120
Ni     11.0528529688     6.3769410074    13.3006611374
Cu      2.4478274055     1.4024593708    15.3768195742
Cu      3.6763308468     3.5307009057    15.3768060474
Cu      4.9041378398     5.6597275336    15.3773448005
Cu      6.1330260451     7.7878910103    15.3784795057
Cu      4.9046987540     1.4026027186    15.3777977550
Cu      6.1325026510     3.5313493756    15.3777258697
Cu      7.3610720952     5.6598451741    15.3779276123
Cu      8.5906751295     7.7868954923    15.3785351588
Cu      7.3621786280     1.4037477983    15.3762151195
Cu      8.5904727564     3.5321453644    15.3780682910
Cu      9.8190628915     5.6596863338    15.3769316534
Cu     11.0489115080     7.7874997832    15.3777154348
Cu      9.8196453802     1.4041813317    15.3774700200
Cu     11.0479045662     3.5315147704    15.3771971651
Cu     12.2765483193     5.6595852924    15.3771299176
Cu     13.5054403579     7.7883030926    15.3772814178
Cu      1.2140125591     0.6836803076    17.5697065574
Cu      2.4431555374     2.8116125893    17.5665702724
Cu      3.6705110760     4.9384343512    17.5687388115
Cu      4.8988742539     7.0688538531    17.5715929661
Cu      3.6716454744     0.6829118137    17.5713989532
Cu      4.8981418913     2.8112417067    17.5722074693
Cu      6.1274353048     4.9410331682    17.5708265763
Cu      7.3554752500     7.0698228126    17.5713297733
Cu      6.1297077779     0.6833063606    17.5689100221
Cu      7.3567237656     2.8135682139    17.5698797004
Cu      8.5851063076     4.9421568820    17.5702368079
Cu      9.8152975701     7.0699596058    17.5700617325
Cu      8.5865082080     0.6855771971    17.5667967496
Cu      9.8144914881     2.8135456562    17.5749499312
Cu     11.0427692018     4.9416447797    17.5690866435
Cu     12.2728600100     7.0692517198    17.5719744219
O       7.2288202015     4.2734569284    22.3446828621
O       8.3044696405     5.3171068409    20.0014702420
O       8.8891638945     4.8479579810    24.7349733808
C       8.5251333110     4.9000290628    22.3715153937
C       9.1804211035     4.7744357207    20.9993344800
C       9.4189460410     4.3898719266    23.4895992517
H       8.3072385962     5.9614198807    22.5605187870
H       9.4153356173     3.7172718747    20.7683620669
H      10.1139922737     5.3503076003    20.9408546493
H      10.4461642949     4.7683945991    23.3275539960
H       9.4595638267     3.2836247445    23.4537018323
H       7.3561498138     3.3073831923    22.3295378714
H       7.4071380143     4.9636379387    20.1831718691
H       9.4432595602     4.5017937719    25.4528614775
O       2.4447775074     1.3898406800    19.0162048647
H       2.5328987835     1.2730973609    19.9764139723
80
Step 2 | NEB Image 2 | Cartesian Angstrom
Ni      1.2286127449     0.7093355896    11.2499269878
Ni      2.4572443011     2.8374309511    11.2498518823
Ni      3.6858899431     4.9655520449    11.2497920833
Ni      4.9145561541     7.0936768484    11.2497921381
Ni      3.6859154920     0.7093131410    11.2498671807
Ni      4.9145636799     2.8374151024    11.2497658227
Ni      6.1432298453     4.9655510501    11.2497136493
Ni      7.3719035573     7.0936812785    11.2497555101
Ni      6.1432394919     0.7092948469    11.2498189002
Ni      7.3719107721     2.8374063835    11.2497292084
Ni      8.6005868891     4.9655467660    11.2497191374
Ni      9.8292461319     7.0936683506    11.2497938201
Ni      8.6005755355     0.7092932902    11.2498142906
Ni      9.8292548207     2.8374115749    11.2497698166
Ni     11.0579177690     4.9655416756    11.2497984667
Ni     12.2865568626     7.0936488642    11.2498684287
Ni     14.7391886203     8.5053853433    13.3010810349
Ni     11.0533066381     2.1205388906    13.3003975413
Ni     12.2819033031     4.2489704359    13.3002638459
Ni     13.5103302519     6.3773865700    13.3007489956
Ni      7.3672642238     8.5049435024    13.3007379629
Ni      3.6812531901     2.1206782221    13.3002682552
Ni      4.9097640918     4.2493365358    13.3001832668
Ni      6.1381432202     6.3776493075    13.3004042494
Ni      9.8241999498     8.5048550367    13.3007287991
Ni      6.1383097330     2.1206085659    13.3001355444
Ni      7.3669276975     4.2490111411    13.2999462522
Ni      8.5954967934     6.3768820236    13.3002699574
Ni     12.2817679799     8.5052448552    13.3004062567
Ni      8.5959574523     2.1204363719    13.3004210568
Ni      9.8246473087     4.2486862980    13.3000765106
Ni     11.0530284615     6.3770377544    13.3002368390
Cu      2.4475406904     1.4021044423    15.3758399258
Cu      3.6758369424     3.5307959681    15.3746856492
Cu      4.9033555963     5.6604764687    15.3748228024
Cu      6.1327788872     7.7887594223    15.3770449115
Cu      4.9045505887     1.4019081463    15.3763509730
Cu      6.1323460933     3.5308858031    15.3744569288
Cu      7.3612241558     5.6605867398    15.3746838649
Cu      8.5909093761     7.7876563607    15.3771448537
Cu      7.3623411543     1.4028578786    15.3745012044
Cu      8.5910855993     3.5316571381    15.3752822973
Cu      9.8198255592     5.6600860728    15.3748565384
Cu     11.0492896634     7.7878804947    15.3769647560
Cu      9.8201059094     1.4035823841    15.3762549148
Cu     11.0486018843     3.5313088617    15.3759083780
Cu     12.2770459015     5.6597123225    15.3764116248
Cu     13.5056675221     7.7884354952    15.3770131076
Cu      1.2129449599     0.6827203193    17.5686691680
Cu      2.4403372747     2.8224682231    17.5457577946
Cu      3.6647356746     4.9417439421    17.5607834905
Cu      4.8962211686     7.0731827188    17.5668017290
Cu      3.6726580648     0.6801347038    17.5682724295
Cu      4.8947392909     2.8053673002    17.5559349057
Cu      6.1235249727     4.9490573887    17.5352251285
Cu      7.3550007555     7.0760737992    17.5629898116
Cu      6.1296658078     0.6800481761    17.5657830548
Cu      7.3605163859     2.8060619649    17.5532075373
Cu      8.5920484322     4.9435815498    17.5435048684
Cu      9.8173034151     7.0729591886    17.5651482376
Cu      8.5876528201     0.6825759429    17.5634959300
Cu      9.8181962181     2.8104125024    17.5677795062
Cu     11.0461020545     4.9418472673    17.5645135532
Cu     12.2738770841     7.0698532415    17.5708862895
O       6.4947076392     3.7369407900    21.7562963545
O       7.7228706791     4.9168638854    19.7025515451
O       7.4775978359     4.5628308983    24.4233094956
C       7.6326876271     4.5814447769    22.0437076622
C       8.5474155073     4.5845604383    20.8302478923
C       8.3465188204     4.2336104542    23.3236993595
H       7.1886286212     5.5906202778    22.1432281743
H       9.0286178130     3.6024773903    20.6706041751
H       9.3359500319     5.3527976156    20.8818168319
H       9.2834487594     4.8118511594    23.3728655294
H       8.6057835043     3.1592297477    23.3255513141
H       6.8118690804     2.8220990944    21.6475918986
H       6.8728080524     4.4384415366    19.8443419899
H       7.8818525135     4.2724824184    25.2353708505
O       2.4581627180     1.4219092623    19.0044367457
H       2.4975484202     1.3610454513    19.9648304371
80
Step 3 | NEB Image 3 | Cartesian Angstrom
Ni      1.2286018628     0.7093260975    11.2499020782
Ni      2.4572295981     2.8374257849    11.2497960515
Ni      3.6858814117     4.9655635319    11.2497181223
Ni      4.9145565204     7.0936999605    11.2497305141
Ni      3.6859086971     0.7092967746    11.2498195487
Ni      4.9145642947     2.8374087901    11.2496852878
Ni      6.1432408056     4.9655636272    11.2496312550
Ni      7.3719179746     7.0937027031    11.2496965120
Ni      6.1432463217     0.7092766381    11.2497604706
Ni      7.3719290892     2.8374012251    11.2496535142
Ni      8.6006103456     4.9655563622    11.2496534821
Ni      9.8292668468     7.0936835345    11.2497524693
Ni      8.6005929786     0.7092786561    11.2497648417
Ni      9.8292800126     2.8374080589    11.2497172708
Ni     11.0579423670     4.9655476549    11.2497593031
Ni     12.2865745754     7.0936573136    11.2498466929
Ni     14.7392039293     8.5053925543    13.3010721460
Ni     11.0533691551     2.1205257109    13.3003164506
Ni     12.2819569416     4.2489767683    13.3002115138
Ni     13.5103615353     6.3773969644    13.3007261835
Ni      7.3672933026     8.5050057851    13.3006404608
Ni      3.6812188023     2.1206319764    13.3000737389
Ni      4.9097753570     4.2493688150    13.2999122375
Ni      6.1381756061     6.3777227938    13.3002148478
Ni      9.8242397794     8.5048958189    13.3006666736
Ni      6.1383490625     2.1205683117    13.2999091983
Ni      7.3669943990     4.2490356488    13.2997217230
Ni      8.5955572083     6.3769355902    13.3001239244
Ni     12.2817971655     8.5052634156    13.3003803498
Ni      8.5960273724     2.1204093666    13.3002618292
Ni      9.8247269039     4.2486974843    13.2999394893
Ni     11.0530864228     6.3770651014    13.3001663211
Cu      2.4473703305     1.4019024825    15.3756438712
Cu      3.6755516419     3.5308309727    15.3734430328
Cu      4.9034530892     5.6608693638    15.3739672088
Cu      6.1328443630     7.7890115228    15.3767087301
Cu      4.9045285715     1.4014890509    15.3755285210
Cu      6.1327148932     3.5310081512    15.3733252715
Cu      7.3614039538     5.6608551712    15.3739967578
Cu      8.5910515397     7.7878492207    15.3768923077
Cu      7.3625765896     1.4026638960    15.3739401430
Cu      8.5914012854     3.5316227330    15.3746240839
Cu      9.8201432124     5.6602403096    15.3744392288
Cu     11.0494016613     7.7879537197    15.3768841218
Cu      9.8203180622     1.4034882039    15.3759746787
Cu     11.0488334129     3.5313104431    15.3757080718
Cu     12.2771650753     5.6597465618    15.3763527499
Cu     13.5057104493     7.7884538820    15.3770003160
Cu      1.2136671711     0.6832927262    17.5696270678
Cu      2.4378949255     2.8194929017    17.5406017201
Cu      3.6607335591     4.9461788106    17.5520944794
Cu      4.8964984607     7.0748361290    17.5653501328
Cu      3.6710229761     0.6799488345    17.5687612065
Cu      4.8937941388     2.7994834532    17.5360698831
Cu      6.1291748966     4.9528745573    17.5344003782
Cu      7.3555294063     7.0775229974    17.5615429052
Cu      6.1302796337     0.6781796795    17.5636345227
Cu      7.3632062989     2.8069388049    17.5500910992
Cu      8.5971622085     4.9458837297    17.5342630752
Cu      9.8180735450     7.0734510478    17.5648394681
Cu      8.5885766813     0.6817804705    17.5622644229
Cu      9.8198129068     2.8100750936    17.5665320399
Cu     11.0468624762     4.9420491209    17.5645682331
Cu     12.2740139907     7.0698856252    17.5709500607
O       6.0670913837     3.4655911581    21.0282411591
O       7.6056841340     4.5280768892    19.2597372757
O       6.4747912634     4.3654145463    23.8583507227
C       7.1287352880     4.4736054499    21.5534888642
C       8.2352576687     4.4771211158    20.5097807458
C       7.5537978497     4.1305183097    22.9612125546
H       6.5457634973     5.3911300959    21.5312616432
H       8.8667074582     3.5698483476    20.6116474992
H       8.8934279558     5.3492612506    20.7010981821
H       8.4079390755     4.8088819595    23.1668766848
H       7.9378150224     3.0988448633    23.0250165453
H       6.5123500374     2.5685074536    20.8420152274
H       5.8822583736     3.7781957068    20.0636833129
H       6.7897744005     4.1901957358    24.7753631388
O       3.0340578993     1.7983869217    19.1935164183
H       2.3338259106     1.3442487556    19.7194167594
80
Step 4 | NEB Image 4 | Cartesian Angstrom
Ni      1.2286124797     0.7093340491    11.2499167717
Ni      2.4572462625     2.8374325498    11.2498317352
Ni      3.6858994117     4.9655606460    11.2497709612
Ni      4.9145692725     7.0936862374    11.2497817800
Ni      3.6859194809     0.7093105102    11.2498466645
Ni      4.9145762152     2.8374202009    11.2497394252
Ni      6.1432484254     4.9655620594    11.2496989459
Ni      7.3719196105     7.0936895398    11.2497535359
Ni      6.1432523061     0.7092939210    11.2497961799
Ni      7.3719308285     2.8374139562    11.2497116437
Ni      8.6006059632     4.9655561368    11.2497155654
Ni      9.8292593552     7.0936737762    11.2497993611
Ni      8.6005921701     0.7092949813    11.2498010024
Ni      9.8292730983     2.8374182413    11.2497654866
Ni     11.0579313110     4.9655476174    11.2498039267
Ni     12.2865639122     7.0936512411    11.2498771676
Ni     14.7391889435     8.5053836173    13.3010945187
Ni     11.0533460959     2.1205546753    13.3004027083
Ni     12.2819246918     4.2489831898    13.3002900713
Ni     13.5103356736     6.3773892227    13.3007739678
Ni      7.3672990272     8.5049566429    13.3007436054
Ni      3.6812564280     2.1206706713    13.3001779421
Ni      4.9098201498     4.2493772872    13.3001018774
Ni      6.1381988221     6.3776807151    13.3003914930
Ni      9.8242250923     8.5048596155    13.3007510535
Ni      6.1383682452     2.1206234902    13.3000441998
Ni      7.3669948003     4.2490521191    13.2999164012
Ni      8.5955447576     6.3769062674    13.3002800247
Ni     12.2817766111     8.5052432527    13.3004296567
Ni      8.5960214593     2.1204554772    13.3003826658
Ni      9.8247017347     4.2487112185    13.3000807504
Ni     11.0530566364     6.3770485289    13.3002663013
Cu      2.4474508954     1.4020248982    15.3758256526
Cu      3.6757561305     3.5308706841    15.3740291529
Cu      4.9037244847     5.6606603314    15.3747416213
Cu      6.1329272041     7.7888029213    15.3770595286
Cu      4.9046244908     1.4017100205    15.3757886628
Cu      6.1327953093     3.5312383765    15.3741919229
Cu      7.3613858402     5.6607195062    15.3747774623
Cu      8.5910351739     7.7876895398    15.3772298414
Cu      7.3626165713     1.4028833730    15.3742201758
Cu      8.5913675951     3.5317884288    15.3751775413
Cu      9.8200366174     5.6601877732    15.3749284622
Cu     11.0493280872     7.7878684393    15.3770844579
Cu      9.8202916682     1.4036301678    15.3762178826
Cu     11.0487272977     3.5313789657    15.3760182233
Cu     12.2770634873     5.6597245337    15.3765441848
Cu     13.5056603465     7.7884235567    15.3770728649
Cu      1.2135874470     0.6833376157    17.5693501907
Cu      2.4381772091     2.8148728394    17.5483040075
Cu      3.6648028244     4.9458915942    17.5551622846
Cu      4.8972915577     7.0734201590    17.5666744728
Cu      3.6708659057     0.6801980152    17.5685382827
Cu      4.8993621186     2.8048223638    17.5403111302
Cu      6.1268708605     4.9489962472    17.5462798769
Cu      7.3560246473     7.0762091770    17.5635556951
Cu      6.1307543081     0.6786244555    17.5634241019
Cu      7.3623980759     2.8090774226    17.5524590341
Cu      8.5979093685     4.9473617462    17.5406540149
Cu      9.8176794375     7.0726648097    17.5663737573
Cu      8.5888564680     0.6822786928    17.5627366507
Cu      9.8195263996     2.8109384496    17.5683932743
Cu     11.0460729337     4.9420598220    17.5659916350
Cu     12.2737528738     7.0697271857    17.5712816874
O       5.7724978284     3.0214798095    20.8233867962
O       7.4916898814     4.2839817147    19.0837343069
O       5.7404350176     4.2289289883    23.5701988501
C       6.5603029951     4.2069743132    21.3032185629
C       7.8290477677     4.3158307956    20.4561466310
C       6.9136508970     4.0701405433    22.7762441320
H       5.9222393879     5.0882398515    21.1430111298
H       8.5245474506     3.4845128258    20.6916538869
H       8.3568883143     5.2518002496    20.7156277114
H       7.6574301557     4.8606655886    23.0088985805
H       7.4049907192     3.0975098471    22.9573420570
H       6.3059366215     2.5785295725    20.1203117618
H       4.6492955723     2.9339672256    20.2790700879
H       5.9740197589     4.0637173962    24.5033440639
O       3.6912691712     2.5757411504    19.5987474501
H       3.0219811376     1.8927510384    19.8725723048
80
Step 5 | NEB Image 5 | Cartesian Angstrom
Ni      1.2286497034     0.7093615225    11.2499999440
Ni      2.4572989609     2.8374461750    11.2499999440
Ni      3.6859482184     4.9655308275    11.2499999440
Ni      4.9145974759     7.0936154800    11.2499999440
Ni      3.6859497034     0.7093615225    11.2499999440
Ni      4.9145989609     2.8374461750    11.2499999440
Ni      6.1432482184     4.9655308275    11.2499999440
Ni      7.3718974759     7.0936154800    11.2499999440
Ni      6.1432497034     0.7093615225    11.2499999440
Ni      7.3718989609     2.8374461750    11.2499999440
Ni      8.6005482184     4.9655308275    11.2499999440
Ni      9.8291974759     7.0936154800    11.2499999440
Ni      8.6005497034     0.7093615225    11.2499999440
Ni      9.8291989609     2.8374461750    11.2499999440
Ni     11.0578482184     4.9655308275    11.2499999440
Ni     12.2864974759     7.0936154800    11.2499999440
Ni     14.7391156794     8.5053429999    13.3011712910
Ni     11.0531329642     2.1206495503    13.3008022026
Ni     12.2817169557     4.2489790177    13.3006008466
Ni     13.5101985270     6.3773433856    13.3009432678
Ni      7.3672569131     8.5047181091    13.3011774747
Ni      3.6813641840     2.1207833643    13.3007249066
Ni      4.9098915592     4.2493198517    13.3009123494
Ni      6.1382080000     6.3774560890    13.3011137055
Ni      9.8241033938     8.5046823573    13.3010831736
Ni      6.1383369699     2.1207818321    13.3007716707
Ni      7.3668809566     4.2490234521    13.3008056810
Ni      8.5953896076     6.3767159412    13.3009509974
Ni     12.2816608204     8.5051500252    13.3006066438
Ni      8.5958457422     2.1206092019    13.3010364095
Ni      9.8244550440     4.2487038138    13.3007276120
Ni     11.0528529688     6.3769410074    13.3006611374
Cu      2.4478274055     1.4024593708    15.3768195742
Cu      3.6763308468     3.5307009057    15.3768060474
Cu      4.9041378398     5.6597275336    15.3773448005
Cu      6.1330260451     7.7878910103    15.3784795057
Cu      4.9046987540     1.4026027186    15.3777977550
Cu      6.1325026510     3.5313493756    15.3777258697
Cu      7.3610720952     5.6598451741    15.3779276123
Cu      8.5906751295     7.7868954923    15.3785351588
Cu      7.3621786280     1.4037477983    15.3762151195
Cu      8.5904727564     3.5321453644    15.3780682910
Cu      9.8190628915     5.6596863338    15.3769316534
Cu     11.0489115080     7.7874997832    15.3777154348
Cu      9.8196453802     1.4041813317    15.3774700200
Cu     11.0479045662     3.5315147704    15.3771971651
Cu     12.2765483193     5.6595852924    15.3771299176
Cu     13.5054403579     7.7883030926    15.3772814178
Cu      1.2140125591     0.6836803076    17.5697065574
Cu      2.4431555374     2.8116125893    17.5665702724
Cu      3.6705110760     4.9384343512    17.5687388115
Cu      4.8988742539     7.0688538531    17.5715929661
Cu      3.6716454744     0.6829118137    17.5713989532
Cu      4.8981418913     2.8112417067    17.5722074693
Cu      6.1274353048     4.9410331682    17.5708265763
Cu      7.3554752500     7.0698228126    17.5713297733
Cu      6.1297077779     0.6833063606    17.5689100221
Cu      7.3567237656     2.8135682139    17.5698797004
Cu      8.5851063076     4.9421568820    17.5702368079
Cu      9.8152975701     7.0699596058    17.5700617325
Cu      8.5865082080     0.6855771971    17.5667967496
Cu      9.8144914881     2.8135456562    17.5749499312
Cu     11.0427692018     4.9416447797    17.5690866435
Cu     12.2728600100     7.0692517198    17.5719744219
O       5.4816243728     2.5651691502    20.6539118200
O       7.3508896973     4.2099530947    19.0383354809
O       4.4981563510     3.9587391709    22.9072956728
C       5.9290713561     3.8945947838    20.9960208007
C       7.3297021271     4.1881915565    20.4688911028
C       5.8721709119     4.0116672750    22.5089584937
H       5.2340507257     4.6323215466    20.5533350446
H       8.0432145389     3.4244560240    20.8191443760
H       7.6571223136     5.1738780612    20.8354754738
H       6.3359933253     4.9675285031    22.8148914030
H       6.4497260984     3.1808581747    22.9509168945
H       5.8597578631     2.3152772777    19.7784701378
H       3.6583776659     2.5435355524    20.3168147116
H       4.4610770249     3.8064239805    23.8648388416
O       2.7103082747     2.5416543255    20.0177020144
H       2.4292112216     1.6097423068    20.0822731560
