80
Step 1 | NEB Image 1 | Cartesian Angstrom
Ni      1.2286497034     0.7093615225    11.2499999440
Ni      2.4572989609     2.8374461750    11.2499999440
Ni      3.6859482184     4.9655308275    11.2499999440
Ni      4.9145974759     7.0936154800    11.2499999440
Ni      3.6859497034     0.7093615225    11.2499999440
Ni      4.9145989609     2.8374461750    11.2499999440
Ni      6.1432482184     4.9655308275    11.2499999440
Ni      7.3718974759     7.0936154800    11.2499999440
Ni      6.1432497034     0.7093615225    11.2499999440
Ni      7.3718989609     2.8374461750    11.2499999440
Ni      8.6005482184     4.9655308275    11.2499999440
Ni      9.8291974759     7.0936154800    11.2499999440
Ni      8.6005497034     0.7093615225    11.2499999440
Ni      9.8291989609     2.8374461750    11.2499999440
Ni     11.0578482184     4.9655308275    11.2499999440
Ni     12.2864974759     7.0936154800    11.2499999440
Ni     14.7391156794     8.5053429999    13.3011712910
Ni     11.0531329642     2.1206495503    13.3008022026
Ni     12.2817169557     4.2489790177    13.3006008466
Ni     13.5101985270     6.3773433856    13.3009432678
Ni      7.3672569131     8.5047181091    13.3011774747
Ni      3.6813641840     2.1207833643    13.3007249066
Ni      4.9098915592     4.2493198517    13.3009123494
Ni      6.1382080000     6.3774560890    13.3011137055
Ni      9.8241033938     8.5046823573    13.3010831736
Ni      6.1383369699     2.1207818321    13.3007716707
Ni      7.3668809566     4.2490234521    13.3008056810
Ni      8.5953896076     6.3767159412    13.3009509974
Ni     12.2816608204     8.5051500252    13.3006066438
Ni      8.5958457422     2.1206092019    13.3010364095
Ni      9.8244550440     4.2487038138    13.3007276120
Ni     11.0528529688     6.3769410074    13.3006611374
Cu      2.4478274055     1.4024593708    15.3768195742
Cu      3.6763308468     3.5307009057    15.3768060474
Cu      4.9041378398     5.6597275336    15.3773448005
Cu      6.1330260451     7.7878910103    15.3784795057
Cu      4.9046987540     1.4026027186    15.3777977550
Cu      6.1325026510     3.5313493756    15.3777258697
Cu      7.3610720952     5.6598451741    15.3779276123
Cu      8.5906751295     7.7868954923    15.3785351588
Cu      7.3621786280     1.4037477983    15.3762151195
Cu      8.5904727564     3.5321453644    15.3780682910
Cu      9.8190628915     5.6596863338    15.3769316534
Cu     11.0489115080     7.7874997832    15.3777154348
Cu      9.8196453802     1.4041813317    15.3774700200
Cu     11.0479045662     3.5315147704    15.3771971651
Cu     12.2765483193     5.6595852924    15.3771299176
Cu     13.5054403579     7.7883030926    15.3772814178
Cu      1.2140125591     0.6836803076    17.5697065574
Cu      2.4431555374     2.8116125893    17.5665702724
Cu      3.6705110760     4.9384343512    17.5687388115
Cu      4.8988742539     7.0688538531    17.5715929661
Cu      3.6716454744     0.6829118137    17.5713989532
Cu      4.8981418913     2.8112417067    17.5722074693
Cu      6.1274353048     4.9410331682    17.5708265763
Cu      7.3554752500     7.0698228126    17.5713297733
Cu      6.1297077779     0.6833063606    17.5689100221
Cu      7.3567237656     2.8135682139    17.5698797004
Cu      8.5851063076     4.9421568820    17.5702368079
Cu      9.8152975701     7.0699596058    17.5700617325
Cu      8.5865082080     0.6855771971    17.5667967496
Cu      9.8144914881     2.8135456562    17.5749499312
Cu     11.0427692018     4.9416447797    17.5690866435
Cu     12.2728600100     7.0692517198    17.5719744219
O       7.2288202015     4.2734569284    22.3446828621
O       8.3044696405     5.3171068409    20.0014702420
O       8.8891638945     4.8479579810    24.7349733808
C       8.5251333110     4.9000290628    22.3715153937
C       9.1804211035     4.7744357207    20.9993344800
C       9.4189460410     4.3898719266    23.4895992517
H       8.3072385962     5.9614198807    22.5605187870
H       9.4153356173     3.7172718747    20.7683620669
H      10.1139922737     5.3503076003    20.9408546493
H      10.4461642949     4.7683945991    23.3275539960
H       9.4595638267     3.2836247445    23.4537018323
H       7.3561498138     3.3073831923    22.3295378714
H       7.4071380143     4.9636379387    20.1831718691
H       9.4432595602     4.5017937719    25.4528614775
O       2.4447775074     1.3898406800    19.0162048647
H       2.5328987835     1.2730973609    19.9764139723
80
Step 2 | NEB Image 2 | Cartesian Angstrom
Ni      1.2286113637     0.7093343826    11.2499238098
Ni      2.4572424390     2.8374302984    11.2498447640
Ni      3.6858888770     4.9655535172    11.2497826630
Ni      4.9145562232     7.0936797969    11.2497843017
Ni      3.6859146368     0.7093110600    11.2498611020
Ni      4.9145637795     2.8374143103    11.2497555593
Ni      6.1432312679     4.9655526648    11.2497031702
Ni      7.3719054142     7.0936840110    11.2497480213
Ni      6.1432403806     0.7092925351    11.2498114478
Ni      7.3719131307     2.8374057420    11.2497195744
Ni      8.6005898980     4.9655479997    11.2497108012
Ni      9.8292487829     7.0936702864    11.2497885833
Ni      8.6005777773     0.7092914364    11.2498079938
Ni      9.8292580485     2.8374111403    11.2497631424
Ni     11.0579209132     4.9655424445    11.2497935072
Ni     12.2865591220     7.0936499403    11.2498656860
Ni     14.7391905632     8.5053862552    13.3010799304
Ni     11.0533146380     2.1205372457    13.3003872618
Ni     12.2819101454     4.2489712613    13.3002572515
Ni     13.5103342303     6.3773878934    13.3007461444
Ni      7.3672679732     8.5049514272    13.3007256020
Ni      3.6812488327     2.1206723417    13.3002434202
Ni      4.9097656178     4.2493407015    13.3001487396
Ni      6.1381474251     6.3776586852    13.3003801971
Ni      9.8242050465     8.5048602188    13.3007209553
Ni      6.1383148239     2.1206034844    13.3001066692
Ni      7.3669362760     4.2490143212    13.2999177135
Ni      8.5955045412     6.3768888617    13.3002514468
Ni     12.2817716977     8.5052472073    13.3004030101
Ni      8.5959664338     2.1204329786    13.3004007886
Ni      9.8246575012     4.2486877602    13.3000591333
Ni     11.0530358640     6.3770412426    13.3002279428
Cu      2.4475189211     1.4020786814    15.3758150267
Cu      3.6758006055     3.5308005381    15.3745268599
Cu      4.9033686019     5.6605266344    15.3747141088
Cu      6.1327874502     7.7887914826    15.3770022836
Cu      4.9045479227     1.4018546319    15.3762456545
Cu      6.1323936595     3.5309019341    15.3743128926
Cu      7.3612472465     5.6606210261    15.3745968495
Cu      8.5909276301     7.7876808870    15.3771129585
Cu      7.3623715002     1.4028333110    15.3744295350
Cu      8.5911261383     3.5316529994    15.3751986057
Cu      9.8198662255     5.6601058170    15.3748037162
Cu     11.0493039394     7.7878897643    15.3769547319
Cu      9.8201331467     1.4035705173    15.3762192959
Cu     11.0486314758     3.5313091832    15.3758831535
Cu     12.2770610520     5.6597166877    15.3764043837
Cu     13.5056729561     7.7884378074    15.3770115877
Cu      1.2130376986     0.6827940081    17.5687918762
Cu      2.4400236761     2.8220776300    17.5451080079
Cu      3.6642280213     4.9423137696    17.5596713767
Cu      4.8962581961     7.0733929050    17.5666173380
Cu      3.6724475220     0.6801112308    17.5683349017
Cu      4.8946273469     2.8046198464    17.5533875836
Cu      6.1242475779     4.9495415872    17.5351395527
Cu      7.3550695939     7.0762578999    17.5628072110
Cu      6.1297455643     0.6798086550    17.5655063913
Cu      7.3608609142     2.8061784145    17.5528108479
Cu      8.5927073509     4.9438801584    17.5423273979
Cu      9.8174017739     7.0730210856    17.5651111759
Cu      8.5877721109     0.6824745045    17.5633383729
Cu      9.8184036297     2.8103706006    17.5676222922
Cu     11.0461984829     4.9418732441    17.5645230398
Cu     12.2738942400     7.0698571328    17.5708950624
O       6.4933488557     3.7238480664    21.8745319487
O       7.8502772931     5.1132265112    19.9213557149
O       7.4201954961     4.3051502864    24.6025170672
C       7.6164723808     4.5440151862    22.2421231080
C       8.5792154920     4.6445461667    21.0621096224
C       8.3070556721     4.0834117554    23.5171797454
H       7.1803375476     5.5358963648    22.4257588121
H       9.0434219202     3.6652112116    20.8424429305
H       9.3786741955     5.3729386152    21.2430185606
H       9.2456329555     4.6589864846    23.6321424768
H       8.5809334426     3.0129733375    23.4201830022
H       6.7943381946     2.8044920703    21.7904166861
H       6.9995091823     4.6170103249    19.9154482944
H       7.8802294765     4.0464329214    25.4371234273
O       2.4502213573     1.4170914640    18.9956641668
H       2.5308709880     1.4066066990    19.9606462462
80
Step 3 | NEB Image 3 | Cartesian Angstrom
Ni      1.2285991630     0.7093236950    11.2498955493
Ni      2.4572260345     2.8374245657    11.2497815177
Ni      3.6858796462     4.9655666839    11.2496990710
Ni      4.9145570872     7.0937060150    11.2497149035
Ni      3.6859071620     0.7092926330    11.2498070285
Ni      4.9145649017     2.8374074147    11.2496644199
Ni      6.1432441896     4.9655671361    11.2496103519
Ni      7.3719221215     7.0937082996    11.2496818549
Ni      6.1432484752     0.7092721030    11.2497452010
Ni      7.3719343456     2.8374002247    11.2496341636
Ni      8.6006168369     4.9655590747    11.2496371212
Ni      9.8292724479     7.0936874852    11.2497424477
Ni      8.6005978947     0.7092750997    11.2497521347
Ni      9.8292869039     2.8374074317    11.2497041233
Ni     11.0579489397     4.9655493488    11.2497498194
Ni     12.2865792102     7.0936594887    11.2498416366
Ni     14.7392077257     8.5053942744    13.3010704379
Ni     11.0533860428     2.1205230256    13.3002965910
Ni     12.2819709784     4.2489787967    13.3001995283
Ni     13.5103694660     6.3773996304    13.3007214503
Ni      7.3673017547     8.5050216596    13.3006165613
Ni      3.6812104185     2.1206202695    13.3000223725
Ni      4.9097801768     4.2493782742    13.2998422796
Ni      6.1381856309     6.3777421010    13.3001675612
Ni      9.8242505387     8.5049060673    13.3006521229
Ni      6.1383609095     2.1205589018    13.2998499256
Ni      7.3670133247     4.2490431951    13.2996651316
Ni      8.5955738851     6.3769497129    13.3000881878
Ni     12.2818046940     8.5052679459    13.3003747946
Ni      8.5960469813     2.1204033839    13.3002210716
Ni      9.8247485569     4.2487011543    13.2999057690
Ni     11.0531017746     6.3770722532    13.3001499572
Cu      2.4473249549     1.4018496669    15.3755948847
Cu      3.6754781769     3.5308423386    15.3731120045
Cu      4.9034905818     5.6609731688    15.3737527434
Cu      6.1328659337     7.7890754257    15.3766261504
Cu      4.9045258110     1.4013782509    15.3753047841
Cu      6.1328223736     3.5310511961    15.3730358853
Cu      7.3614542723     5.6609263517    15.3738302897
Cu      8.5910912516     7.7878981036    15.3768329586
Cu      7.3626447911     1.4026168653    15.3737912370
Cu      8.5914895651     3.5316189932    15.3744575588
Cu      9.8202294034     5.6602821315    15.3743386730
Cu     11.0494307440     7.7879713847    15.3768685327
Cu      9.8203772533     1.4034666553    15.3759040550
Cu     11.0488952035     3.5313133788    15.3756625397
Cu     12.2771951756     5.6597554696    15.3763430068
Cu     13.5057208012     7.7884579942    15.3769993229
Cu      1.2138690371     0.6834566433    17.5698885992
Cu      2.4372127222     2.8184816385    17.5394194693
Cu      3.6597465996     4.9474257500    17.5497423479
Cu      4.8966058670     7.0752535016    17.5649866520
Cu      3.6705536973     0.6799051824    17.5688916916
Cu      4.8937282861     2.7980090763    17.5305917462
Cu      6.1306931165     4.9538160126    17.5345977666
Cu      7.3556972653     7.0778861802    17.5612057445
Cu      6.1304708948     0.6776660722    17.5630177370
Cu      7.3639395996     2.8072650356    17.5492934876
Cu      8.5986391778     4.9465900904    17.5318748482
Cu      9.8182775848     7.0735619587    17.5648076204
Cu      8.5888487687     0.6815730249    17.5619324100
Cu      9.8202608672     2.8100107715    17.5662459226
Cu     11.0470494094     4.9421067385    17.5646354046
Cu     12.2740433278     7.0698890553    17.5709801789
O       5.7990429785     3.3619129267    21.5825010253
O       7.3333733655     4.2180916685    19.6881992965
O       6.2677066192     4.2265110336    24.3355408734
C       6.8085027121     4.3017326804    22.0138702475
C       7.9397926273     4.3363299088    20.9792534566
C       7.3294837270     4.0129520592    23.4015398652
H       6.2815288880     5.2667875431    22.0089298421
H       8.6590392648     3.5106121895    21.1288390717
H       8.4895580330     5.2877715599    21.0082048534
H       8.1872143129     4.6802668303    23.6024219571
H       7.7009409527     2.9717974330    23.4374869525
H       6.1333056557     2.4536145034    21.6997975947
H       6.4735011225     3.7472028591    19.8490832703
H       6.5859481540     4.0055226331    25.2215343122
O       3.3604334003     1.9376144412    19.1085523701
H       2.7260171256     1.6197333437    19.7774224132
80
Step 4 | NEB Image 4 | Cartesian Angstrom
Ni      1.2286050182     0.7093284195    11.2499061423
Ni      2.4572346240     2.8374278498    11.2498060647
Ni      3.6858870664     4.9655629365    11.2497332173
Ni      4.9145607236     7.0936961601    11.2497454714
Ni      3.6859120330     0.7093007865    11.2498269976
Ni      4.9145682322     2.8374123470    11.2497006075
Ni      6.1432436475     4.9655634986    11.2496509729
Ni      7.3719189557     7.0936990349    11.2497134429
Ni      6.1432484989     0.7092817595    11.2497704123
Ni      7.3719302243     2.8374052515    11.2496702951
Ni      8.6006096263     4.9655565832    11.2496718714
Ni      9.8292650212     7.0936807936    11.2497666122
Ni      8.6005932493     0.7092835726    11.2497752080
Ni      9.8292785144     2.8374112980    11.2497315047
Ni     11.0579394891     4.9655478265    11.2497727677
Ni     12.2865716148     7.0936555772    11.2498560423
Ni     14.7391994739     8.5053898383    13.3010792271
Ni     11.0533634975     2.1205348270    13.3003423120
Ni     12.2819479898     4.2489790739    13.3002357283
Ni     13.5103539960     6.3773947392    13.3007411899
Ni      7.3672960787     8.5049915462    13.3006713687
Ni      3.6812301133     2.1206432742    13.3001020113
Ni      4.9097904280     4.2493725927    13.2999662422
Ni      6.1381842338     6.3777112213    13.3002670911
Ni      9.8242361762     8.5048851721    13.3006925010
Ni      6.1383565778     2.1205852123    13.2999466161
Ni      7.3669965822     4.2490418167    13.2997788139
Ni      8.5955549734     6.3769275984    13.3001707477
Ni     12.2817913063     8.5052573583    13.3003957616
Ni      8.5960275788     2.1204236939    13.3002966547
Ni      9.8247210779     4.2487023431    13.2999817117
Ni     11.0530784137     6.3770604946    13.3001970185
Cu      2.4473915753     1.4019365130    15.3756975982
Cu      3.6756100889     3.5308451033    15.3735974920
Cu      4.9035453021     5.6608127320    15.3741954665
Cu      6.1328736085     7.7889507028    15.3768137082
Cu      4.9045594256     1.4015488011    15.3755887439
Cu      6.1327526695     3.5310875947    15.3735753609
Cu      7.3614035286     5.6608188295    15.3742322652
Cu      8.5910505317     7.7878026604    15.3769954973
Cu      7.3625969729     1.4027300783    15.3740149430
Cu      8.5913999186     3.5316761434    15.3747857779
Cu      9.8201179405     5.6602277827    15.3745872192
Cu     11.0493809198     7.7879279377    15.3769474978
Cu      9.8203159101     1.4035319748    15.3760460082
Cu     11.0488056502     3.5313330169    15.3758038667
Cu     12.2771353456     5.6597403735    15.3764138690
Cu     13.5056952993     7.7884444787    15.3770237714
Cu      1.2136631735     0.6833250855    17.5695655090
Cu      2.4379126111     2.8178826695    17.5429750986
Cu      3.6619481566     4.9462207784    17.5528357374
Cu      4.8967676996     7.0744215096    17.5657408373
Cu      3.6709210600     0.6800250307    17.5687029568
Cu      4.8955954116     2.8010575479    17.5368531916
Cu      6.1285912497     4.9517170441    17.5382801128
Cu      7.3557084621     7.0771356772    17.5621600652
Cu      6.1304545481     0.6782684279    17.5634992793
Cu      7.3630233367     2.8076687887    17.5507736623
Cu      8.5975650806     4.9464403896    17.5360797339
Cu      9.8179676751     7.0732077169    17.5653343331
Cu      8.5886970654     0.6819197863    17.5623817844
Cu      9.8197684417     2.8103485248    17.5671055130
Cu     11.0466263181     4.9420588462    17.5650378236
Cu     12.2739323650     7.0698345379    17.5710610361
O       6.0576875623     2.8871291005    21.0697508467
O       7.4389683303     4.2460212354    19.0462757192
O       6.1665739779     4.2434971701    23.6834922996
C       6.7522010960     4.1197605909    21.3835320919
C       7.8990954889     4.3521925121    20.4029802298
C       7.2734988649     4.0654379251    22.8169688156
H       6.0296152387     4.9465894377    21.3066763356
H       8.6986374391     3.6072774445    20.5628187723
H       8.3265214395     5.3533843037    20.5684620606
H       8.0267792279     4.8659900790    22.9557104703
H       7.7711985281     3.0921330467    22.9702009757
H       6.4199536335     2.5516034929    20.2264130832
H       4.4140774628     2.9225336475    20.4538932204
H       6.4842456722     4.0839487996    24.6278432807
O       3.5074504082     2.8285385412    20.0352684897
H       3.2676481565     1.8887475184    20.1249253052
80
Step 5 | NEB Image 5 | Cartesian Angstrom
Ni      1.2286497034     0.7093615225    11.2499999440
Ni      2.4572989609     2.8374461750    11.2499999440
Ni      3.6859482184     4.9655308275    11.2499999440
Ni      4.9145974759     7.0936154800    11.2499999440
Ni      3.6859497034     0.7093615225    11.2499999440
Ni      4.9145989609     2.8374461750    11.2499999440
Ni      6.1432482184     4.9655308275    11.2499999440
Ni      7.3718974759     7.0936154800    11.2499999440
Ni      6.1432497034     0.7093615225    11.2499999440
Ni      7.3718989609     2.8374461750    11.2499999440
Ni      8.6005482184     4.9655308275    11.2499999440
Ni      9.8291974759     7.0936154800    11.2499999440
Ni      8.6005497034     0.7093615225    11.2499999440
Ni      9.8291989609     2.8374461750    11.2499999440
Ni     11.0578482184     4.9655308275    11.2499999440
Ni     12.2864974759     7.0936154800    11.2499999440
Ni     14.7391156794     8.5053429999    13.3011712910
Ni     11.0531329642     2.1206495503    13.3008022026
Ni     12.2817169557     4.2489790177    13.3006008466
Ni     13.5101985270     6.3773433856    13.3009432678
Ni      7.3672569131     8.5047181091    13.3011774747
Ni      3.6813641840     2.1207833643    13.3007249066
Ni      4.9098915592     4.2493198517    13.3009123494
Ni      6.1382080000     6.3774560890    13.3011137055
Ni      9.8241033938     8.5046823573    13.3010831736
Ni      6.1383369699     2.1207818321    13.3007716707
Ni      7.3668809566     4.2490234521    13.3008056810
Ni      8.5953896076     6.3767159412    13.3009509974
Ni     12.2816608204     8.5051500252    13.3006066438
Ni      8.5958457422     2.1206092019    13.3010364095
Ni      9.8244550440     4.2487038138    13.3007276120
Ni     11.0528529688     6.3769410074    13.3006611374
Cu      2.4478274055     1.4024593708    15.3768195742
Cu      3.6763308468     3.5307009057    15.3768060474
Cu      4.9041378398     5.6597275336    15.3773448005
Cu      6.1330260451     7.7878910103    15.3784795057
Cu      4.9046987540     1.4026027186    15.3777977550
Cu      6.1325026510     3.5313493756    15.3777258697
Cu      7.3610720952     5.6598451741    15.3779276123
Cu      8.5906751295     7.7868954923    15.3785351588
Cu      7.3621786280     1.4037477983    15.3762151195
Cu      8.5904727564     3.5321453644    15.3780682910
Cu      9.8190628915     5.6596863338    15.3769316534
Cu     11.0489115080     7.7874997832    15.3777154348
Cu      9.8196453802     1.4041813317    15.3774700200
Cu     11.0479045662     3.5315147704    15.3771971651
Cu     12.2765483193     5.6595852924    15.3771299176
Cu     13.5054403579     7.7883030926    15.3772814178
Cu      1.2140125591     0.6836803076    17.5697065574
Cu      2.4431555374     2.8116125893    17.5665702724
Cu      3.6705110760     4.9384343512    17.5687388115
Cu      4.8988742539     7.0688538531    17.5715929661
Cu      3.6716454744     0.6829118137    17.5713989532
Cu      4.8981418913     2.8112417067    17.5722074693
Cu      6.1274353048     4.9410331682    17.5708265763
Cu      7.3554752500     7.0698228126    17.5713297733
Cu      6.1297077779     0.6833063606    17.5689100221
Cu      7.3567237656     2.8135682139    17.5698797004
Cu      8.5851063076     4.9421568820    17.5702368079
Cu      9.8152975701     7.0699596058    17.5700617325
Cu      8.5865082080     0.6855771971    17.5667967496
Cu      9.8144914881     2.8135456562    17.5749499312
Cu     11.0427692018     4.9416447797    17.5690866435
Cu     12.2728600100     7.0692517198    17.5719744219
O       5.4816243728     2.5651691502    20.6539118200
O       7.3508896973     4.2099530947    19.0383354809
O       4.4981563510     3.9587391709    22.9072956728
C       5.9290713561     3.8945947838    20.9960208007
C       7.3297021271     4.1881915565    20.4688911028
C       5.8721709119     4.0116672750    22.5089584937
H       5.2340507257     4.6323215466    20.5533350446
H       8.0432145389     3.4244560240    20.8191443760
H       7.6571223136     5.1738780612    20.8354754738
H       6.3359933253     4.9675285031    22.8148914030
H       6.4497260984     3.1808581747    22.9509168945
H       5.8597578631     2.3152772777    19.7784701378
H       3.6583776659     2.5435355524    20.3168147116
H       4.4610770249     3.8064239805    23.8648388416
O       2.7103082747     2.5416543255    20.0177020144
H       2.4292112216     1.6097423068    20.0822731560
