80
Step 1 | NEB Image 1 | Cartesian Angstrom
Ni      1.2286497034     0.7093615225    11.2499999440
Ni      2.4572989609     2.8374461750    11.2499999440
Ni      3.6859482184     4.9655308275    11.2499999440
Ni      4.9145974759     7.0936154800    11.2499999440
Ni      3.6859497034     0.7093615225    11.2499999440
Ni      4.9145989609     2.8374461750    11.2499999440
Ni      6.1432482184     4.9655308275    11.2499999440
Ni      7.3718974759     7.0936154800    11.2499999440
Ni      6.1432497034     0.7093615225    11.2499999440
Ni      7.3718989609     2.8374461750    11.2499999440
Ni      8.6005482184     4.9655308275    11.2499999440
Ni      9.8291974759     7.0936154800    11.2499999440
Ni      8.6005497034     0.7093615225    11.2499999440
Ni      9.8291989609     2.8374461750    11.2499999440
Ni     11.0578482184     4.9655308275    11.2499999440
Ni     12.2864974759     7.0936154800    11.2499999440
Ni     14.7391156794     8.5053429999    13.3011712910
Ni     11.0531329642     2.1206495503    13.3008022026
Ni     12.2817169557     4.2489790177    13.3006008466
Ni     13.5101985270     6.3773433856    13.3009432678
Ni      7.3672569131     8.5047181091    13.3011774747
Ni      3.6813641840     2.1207833643    13.3007249066
Ni      4.9098915592     4.2493198517    13.3009123494
Ni      6.1382080000     6.3774560890    13.3011137055
Ni      9.8241033938     8.5046823573    13.3010831736
Ni      6.1383369699     2.1207818321    13.3007716707
Ni      7.3668809566     4.2490234521    13.3008056810
Ni      8.5953896076     6.3767159412    13.3009509974
Ni     12.2816608204     8.5051500252    13.3006066438
Ni      8.5958457422     2.1206092019    13.3010364095
Ni      9.8244550440     4.2487038138    13.3007276120
Ni     11.0528529688     6.3769410074    13.3006611374
Cu      2.4478274055     1.4024593708    15.3768195742
Cu      3.6763308468     3.5307009057    15.3768060474
Cu      4.9041378398     5.6597275336    15.3773448005
Cu      6.1330260451     7.7878910103    15.3784795057
Cu      4.9046987540     1.4026027186    15.3777977550
Cu      6.1325026510     3.5313493756    15.3777258697
Cu      7.3610720952     5.6598451741    15.3779276123
Cu      8.5906751295     7.7868954923    15.3785351588
Cu      7.3621786280     1.4037477983    15.3762151195
Cu      8.5904727564     3.5321453644    15.3780682910
Cu      9.8190628915     5.6596863338    15.3769316534
Cu     11.0489115080     7.7874997832    15.3777154348
Cu      9.8196453802     1.4041813317    15.3774700200
Cu     11.0479045662     3.5315147704    15.3771971651
Cu     12.2765483193     5.6595852924    15.3771299176
Cu     13.5054403579     7.7883030926    15.3772814178
Cu      1.2140125591     0.6836803076    17.5697065574
Cu      2.4431555374     2.8116125893    17.5665702724
Cu      3.6705110760     4.9384343512    17.5687388115
Cu      4.8988742539     7.0688538531    17.5715929661
Cu      3.6716454744     0.6829118137    17.5713989532
Cu      4.8981418913     2.8112417067    17.5722074693
Cu      6.1274353048     4.9410331682    17.5708265763
Cu      7.3554752500     7.0698228126    17.5713297733
Cu      6.1297077779     0.6833063606    17.5689100221
Cu      7.3567237656     2.8135682139    17.5698797004
Cu      8.5851063076     4.9421568820    17.5702368079
Cu      9.8152975701     7.0699596058    17.5700617325
Cu      8.5865082080     0.6855771971    17.5667967496
Cu      9.8144914881     2.8135456562    17.5749499312
Cu     11.0427692018     4.9416447797    17.5690866435
Cu     12.2728600100     7.0692517198    17.5719744219
O       7.2288202015     4.2734569284    22.3446828621
O       8.3044696405     5.3171068409    20.0014702420
O       8.8891638945     4.8479579810    24.7349733808
C       8.5251333110     4.9000290628    22.3715153937
C       9.1804211035     4.7744357207    20.9993344800
C       9.4189460410     4.3898719266    23.4895992517
H       8.3072385962     5.9614198807    22.5605187870
H       9.4153356173     3.7172718747    20.7683620669
H      10.1139922737     5.3503076003    20.9408546493
H      10.4461642949     4.7683945991    23.3275539960
H       9.4595638267     3.2836247445    23.4537018323
H       7.3561498138     3.3073831923    22.3295378714
H       7.4071380143     4.9636379387    20.1831718691
H       9.4432595602     4.5017937719    25.4528614775
O       2.4447775074     1.3898406800    19.0162048647
H       2.5328987835     1.2730973609    19.9764139723
80
Step 2 | NEB Image 2 | Cartesian Angstrom
Ni      1.2286109447     0.7093340154    11.2499228380
Ni      2.4572418759     2.8374301017    11.2498425896
Ni      3.6858885611     4.9655539704    11.2497797897
Ni      4.9145562545     7.0936806985    11.2497819172
Ni      3.6859143806     0.7093104268    11.2498592425
Ni      4.9145638196     2.8374140741    11.2497524262
Ni      6.1432317140     4.9655531631    11.2496999808
Ni      7.3719059900     7.0936848461    11.2497457488
Ni      6.1432406601     0.7092918333    11.2498091699
Ni      7.3719138617     2.8374055535    11.2497166390
Ni      8.6005908255     4.9655483812    11.2497082705
Ni      9.8292495972     7.0936708777    11.2497869996
Ni      8.6005784702     0.7092908756    11.2498060739
Ni      9.8292590417     2.8374110138    11.2497611150
Ni     11.0579218773     4.9655426823    11.2497920076
Ni     12.2865598128     7.0936502685    11.2498648612
Ni     14.7391911526     8.5053865304    13.3010796061
Ni     11.0533170950     2.1205367593    13.3003841486
Ni     12.2819122371     4.2489715217    13.3002552724
Ni     13.5103354410     6.3773882968    13.3007452994
Ni      7.3672691376     8.5049538407    13.3007218581
Ni      3.6812475139     2.1206705525    13.3002358179
Ni      4.9097661246     4.2493419968    13.3001382052
Ni      6.1381487439     6.3776615537    13.3003728932
Ni      9.8242066119     8.5048617939    13.3007185942
Ni      6.1383164137     2.1206019552    13.3000978409
Ni      7.3669389302     4.2490153178    13.2999090357
Ni      8.5955069285     6.3768909544    13.3002458414
Ni     12.2817728320     8.5052479193    13.3004020440
Ni      8.5959692078     2.1204319646    13.3003946121
Ni      9.8246606349     4.2486882232    13.3000538670
Ni     11.0530381309     6.3770423089    13.3002252683
Cu      2.4475122489     1.4020708069    15.3758074649
Cu      3.6757895228     3.5308019828    15.3744781907
Cu      4.9033728361     5.6605419918    15.3746810839
Cu      6.1327901637     7.7888012390    15.3769893683
Cu      4.9045471724     1.4018382478    15.3762132744
Cu      6.1324084374     3.5309071033    15.3742690054
Cu      7.3612543760     5.6606315278    15.3745705360
Cu      8.5909332646     7.7876883507    15.3771033532
Cu      7.3623809193     1.4028258810    15.3744075803
Cu      8.5911386536     3.5316518476    15.3751731440
Cu      9.8198787236     5.6601118845    15.3747877546
Cu     11.0493082989     7.7878925658    15.3769517864
Cu      9.8201415525     1.4035669564    15.3762084655
Cu     11.0486405481     3.5313093359    15.3758755907
Cu     12.2770656602     5.6597180210    15.3764022922
Cu     13.5056745983     7.7884384992    15.3770111738
Cu      1.2130663271     0.6828168399    17.5688296231
Cu      2.4399268780     2.8219532056    17.5449129658
Cu      3.6640741296     4.9424898328    17.5593297068
Cu      4.8962702670     7.0734568302    17.5665613218
Cu      3.6723822649     0.6801041625    17.5683540554
Cu      4.8945970387     2.8043927540    17.5526028178
Cu      6.1244693395     4.9496883710    17.5351223030
Cu      7.3550912748     7.0763138345    17.5627522833
Cu      6.1297706069     0.6797349003    17.5654206372
Cu      7.3609668725     2.8062161009    17.5526899637
Cu      8.5929117793     4.9439736860    17.5419680892
Cu      9.8174318969     7.0730396241    17.5651009016
Cu      8.5878092329     0.6824435097    17.5632899965
Cu      9.8184675737     2.8103583079    17.5675751005
Cu     11.0462277016     4.9418812888    17.5645270799
Cu     12.2738993447     7.0698582136    17.5708980340
O       6.4862995999     3.7222454122    21.8896817351
O       7.8647737897     5.1517571967    19.9656256791
O       7.4047626273     4.2471914083    24.6475128833
C       7.6132343125     4.5285063893    22.2763444310
C       8.5773554004     4.6503850154    21.1012879082
C       8.2955704266     4.0496422150    23.5425208405
H       7.1740378354     5.5215641971    22.4727232109
H       9.0351190893     3.6685396194    20.8634445228
H       9.3852270258     5.3650714451    21.3041868751
H       9.2305718577     4.6237818177    23.6786805665
H       8.5694448475     2.9807618592    23.4358464923
H       6.7900281811     2.7974572190    21.7902338371
H       7.0109346290     4.6614953051    19.9373390870
H       7.8487724335     3.9782409351    25.4549646395
O       2.4503487353     1.4167372677    18.9978427979
H       2.5377194863     1.4113317811    19.9611771987
80
Step 3 | NEB Image 3 | Cartesian Angstrom
Ni      1.2285991200     0.7093236574    11.2498954498
Ni      2.4572259767     2.8374245455    11.2497812951
Ni      3.6858796136     4.9655667302    11.2496987767
Ni      4.9145570901     7.0937061073    11.2497146590
Ni      3.6859071356     0.7092925681    11.2498068382
Ni      4.9145649055     2.8374073903    11.2496640990
Ni      6.1432442349     4.9655671870    11.2496100250
Ni      7.3719221802     7.0937083851    11.2496816217
Ni      6.1432485036     0.7092720310    11.2497449678
Ni      7.3719344202     2.8374002052    11.2496338628
Ni      8.6006169316     4.9655591136    11.2496368616
Ni      9.8292725312     7.0936875457    11.2497422851
Ni      8.6005979655     0.7092750421    11.2497519380
Ni      9.8292870054     2.8374074186    11.2497039154
Ni     11.0579490383     4.9655493731    11.2497496653
Ni     12.2865792809     7.0936595223    11.2498415518
Ni     14.7392077862     8.5053943027    13.3010704043
Ni     11.0533862940     2.1205229753    13.3002962715
Ni     12.2819711926     4.2489788232    13.3001993246
Ni     13.5103695901     6.3773996717    13.3007213631
Ni      7.3673018734     8.5050219070    13.3006161770
Ni      3.6812102831     2.1206200861    13.3000215945
Ni      4.9097802275     4.2493784062    13.2998412005
Ni      6.1381857649     6.3777423946    13.3001668120
Ni      9.8242506987     8.5049062288    13.3006518800
Ni      6.1383610712     2.1205587445    13.2998490218
Ni      7.3670135955     4.2490432964    13.2996642418
Ni      8.5955741290     6.3769499271    13.3000876123
Ni     12.2818048102     8.5052680190    13.3003746949
Ni      8.5960472645     2.1204032794    13.3002204387
Ni      9.8247488773     4.2487012013    13.2999052285
Ni     11.0531020066     6.3770723623    13.3001496820
Cu      2.4473242723     1.4018488607    15.3755941091
Cu      3.6754770415     3.5308424851    15.3731070254
Cu      4.9034910077     5.6609747405    15.3737493563
Cu      6.1328662087     7.7890764259    15.3766248247
Cu      4.9045257323     1.4013765742    15.3753014744
Cu      6.1328238796     3.5310517183    15.3730313878
Cu      7.3614550001     5.6609274263    15.3738275872
Cu      8.5910918268     7.7878988688    15.3768319710
Cu      7.3626457512     1.4026161022    15.3737889906
Cu      8.5914908429     3.5316188719    15.3744549484
Cu      9.8202306810     5.6602827517    15.3743370334
Cu     11.0494311905     7.7879716725    15.3768682276
Cu      9.8203781115     1.4034662888    15.3759029444
Cu     11.0488961316     3.5313133928    15.3756617611
Cu     12.2771956481     5.6597556062    15.3763427891
Cu     13.5057209699     7.7884580654    15.3769992790
Cu      1.2138719599     0.6834589719    17.5698924568
Cu      2.4372028393     2.8184690478    17.5393993947
Cu      3.6597308058     4.9474437205    17.5497074174
Cu      4.8966070807     7.0752600561    17.5649809066
Cu      3.6705470426     0.6799044556    17.5688936509
Cu      4.8937250678     2.7979857850    17.5305115795
Cu      6.1307157952     4.9538310769    17.5345957380
Cu      7.3556994663     7.0778919170    17.5612000946
Cu      6.1304734392     0.6776585368    17.5630089921
Cu      7.3639504290     2.8072688325    17.5492811001
Cu      8.5986600190     4.9465995998    17.5318380430
Cu      9.8182806672     7.0735638680    17.5648065374
Cu      8.5888525500     0.6815698512    17.5619274634
Cu      9.8202673979     2.8100094977    17.5662410655
Cu     11.0470524085     4.9421075591    17.5646357847
Cu     12.2740438545     7.0698891691    17.5709804746
O       5.7802731180     3.3318079356    21.7037042854
O       7.2680531649     4.2454825685    19.7621878999
O       6.2963975311     4.2231555816    24.4407033993
C       6.7891234480     4.2820942560    22.1043949788
C       7.8979555934     4.3131764140    21.0457115474
C       7.3369168629     4.0112137120    23.4888474841
H       6.2602672542     5.2469926319    22.0994814433
H       8.5966021877     3.4639479020    21.1643291354
H       8.4760082330     5.2462159919    21.0863203239
H       8.1952449687     4.6856942379    23.6665196497
H       7.7165871705     2.9714273498    23.5255019336
H       6.1248518070     2.4312476189    21.8320728712
H       6.4290935435     3.7413518901    19.9085644897
H       6.6352407590     4.0094200904    25.3242195890
O       3.5036524114     2.0213539112    19.0550002754
H       2.9597774371     1.7688929446    19.8223433472
80
Step 4 | NEB Image 4 | Cartesian Angstrom
Ni      1.2286036837     0.7093273407    11.2499037133
Ni      2.4572326698     2.8374271039    11.2498004413
Ni      3.6858853899     4.9655638033    11.2497254052
Ni      4.9145599147     7.0936984197    11.2497384908
Ni      3.6859109291     0.7092989248    11.2498224167
Ni      4.9145674921     2.8374112308    11.2496923224
Ni      6.1432437989     4.9655643440    11.2496416952
Ni      7.3719197012     7.0937011583    11.2497062424
Ni      6.1432485128     0.7092795578    11.2497646337
Ni      7.3719311935     2.8374041175    11.2496620360
Ni      8.6006112979     4.9655571650    11.2496639481
Ni      9.8292667333     7.0936823265    11.2497611146
Ni      8.6005943327     0.7092816445    11.2497699307
Ni      9.8292804534     2.8374104271    11.2497252592
Ni     11.0579416628     4.9655481823    11.2497675470
Ni     12.2865733560     7.0936564721    11.2498527730
Ni     14.7392013546     8.5053908465    13.3010772447
Ni     11.0533686938     2.1205321617    13.3003319020
Ni     12.2819532599     4.2489790299    13.3002275194
Ni     13.5103575290     6.3773958576    13.3007367296
Ni      7.3672974243     8.5049984274    13.3006588890
Ni      3.6812256306     2.1206380212    13.3000837296
Ni      4.9097881764     4.2493739484    13.2999378746
Ni      6.1381846356     6.3777183045    13.3002443936
Ni      9.8242394865     8.5048899400    13.3006833340
Ni      6.1383576527     2.1205792398    13.2999244476
Ni      7.3670004978     4.2490421923    13.2997528661
Ni      8.5955593545     6.3769326737    13.3001519512
Ni     12.2817943697     8.5052597683    13.3003910193
Ni      8.5960320959     2.1204190948    13.3002793751
Ni      9.8247274208     4.2487021096    13.2999644142
Ni     11.0530837789     6.3770631900    13.3001863397
Cu      2.4473762607     1.4019166053    15.3756741731
Cu      3.6755799108     3.5308445856    15.3734858858
Cu      4.9035333877     5.6608495643    15.3740944683
Cu      6.1328720825     7.7889791868    15.3767709943
Cu      4.9045518773     1.4015096430    15.3755231981
Cu      6.1327692265     3.5310798305    15.3734520412
Cu      7.3614153336     5.6608435283    15.3741408140
Cu      8.5910599988     7.7878244573    15.3769585898
Cu      7.3626082820     1.4027043205    15.3739635486
Cu      8.5914207684     3.5316633187    15.3747108345
Cu      9.8201436547     5.6602403190    15.3745306949
Cu     11.0493923301     7.7879378192    15.3769296850
Cu      9.8203301663     1.4035171632    15.3760136079
Cu     11.0488262436     3.5313286475    15.3757718297
Cu     12.2771490045     5.6597438316    15.3763979218
Cu     13.5057010993     7.7884475403    15.3770182904
Cu      1.2137110452     0.6833559884    17.5696401491
Cu      2.4377498947     2.8180077415    17.5421687569
Cu      3.6614466233     4.9465015647    17.5521224544
Cu      4.8967324327     7.0746114391    17.5655688019
Cu      3.6708346636     0.6799978178    17.5687463600
Cu      4.8951769210     2.8003621224    17.5354030332
Cu      6.1290751933     4.9521952112    17.5374576750
Cu      7.3557074484     7.0773068858    17.5619434690
Cu      6.1304599073     0.6781290407    17.5633860155
Cu      7.3632349367     2.8075813200    17.5504352742
Cu      8.5978186193     4.9464801761    17.5351173518
Cu      9.8180388540     7.0732879904    17.5652161597
Cu      8.5887334391     0.6818403288    17.5622782524
Cu      9.8198826404     2.8102723561    17.5669105734
Cu     11.0467226775     4.9420700778    17.5649483503
Cu     12.2739574618     7.0698467706    17.5710432062
O       6.0436456960     2.8904060382    21.1044915125
O       7.4328023346     4.2492844506    19.0660787830
O       6.1673088494     4.2182770130    23.7432638293
C       6.7475259801     4.1183007440    21.4165741950
C       7.8868883489     4.3511895458    20.4256098371
C       7.2726181347     4.0552101221    22.8474138310
H       6.0212093529     4.9448100707    21.3492891760
H       8.6851842164     3.6044270818    20.5872142774
H       8.3197676219     5.3500191853    20.5965058057
H       8.0211162529     4.8559462922    22.9999839941
H       7.7690617855     3.0812779730    22.9982857786
H       6.4605311696     2.5041849838    20.3080666947
H       4.4542694258     2.9312022005    20.4392270286
H       6.4799343755     4.0619424749    24.6496207868
O       3.5651108211     2.8377964166    19.9852901052
H       3.2987271032     1.9115204902    20.1159149280
80
Step 5 | NEB Image 5 | Cartesian Angstrom
Ni      1.2286497034     0.7093615225    11.2499999440
Ni      2.4572989609     2.8374461750    11.2499999440
Ni      3.6859482184     4.9655308275    11.2499999440
Ni      4.9145974759     7.0936154800    11.2499999440
Ni      3.6859497034     0.7093615225    11.2499999440
Ni      4.9145989609     2.8374461750    11.2499999440
Ni      6.1432482184     4.9655308275    11.2499999440
Ni      7.3718974759     7.0936154800    11.2499999440
Ni      6.1432497034     0.7093615225    11.2499999440
Ni      7.3718989609     2.8374461750    11.2499999440
Ni      8.6005482184     4.9655308275    11.2499999440
Ni      9.8291974759     7.0936154800    11.2499999440
Ni      8.6005497034     0.7093615225    11.2499999440
Ni      9.8291989609     2.8374461750    11.2499999440
Ni     11.0578482184     4.9655308275    11.2499999440
Ni     12.2864974759     7.0936154800    11.2499999440
Ni     14.7391156794     8.5053429999    13.3011712910
Ni     11.0531329642     2.1206495503    13.3008022026
Ni     12.2817169557     4.2489790177    13.3006008466
Ni     13.5101985270     6.3773433856    13.3009432678
Ni      7.3672569131     8.5047181091    13.3011774747
Ni      3.6813641840     2.1207833643    13.3007249066
Ni      4.9098915592     4.2493198517    13.3009123494
Ni      6.1382080000     6.3774560890    13.3011137055
Ni      9.8241033938     8.5046823573    13.3010831736
Ni      6.1383369699     2.1207818321    13.3007716707
Ni      7.3668809566     4.2490234521    13.3008056810
Ni      8.5953896076     6.3767159412    13.3009509974
Ni     12.2816608204     8.5051500252    13.3006066438
Ni      8.5958457422     2.1206092019    13.3010364095
Ni      9.8244550440     4.2487038138    13.3007276120
Ni     11.0528529688     6.3769410074    13.3006611374
Cu      2.4478274055     1.4024593708    15.3768195742
Cu      3.6763308468     3.5307009057    15.3768060474
Cu      4.9041378398     5.6597275336    15.3773448005
Cu      6.1330260451     7.7878910103    15.3784795057
Cu      4.9046987540     1.4026027186    15.3777977550
Cu      6.1325026510     3.5313493756    15.3777258697
Cu      7.3610720952     5.6598451741    15.3779276123
Cu      8.5906751295     7.7868954923    15.3785351588
Cu      7.3621786280     1.4037477983    15.3762151195
Cu      8.5904727564     3.5321453644    15.3780682910
Cu      9.8190628915     5.6596863338    15.3769316534
Cu     11.0489115080     7.7874997832    15.3777154348
Cu      9.8196453802     1.4041813317    15.3774700200
Cu     11.0479045662     3.5315147704    15.3771971651
Cu     12.2765483193     5.6595852924    15.3771299176
Cu     13.5054403579     7.7883030926    15.3772814178
Cu      1.2140125591     0.6836803076    17.5697065574
Cu      2.4431555374     2.8116125893    17.5665702724
Cu      3.6705110760     4.9384343512    17.5687388115
Cu      4.8988742539     7.0688538531    17.5715929661
Cu      3.6716454744     0.6829118137    17.5713989532
Cu      4.8981418913     2.8112417067    17.5722074693
Cu      6.1274353048     4.9410331682    17.5708265763
Cu      7.3554752500     7.0698228126    17.5713297733
Cu      6.1297077779     0.6833063606    17.5689100221
Cu      7.3567237656     2.8135682139    17.5698797004
Cu      8.5851063076     4.9421568820    17.5702368079
Cu      9.8152975701     7.0699596058    17.5700617325
Cu      8.5865082080     0.6855771971    17.5667967496
Cu      9.8144914881     2.8135456562    17.5749499312
Cu     11.0427692018     4.9416447797    17.5690866435
Cu     12.2728600100     7.0692517198    17.5719744219
O       5.4816243728     2.5651691502    20.6539118200
O       7.3508896973     4.2099530947    19.0383354809
O       4.4981563510     3.9587391709    22.9072956728
C       5.9290713561     3.8945947838    20.9960208007
C       7.3297021271     4.1881915565    20.4688911028
C       5.8721709119     4.0116672750    22.5089584937
H       5.2340507257     4.6323215466    20.5533350446
H       8.0432145389     3.4244560240    20.8191443760
H       7.6571223136     5.1738780612    20.8354754738
H       6.3359933253     4.9675285031    22.8148914030
H       6.4497260984     3.1808581747    22.9509168945
H       5.8597578631     2.3152772777    19.7784701378
H       3.6583776659     2.5435355524    20.3168147116
H       4.4610770249     3.8064239805    23.8648388416
O       2.7103082747     2.5416543255    20.0177020144
H       2.4292112216     1.6097423068    20.0822731560
