80
Step 1 | NEB Image 1 | Cartesian Angstrom
Ni      1.2286497034     0.7093615225    11.2499999440
Ni      2.4572989609     2.8374461750    11.2499999440
Ni      3.6859482184     4.9655308275    11.2499999440
Ni      4.9145974759     7.0936154800    11.2499999440
Ni      3.6859497034     0.7093615225    11.2499999440
Ni      4.9145989609     2.8374461750    11.2499999440
Ni      6.1432482184     4.9655308275    11.2499999440
Ni      7.3718974759     7.0936154800    11.2499999440
Ni      6.1432497034     0.7093615225    11.2499999440
Ni      7.3718989609     2.8374461750    11.2499999440
Ni      8.6005482184     4.9655308275    11.2499999440
Ni      9.8291974759     7.0936154800    11.2499999440
Ni      8.6005497034     0.7093615225    11.2499999440
Ni      9.8291989609     2.8374461750    11.2499999440
Ni     11.0578482184     4.9655308275    11.2499999440
Ni     12.2864974759     7.0936154800    11.2499999440
Ni     14.7391156794     8.5053429999    13.3011712910
Ni     11.0531329642     2.1206495503    13.3008022026
Ni     12.2817169557     4.2489790177    13.3006008466
Ni     13.5101985270     6.3773433856    13.3009432678
Ni      7.3672569131     8.5047181091    13.3011774747
Ni      3.6813641840     2.1207833643    13.3007249066
Ni      4.9098915592     4.2493198517    13.3009123494
Ni      6.1382080000     6.3774560890    13.3011137055
Ni      9.8241033938     8.5046823573    13.3010831736
Ni      6.1383369699     2.1207818321    13.3007716707
Ni      7.3668809566     4.2490234521    13.3008056810
Ni      8.5953896076     6.3767159412    13.3009509974
Ni     12.2816608204     8.5051500252    13.3006066438
Ni      8.5958457422     2.1206092019    13.3010364095
Ni      9.8244550440     4.2487038138    13.3007276120
Ni     11.0528529688     6.3769410074    13.3006611374
Cu      2.4478274055     1.4024593708    15.3768195742
Cu      3.6763308468     3.5307009057    15.3768060474
Cu      4.9041378398     5.6597275336    15.3773448005
Cu      6.1330260451     7.7878910103    15.3784795057
Cu      4.9046987540     1.4026027186    15.3777977550
Cu      6.1325026510     3.5313493756    15.3777258697
Cu      7.3610720952     5.6598451741    15.3779276123
Cu      8.5906751295     7.7868954923    15.3785351588
Cu      7.3621786280     1.4037477983    15.3762151195
Cu      8.5904727564     3.5321453644    15.3780682910
Cu      9.8190628915     5.6596863338    15.3769316534
Cu     11.0489115080     7.7874997832    15.3777154348
Cu      9.8196453802     1.4041813317    15.3774700200
Cu     11.0479045662     3.5315147704    15.3771971651
Cu     12.2765483193     5.6595852924    15.3771299176
Cu     13.5054403579     7.7883030926    15.3772814178
Cu      1.2140125591     0.6836803076    17.5697065574
Cu      2.4431555374     2.8116125893    17.5665702724
Cu      3.6705110760     4.9384343512    17.5687388115
Cu      4.8988742539     7.0688538531    17.5715929661
Cu      3.6716454744     0.6829118137    17.5713989532
Cu      4.8981418913     2.8112417067    17.5722074693
Cu      6.1274353048     4.9410331682    17.5708265763
Cu      7.3554752500     7.0698228126    17.5713297733
Cu      6.1297077779     0.6833063606    17.5689100221
Cu      7.3567237656     2.8135682139    17.5698797004
Cu      8.5851063076     4.9421568820    17.5702368079
Cu      9.8152975701     7.0699596058    17.5700617325
Cu      8.5865082080     0.6855771971    17.5667967496
Cu      9.8144914881     2.8135456562    17.5749499312
Cu     11.0427692018     4.9416447797    17.5690866435
Cu     12.2728600100     7.0692517198    17.5719744219
O       7.2288202015     4.2734569284    22.3446828621
O       8.3044696405     5.3171068409    20.0014702420
O       8.8891638945     4.8479579810    24.7349733808
C       8.5251333110     4.9000290628    22.3715153937
C       9.1804211035     4.7744357207    20.9993344800
C       9.4189460410     4.3898719266    23.4895992517
H       8.3072385962     5.9614198807    22.5605187870
H       9.4153356173     3.7172718747    20.7683620669
H      10.1139922737     5.3503076003    20.9408546493
H      10.4461642949     4.7683945991    23.3275539960
H       9.4595638267     3.2836247445    23.4537018323
H       7.3561498138     3.3073831923    22.3295378714
H       7.4071380143     4.9636379387    20.1831718691
H       9.4432595602     4.5017937719    25.4528614775
O       2.4447775074     1.3898406800    19.0162048647
H       2.5328987835     1.2730973609    19.9764139723
80
Step 2 | NEB Image 2 | Cartesian Angstrom
Ni      1.2286123046     0.7093352044    11.2499259715
Ni      2.4572437082     2.8374307436    11.2498496069
Ni      3.6858896063     4.9655525170    11.2497890738
Ni      4.9145561804     7.0936777913    11.2497896370
Ni      3.6859152207     0.7093124768    11.2498652365
Ni      4.9145637157     2.8374148516    11.2497625427
Ni      6.1432303048     4.9655515683    11.2497103044
Ni      7.3719041544     7.0936821521    11.2497531224
Ni      6.1432397794     0.7092941097    11.2498165174
Ni      7.3719115304     2.8374061815    11.2497261319
Ni      8.6005878543     4.9655471623    11.2497164792
Ni      9.8292469811     7.0936689694    11.2497921527
Ni      8.6005762554     0.7092926998    11.2498122792
Ni      9.8292558555     2.8374114386    11.2497676878
Ni     11.0579187756     4.9655419226    11.2497968877
Ni     12.2865575850     7.0936492080    11.2498675573
Ni     14.7391892396     8.5053856334    13.3010806873
Ni     11.0533092008     2.1205383714    13.3003942664
Ni     12.2819054910     4.2489707032    13.3002617525
Ni     13.5103315217     6.3773869927    13.3007480949
Ni      7.3672654302     8.5049460326    13.3007340248
Ni      3.6812518023     2.1206763453    13.3002603099
Ni      4.9097645964     4.2493378768    13.3001722351
Ni      6.1381445786     6.3776523067    13.3003965788
Ni      9.8242015825     8.5048566899    13.3007263062
Ni      6.1383113747     2.1206069511    13.3001263110
Ni      7.3669304536     4.2490121681    13.2999371460
Ni      8.5954992785     6.3768842111    13.3002640606
Ni     12.2817691678     8.5052456044    13.3004052295
Ni      8.5959603359     2.1204352965    13.3004145840
Ni      9.8246505752     4.2486867722    13.3000709731
Ni     11.0530308302     6.3770388697    13.3002340130
Cu      2.4475337224     1.4020962054    15.3758319848
Cu      3.6758253340     3.5307974490    15.3746348230
Cu      4.9033598617     5.6604925184    15.3747881308
Cu      6.1327816648     7.7887696554    15.3770313289
Cu      4.9045497630     1.4018910246    15.3763172208
Cu      6.1323614007     3.5308910594    15.3744109323
Cu      7.3612315683     5.6605977114    15.3746561599
Cu      8.5909152353     7.7876641890    15.3771347150
Cu      7.3623509164     1.4028500562    15.3744782690
Cu      8.5910986125     3.5316558616    15.3752555873
Cu      9.8198385899     5.6600923992    15.3748397251
Cu     11.0492942263     7.7878834454    15.3769615998
Cu      9.8201146515     1.4035786172    15.3762435495
Cu     11.0486113572     3.5313089869    15.3759003736
Cu     12.2770507363     5.6597137179    15.3764093599
Cu     13.5056692518     7.7884362283    15.3770126425
Cu      1.2129747285     0.6827440077    17.5687085017
Cu      2.4402366154     2.8223412550    17.5455515085
Cu      3.6645738862     4.9419269185    17.5604271857
Cu      4.8962333189     7.0732497911    17.5667429145
Cu      3.6725903733     0.6801272426    17.5682924285
Cu      4.8947051129     2.8051288783    17.5551178877
Cu      6.1237563851     4.9492117030    17.5352014467
Cu      7.3550230301     7.0761325238    17.5629317932
Cu      6.1296915835     0.6799713678    17.5656941036
Cu      7.3606268133     2.8061000628    17.5530808525
Cu      8.5922603629     4.9436779580    17.5431286325
Cu      9.8173348884     7.0729788220    17.5651368230
Cu      8.5876912344     0.6825435136    17.5634454631
Cu      9.8182627614     2.8103993176    17.5677295951
Cu     11.0461327808     4.9418556163    17.5645170576
Cu     12.2738825120     7.0698544408    17.5708892144
O       6.5219607655     3.7403939381    21.8770891250
O       7.8496428203     5.1043334101    19.8923369911
O       7.4876526377     4.3708118258    24.5942308848
C       7.6549453687     4.5627286118    22.2219178393
C       8.5959254099     4.6455308085    21.0235137040
C       8.3610490175     4.1232980545    23.4865485935
H       7.2186116650     5.5581846817    22.3902750292
H       9.0533750511     3.6597230725    20.8059067313
H       9.4041519089     5.3715390532    21.1813971634
H       9.2998718432     4.6980282447    23.5831705153
H       8.6263825045     3.0520438026    23.4140013452
H       6.8252110852     2.8168486240    21.7962560454
H       6.9972085049     4.6105257513    19.9052297423
H       7.9500542029     4.1197458981    25.4136531460
O       2.4495208429     1.4160392925    18.9959433993
H       2.5227018795     1.3938989881    19.9640095119
80
Step 3 | NEB Image 3 | Cartesian Angstrom
Ni      1.2286002602     0.7093246781    11.2498982517
Ni      2.4572274709     2.8374250523    11.2497875202
Ni      3.6858803143     4.9655653605    11.2497069121
Ni      4.9145567899     7.0937035094    11.2497212928
Ni      3.6859077646     0.7092943275    11.2498122155
Ni      4.9145645910     2.8374079468    11.2496730254
Ni      6.1432427208     4.9655656555    11.2496189117
Ni      7.3719203560     7.0937059857    11.2496878142
Ni      6.1432475354     0.7092739485    11.2497515153
Ni      7.3719321093     2.8374005920    11.2496421079
Ni      8.6006141044     4.9655579257    11.2496437803
Ni      9.8292701067     7.0936858538    11.2497464870
Ni      8.6005958141     0.7092765346    11.2497573605
Ni      9.8292840131     2.8374076521    11.2497094820
Ni     11.0579462025     4.9655486309    11.2497536408
Ni     12.2865772928     7.0936585936    11.2498436441
Ni     14.7392061831     8.5053935851    13.3010710621
Ni     11.0533789860     2.1205240347    13.3003046254
Ni     12.2819651713     4.2489779081    13.3002042587
Ni     13.5103662192     6.3773985347    13.3007232435
Ni      7.3672981457     8.5050151489    13.3006262331
Ni      3.6812138048     2.1206250600    13.3000436847
Ni      4.9097779332     4.2493742259    13.2998710923
Ni      6.1381812769     6.3777341033    13.3001868200
Ni      9.8242460427     8.5049018841    13.3006579149
Ni      6.1383558010     2.1205626447    13.2998744522
Ni      7.3670052989     4.2490399221    13.2996882547
Ni      8.5955668703     6.3769438563    13.3001026415
Ni     12.2818015940     8.5052661153    13.3003769295
Ni      8.5960386941     2.1204057143    13.3002378117
Ni      9.8247394892     4.2486995370    13.2999194342
Ni     11.0530953990     6.3770692951    13.3001564482
Cu      2.4473438328     1.4018715121    15.3756148412
Cu      3.6755084101     3.5308373423    15.3732497315
Cu      4.9034734732     5.6609300927    15.3738402097
Cu      6.1328564181     7.7890492649    15.3766595941
Cu      4.9045265527     1.4014242394    15.3753984794
Cu      6.1327764457     3.5310319175    15.3731547037
Cu      7.3614330197     5.6608967795    15.3738973785
Cu      8.5910744881     7.7878780923    15.3768566125
Cu      7.3626156970     1.4026358241    15.3738531174
Cu      8.5914522877     3.5316198383    15.3745256873
Cu      9.8201933373     5.6602646350    15.3743791194
Cu     11.0494187426     7.7879642764    15.3768742468
Cu      9.8203522760     1.4034751569    15.3759329105
Cu     11.0488694804     3.5313118279    15.3756804580
Cu     12.2771828679     5.6597517914    15.3763462822
Cu     13.5057166362     7.7884563862    15.3769994197
Cu      1.2137838081     0.6833869467    17.5697789549
Cu      2.4375006948     2.8189310302    17.5398862890
Cu      3.6601468567     4.9468983681    17.5507258729
Cu      4.8965567857     7.0750828756    17.5651348390
Cu      3.6707533596     0.6799225761    17.5688373659
Cu      4.8937313237     2.7986103102    17.5328953613
Cu      6.1300597323     4.9534341946    17.5344609931
Cu      7.3556238849     7.0777380726    17.5613396960
Cu      6.1303876845     0.6778818389    17.5632801762
Cu      7.3636323135     2.8071171665    17.5496210696
Cu      8.5980096475     4.9462840094    17.5328588264
Cu      9.8181928391     7.0735184493    17.5648142665
Cu      8.5887321614     0.6816587493    17.5620710634
Cu      9.8200722256     2.8100341840    17.5663589105
Cu     11.0469736835     4.9420822625    17.5646005650
Cu     12.2740320566     7.0698883090    17.5709659277
O       5.8900394500     3.4227649040    21.4831645022
O       7.4049318370     4.2852076128    19.6104681203
O       6.3746958914     4.2524224400    24.2500913901
C       6.9055300761     4.3428592893    21.9259362197
C       8.0369825988     4.3820274686    20.8947713329
C       7.4233661250     4.0361494915    23.3135625130
H       6.3908973895     5.3142242553    21.9326474941
H       8.7471360031     3.5447559828    21.0161281983
H       8.5966235695     5.3259907803    20.9238548462
H       8.2956466391     4.6910459259    23.5123101053
H       7.7863354269     2.9862462485    23.3338706755
H       6.2172274159     2.5071276647    21.5669953236
H       6.5388557950     3.8259882670    19.7901989741
H       6.6991015815     4.0394266920    25.1358162951
O       3.2343475905     1.8702461409    19.1265568341
H       2.5682800547     1.5163454359    19.7483015807
80
Step 4 | NEB Image 4 | Cartesian Angstrom
Ni      1.2286060319     0.7093292081    11.2499077608
Ni      2.4572361631     2.8374284570    11.2498098932
Ni      3.6858885680     4.9655624743    11.2497386958
Ni      4.9145616471     7.0936946518    11.2497505650
Ni      3.6859129695     0.7093021481    11.2498300208
Ni      4.9145690895     2.8374133187    11.2497063247
Ni      6.1432439642     4.9655631088    11.2496577209
Ni      7.3719187597     7.0936976044    11.2497188996
Ni      6.1432487866     0.7092834205    11.2497742996
Ni      7.3719299504     2.8374062944    11.2496761979
Ni      8.6006087929     4.9655563567    11.2496778434
Ni      9.8292640206     7.0936797485    11.2497709426
Ni      8.6005928085     0.7092850854    11.2497789317
Ni      9.8292774580     2.8374121188    11.2497361767
Ni     11.0579381431     4.9655476929    11.2497768845
Ni     12.2865704482     7.0936549487    11.2498587441
Ni     14.7391980441     8.5053890276    13.3010810559
Ni     11.0533604449     2.1205372312    13.3003503877
Ni     12.2819444601     4.2489794044    13.3002426121
Ni     13.5103514222     6.3773939462    13.3007451797
Ni      7.3672958605     8.5049865933    13.3006810371
Ni      3.6812336144     2.1206471129    13.3001138802
Ni      4.9097934535     4.2493725051    13.2999860267
Ni      6.1381852209     6.3777065392    13.3002841398
Ni      9.8242342317     8.5048816349    13.3007000244
Ni      6.1383571184     2.1205901240    13.2999614314
Ni      7.3669951517     4.2490424835    13.2997979487
Ni      8.5955527416     6.3769242840    13.3001853466
Ni     12.2817891661     8.5052554792    13.3003999303
Ni      8.5960256166     2.1204276532    13.3003089663
Ni      9.8247174973     4.2487031015    13.2999950294
Ni     11.0530749693     6.3770586855    13.3002058652
Cu      2.4474011888     1.4019498752    15.3757151678
Cu      3.6756312703     3.5308472381    15.3736675023
Cu      4.9035629933     5.6607888638    15.3742707610
Cu      6.1328782270     7.7889299475    15.3768466909
Cu      4.9045669142     1.4015741146    15.3756257465
Cu      6.1327504724     3.5311017346    15.3736634351
Cu      7.3613982705     5.6608030447    15.3743043320
Cu      8.5910462249     7.7877867751    15.3770256806
Cu      7.3625947408     1.4027503561    15.3740476779
Cu      8.5913905487     3.5316890002    15.3748406123
Cu      9.8201032019     5.6602205695    15.3746320898
Cu     11.0493730942     7.7879201055    15.3769638967
Cu      9.8203093390     1.4035444062    15.3760699069
Cu     11.0487928316     3.5313379877    15.3758309065
Cu     12.2771253166     5.6597380151    15.3764291414
Cu     13.5056906999     7.7884418611    15.3770293509
Cu      1.2136415439     0.6833158372    17.5695243195
Cu      2.4379866833     2.8176102984    17.5436505801
Cu      3.6623329973     4.9461027387    17.5532499980
Cu      4.8968195652     7.0742818899    17.5658693469
Cu      3.6709453709     0.6800473008    17.5686759755
Cu      4.8960228278     2.8015763165    17.5375977621
Cu      6.1282992928     4.9513502000    17.5391659392
Cu      7.3557330688     7.0770079886    17.5623387622
Cu      6.1304757884     0.6783418109    17.5635309300
Cu      7.3629054275     2.8078058210    17.5510148403
Cu      8.5975077420     4.9464979718    17.5367488415
Cu      9.8179220316     7.0731395191    17.5654531678
Cu      8.5886972842     0.6819735898    17.5624432319
Cu      9.8197121309     2.8104189758    17.5672687743
Cu     11.0465520012     4.9420552102    17.5651406039
Cu     12.2739102946     7.0698222555    17.5710838652
O       6.0345525067     2.9279103048    21.0555447242
O       7.4509071976     4.2528744297    19.0448783313
O       6.1494790787     4.2682918539    23.6887429657
C       6.7544758137     4.1434451166    21.3754273086
C       7.9088038217     4.3528846476    20.4011426830
C       7.2624155237     4.0773413868    22.8102216279
H       6.0467339425     4.9855455228    21.2927990309
H       8.6926664378     3.5916750802    20.5653212619
H       8.3590840967     5.3445340117    20.5668769195
H       8.0254161429     4.8637803068    22.9644240847
H       7.7383125264     3.0945464231    22.9683217005
H       6.4346360302     2.5525963920    20.2450348983
H       4.4024969919     2.9354619953    20.4216375577
H       6.4465836725     4.0942635927    24.6031390041
O       3.5028861444     2.8103020984    20.0012919421
H       3.2912967656     1.8641212160    20.1062996543
80
Step 5 | NEB Image 5 | Cartesian Angstrom
Ni      1.2286497034     0.7093615225    11.2499999440
Ni      2.4572989609     2.8374461750    11.2499999440
Ni      3.6859482184     4.9655308275    11.2499999440
Ni      4.9145974759     7.0936154800    11.2499999440
Ni      3.6859497034     0.7093615225    11.2499999440
Ni      4.9145989609     2.8374461750    11.2499999440
Ni      6.1432482184     4.9655308275    11.2499999440
Ni      7.3718974759     7.0936154800    11.2499999440
Ni      6.1432497034     0.7093615225    11.2499999440
Ni      7.3718989609     2.8374461750    11.2499999440
Ni      8.6005482184     4.9655308275    11.2499999440
Ni      9.8291974759     7.0936154800    11.2499999440
Ni      8.6005497034     0.7093615225    11.2499999440
Ni      9.8291989609     2.8374461750    11.2499999440
Ni     11.0578482184     4.9655308275    11.2499999440
Ni     12.2864974759     7.0936154800    11.2499999440
Ni     14.7391156794     8.5053429999    13.3011712910
Ni     11.0531329642     2.1206495503    13.3008022026
Ni     12.2817169557     4.2489790177    13.3006008466
Ni     13.5101985270     6.3773433856    13.3009432678
Ni      7.3672569131     8.5047181091    13.3011774747
Ni      3.6813641840     2.1207833643    13.3007249066
Ni      4.9098915592     4.2493198517    13.3009123494
Ni      6.1382080000     6.3774560890    13.3011137055
Ni      9.8241033938     8.5046823573    13.3010831736
Ni      6.1383369699     2.1207818321    13.3007716707
Ni      7.3668809566     4.2490234521    13.3008056810
Ni      8.5953896076     6.3767159412    13.3009509974
Ni     12.2816608204     8.5051500252    13.3006066438
Ni      8.5958457422     2.1206092019    13.3010364095
Ni      9.8244550440     4.2487038138    13.3007276120
Ni     11.0528529688     6.3769410074    13.3006611374
Cu      2.4478274055     1.4024593708    15.3768195742
Cu      3.6763308468     3.5307009057    15.3768060474
Cu      4.9041378398     5.6597275336    15.3773448005
Cu      6.1330260451     7.7878910103    15.3784795057
Cu      4.9046987540     1.4026027186    15.3777977550
Cu      6.1325026510     3.5313493756    15.3777258697
Cu      7.3610720952     5.6598451741    15.3779276123
Cu      8.5906751295     7.7868954923    15.3785351588
Cu      7.3621786280     1.4037477983    15.3762151195
Cu      8.5904727564     3.5321453644    15.3780682910
Cu      9.8190628915     5.6596863338    15.3769316534
Cu     11.0489115080     7.7874997832    15.3777154348
Cu      9.8196453802     1.4041813317    15.3774700200
Cu     11.0479045662     3.5315147704    15.3771971651
Cu     12.2765483193     5.6595852924    15.3771299176
Cu     13.5054403579     7.7883030926    15.3772814178
Cu      1.2140125591     0.6836803076    17.5697065574
Cu      2.4431555374     2.8116125893    17.5665702724
Cu      3.6705110760     4.9384343512    17.5687388115
Cu      4.8988742539     7.0688538531    17.5715929661
Cu      3.6716454744     0.6829118137    17.5713989532
Cu      4.8981418913     2.8112417067    17.5722074693
Cu      6.1274353048     4.9410331682    17.5708265763
Cu      7.3554752500     7.0698228126    17.5713297733
Cu      6.1297077779     0.6833063606    17.5689100221
Cu      7.3567237656     2.8135682139    17.5698797004
Cu      8.5851063076     4.9421568820    17.5702368079
Cu      9.8152975701     7.0699596058    17.5700617325
Cu      8.5865082080     0.6855771971    17.5667967496
Cu      9.8144914881     2.8135456562    17.5749499312
Cu     11.0427692018     4.9416447797    17.5690866435
Cu     12.2728600100     7.0692517198    17.5719744219
O       5.4816243728     2.5651691502    20.6539118200
O       7.3508896973     4.2099530947    19.0383354809
O       4.4981563510     3.9587391709    22.9072956728
C       5.9290713561     3.8945947838    20.9960208007
C       7.3297021271     4.1881915565    20.4688911028
C       5.8721709119     4.0116672750    22.5089584937
H       5.2340507257     4.6323215466    20.5533350446
H       8.0432145389     3.4244560240    20.8191443760
H       7.6571223136     5.1738780612    20.8354754738
H       6.3359933253     4.9675285031    22.8148914030
H       6.4497260984     3.1808581747    22.9509168945
H       5.8597578631     2.3152772777    19.7784701378
H       3.6583776659     2.5435355524    20.3168147116
H       4.4610770249     3.8064239805    23.8648388416
O       2.7103082747     2.5416543255    20.0177020144
H       2.4292112216     1.6097423068    20.0822731560
