80
Step 1 | NEB Image 1 | Cartesian Angstrom
Ni      1.2286497034     0.7093615225    11.2499999440
Ni      2.4572989609     2.8374461750    11.2499999440
Ni      3.6859482184     4.9655308275    11.2499999440
Ni      4.9145974759     7.0936154800    11.2499999440
Ni      3.6859497034     0.7093615225    11.2499999440
Ni      4.9145989609     2.8374461750    11.2499999440
Ni      6.1432482184     4.9655308275    11.2499999440
Ni      7.3718974759     7.0936154800    11.2499999440
Ni      6.1432497034     0.7093615225    11.2499999440
Ni      7.3718989609     2.8374461750    11.2499999440
Ni      8.6005482184     4.9655308275    11.2499999440
Ni      9.8291974759     7.0936154800    11.2499999440
Ni      8.6005497034     0.7093615225    11.2499999440
Ni      9.8291989609     2.8374461750    11.2499999440
Ni     11.0578482184     4.9655308275    11.2499999440
Ni     12.2864974759     7.0936154800    11.2499999440
Ni     14.7391156794     8.5053429999    13.3011712910
Ni     11.0531329642     2.1206495503    13.3008022026
Ni     12.2817169557     4.2489790177    13.3006008466
Ni     13.5101985270     6.3773433856    13.3009432678
Ni      7.3672569131     8.5047181091    13.3011774747
Ni      3.6813641840     2.1207833643    13.3007249066
Ni      4.9098915592     4.2493198517    13.3009123494
Ni      6.1382080000     6.3774560890    13.3011137055
Ni      9.8241033938     8.5046823573    13.3010831736
Ni      6.1383369699     2.1207818321    13.3007716707
Ni      7.3668809566     4.2490234521    13.3008056810
Ni      8.5953896076     6.3767159412    13.3009509974
Ni     12.2816608204     8.5051500252    13.3006066438
Ni      8.5958457422     2.1206092019    13.3010364095
Ni      9.8244550440     4.2487038138    13.3007276120
Ni     11.0528529688     6.3769410074    13.3006611374
Cu      2.4478274055     1.4024593708    15.3768195742
Cu      3.6763308468     3.5307009057    15.3768060474
Cu      4.9041378398     5.6597275336    15.3773448005
Cu      6.1330260451     7.7878910103    15.3784795057
Cu      4.9046987540     1.4026027186    15.3777977550
Cu      6.1325026510     3.5313493756    15.3777258697
Cu      7.3610720952     5.6598451741    15.3779276123
Cu      8.5906751295     7.7868954923    15.3785351588
Cu      7.3621786280     1.4037477983    15.3762151195
Cu      8.5904727564     3.5321453644    15.3780682910
Cu      9.8190628915     5.6596863338    15.3769316534
Cu     11.0489115080     7.7874997832    15.3777154348
Cu      9.8196453802     1.4041813317    15.3774700200
Cu     11.0479045662     3.5315147704    15.3771971651
Cu     12.2765483193     5.6595852924    15.3771299176
Cu     13.5054403579     7.7883030926    15.3772814178
Cu      1.2140125591     0.6836803076    17.5697065574
Cu      2.4431555374     2.8116125893    17.5665702724
Cu      3.6705110760     4.9384343512    17.5687388115
Cu      4.8988742539     7.0688538531    17.5715929661
Cu      3.6716454744     0.6829118137    17.5713989532
Cu      4.8981418913     2.8112417067    17.5722074693
Cu      6.1274353048     4.9410331682    17.5708265763
Cu      7.3554752500     7.0698228126    17.5713297733
Cu      6.1297077779     0.6833063606    17.5689100221
Cu      7.3567237656     2.8135682139    17.5698797004
Cu      8.5851063076     4.9421568820    17.5702368079
Cu      9.8152975701     7.0699596058    17.5700617325
Cu      8.5865082080     0.6855771971    17.5667967496
Cu      9.8144914881     2.8135456562    17.5749499312
Cu     11.0427692018     4.9416447797    17.5690866435
Cu     12.2728600100     7.0692517198    17.5719744219
O       7.2288202015     4.2734569284    22.3446828621
O       8.3044696405     5.3171068409    20.0014702420
O       8.8891638945     4.8479579810    24.7349733808
C       8.5251333110     4.9000290628    22.3715153937
C       9.1804211035     4.7744357207    20.9993344800
C       9.4189460410     4.3898719266    23.4895992517
H       8.3072385962     5.9614198807    22.5605187870
H       9.4153356173     3.7172718747    20.7683620669
H      10.1139922737     5.3503076003    20.9408546493
H      10.4461642949     4.7683945991    23.3275539960
H       9.4595638267     3.2836247445    23.4537018323
H       7.3561498138     3.3073831923    22.3295378714
H       7.4071380143     4.9636379387    20.1831718691
H       9.4432595602     4.5017937719    25.4528614775
O       2.4447775074     1.3898406800    19.0162048647
H       2.5328987835     1.2730973609    19.9764139723
80
Step 2 | NEB Image 2 | Cartesian Angstrom
Ni      1.2286130404     0.7093358478    11.2499276676
Ni      2.4572446996     2.8374310909    11.2498534050
Ni      3.6858901715     4.9655517301    11.2497940986
Ni      4.9145561397     7.0936762177    11.2497938148
Ni      3.6859156752     0.7093135862    11.2498684809
Ni      4.9145636590     2.8374152720    11.2497680183
Ni      6.1432295414     4.9655507048    11.2497158914
Ni      7.3719031604     7.0936806940    11.2497571126
Ni      6.1432393021     0.7092953416    11.2498204944
Ni      7.3719102679     2.8374065209    11.2497312695
Ni      8.6005862457     4.9655465023    11.2497209213
Ni      9.8292455649     7.0936679365    11.2497949410
Ni      8.6005750562     0.7092936869    11.2498156377
Ni      9.8292541305     2.8374116681    11.2497712447
Ni     11.0579170965     4.9655415112    11.2497995282
Ni     12.2865563792     7.0936486340    11.2498690159
Ni     14.7391882045     8.5053851481    13.3010812717
Ni     11.0533049272     2.1205392431    13.3003997412
Ni     12.2819018394     4.2489702597    13.3002652578
Ni     13.5103294006     6.3773862869    13.3007496065
Ni      7.3672634225     8.5049418068    13.3007406082
Ni      3.6812541226     2.1206794803    13.3002735673
Ni      4.9097637669     4.2493356455    13.3001906533
Ni      6.1381423220     6.3776473015    13.3004093962
Ni      9.8241988598     8.5048539278    13.3007304784
Ni      6.1383086453     2.1206096538    13.3001417211
Ni      7.3669258636     4.2490104618    13.2999523586
Ni      8.5954951367     6.3768805610    13.3002739189
Ni     12.2817671846     8.5052443518    13.3004069521
Ni      8.5959555321     2.1204370986    13.3004253931
Ni      9.8246451291     4.2486859858    13.3000802294
Ni     11.0530268782     6.3770370082    13.3002387436
Cu      2.4475453464     1.4021099528    15.3758452538
Cu      3.6758447161     3.5307949922    15.3747196112
Cu      4.9033528236     5.6604657386    15.3748460604
Cu      6.1327770589     7.7887525626    15.3770540342
Cu      4.9045511613     1.4019195927    15.3763734950
Cu      6.1323359270     3.5308823612    15.3744877448
Cu      7.3612192190     5.6605794064    15.3747024888
Cu      8.5909054734     7.7876511130    15.3771516817
Cu      7.3623346682     1.4028631368    15.3745165336
Cu      8.5910769321     3.5316580275    15.3753002042
Cu      9.8198168627     5.6600818505    15.3748678443
Cu     11.0492866095     7.7878785106    15.3769669045
Cu      9.8201000860     1.4035849249    15.3762625361
Cu     11.0485955554     3.5313087949    15.3759137791
Cu     12.2770426598     5.6597113887    15.3764131782
Cu     13.5056663590     7.7884350000    15.3770134345
Cu      1.2129251324     0.6827045676    17.5686429281
Cu      2.4404043227     2.8225515923    17.5458969211
Cu      3.6648443137     4.9416221183    17.5610213208
Cu      4.8962132754     7.0731377460    17.5668411848
Cu      3.6727030695     0.6801397288    17.5682590682
Cu      4.8947633791     2.8055272389    17.5564795828
Cu      6.1233704317     4.9489537690    17.5352437579
Cu      7.3549860534     7.0760344057    17.5630289041
Cu      6.1296487712     0.6800993926    17.5658421930
Cu      7.3604427111     2.8060371311    17.5532924070
Cu      8.5919075921     4.9435177561    17.5437567642
Cu      9.8172823772     7.0729459343    17.5651562039
Cu      8.5876273264     0.6825976420    17.5635296253
Cu      9.8181518703     2.8104214843    17.5678131674
Cu     11.0460814181     4.9418417144    17.5645115654
Cu     12.2738734093     7.0698524051    17.5708844235
O       6.5028990099     3.7499205078    21.7502781691
O       7.7044104561     4.8764340258    19.6827781714
O       7.4916155287     4.5966932989    24.3840235328
C       7.6424945425     4.5958039218    22.0177878017
C       8.5525822236     4.5808995514    20.7982190758
C       8.3589564284     4.2526892552    23.3066346160
H       7.2130627681     5.6001802804    22.1108069706
H       9.0376075345     3.5884616838    20.6536453191
H       9.3326018816     5.3458502218    20.8223415071
H       9.3025736237     4.8294669041    23.3434154810
H       8.6178628695     3.1764658895    23.3124311391
H       6.8187806565     2.8359279564    21.6121998207
H       6.8418723724     4.4270654364    19.8728013211
H       7.8879475215     4.2812917325    25.2187264746
O       2.4582549935     1.4239317543    18.9887902417
H       2.4955819765     1.3513375734    19.9816907851
80
Step 3 | NEB Image 3 | Cartesian Angstrom
Ni      1.2286019242     0.7093261262    11.2499020359
Ni      2.4572297252     2.8374258468    11.2497960089
Ni      3.6858816438     4.9655636254    11.2497181718
Ni      4.9145567677     7.0936999980    11.2497306931
Ni      3.6859088144     0.7092968244    11.2498194491
Ni      4.9145645294     2.8374089256    11.2496852772
Ni      6.1432410921     4.9655637599    11.2496314782
Ni      7.3719181920     7.0937027295    11.2496968345
Ni      6.1432465237     0.7092767317    11.2497603950
Ni      7.3719293590     2.8374014006    11.2496536420
Ni      8.6006105653     4.9655564819    11.2496538148
Ni      9.8292669719     7.0936835450    11.2497528271
Ni      8.6005931886     0.7092787776    11.2497648907
Ni      9.8292802065     2.8374082072    11.2497175091
Ni     11.0579424745     4.9655477315    11.2497596460
Ni     12.2865746014     7.0936573072    11.2498469918
Ni     14.7392038420     8.5053924775    13.3010724567
Ni     11.0533695242     2.1205260916    13.3003170438
Ni     12.2819570211     4.2489769723    13.3002123321
Ni     13.5103614476     6.3773969514    13.3007267977
Ni      7.3672937872     8.5050056550    13.3006411632
Ni      3.6812190737     2.1206321150    13.3000732079
Ni      4.9097763547     4.2493693932    13.2999123433
Ni      6.1381764662     6.3777229427    13.3002157611
Ni      9.8242400146     8.5048956571    13.3006674761
Ni      6.1383499356     2.1205688412    13.2999088420
Ni      7.3669952685     4.2490362788    13.2997225254
Ni      8.5955577521     6.3769357245    13.3001250071
Ni     12.2817971516     8.5052632718    13.3003809531
Ni      8.5960281633     2.1204098949    13.3002620707
Ni      9.8247274535     4.2486978901    13.2999404062
Ni     11.0530866051     6.3770651394    13.3001673119
Cu      2.4473696620     1.4019022019    15.3756447962
Cu      3.6755518458     3.5308321804    15.3734381276
Cu      4.9034595118     5.6608704637    15.3739708861
Cu      6.1328467849     7.7890108117    15.3767110599
Cu      4.9045301117     1.4014878396    15.3755228434
Cu      6.1327211880     3.5310141116    15.3733271367
Cu      7.3614059323     5.6608560586    15.3740027317
Cu      8.5910530652     7.7878486748    15.3768954657
Cu      7.3625803921     1.4026655648    15.3739382210
Cu      8.5914047233     3.5316254405    15.3746261082
Cu      9.8201452888     5.6602413030    15.3744431439
Cu     11.0494017087     7.7879530435    15.3768868911
Cu      9.8203203012     1.4034896877    15.3759756845
Cu     11.0488343857     3.5313117671    15.3757113839
Cu     12.2771646825     5.6597465851    15.3763556310
Cu     13.5057100508     7.7884535426    15.3770015309
Cu      1.2136749858     0.6833009759    17.5696341771
Cu      2.4378687392     2.8193665698    17.5406816253
Cu      3.6607592614     4.9462306473    17.5520405737
Cu      4.8965171308     7.0748305552    17.5653565710
Cu      3.6709988620     0.6799511733    17.5687632809
Cu      4.8938878491     2.7995089957    17.5358939013
Cu      6.1292040654     4.9528500980    17.5346157109
Cu      7.3555456579     7.0775167283    17.5615625007
Cu      6.1302965945     0.6781639989    17.5636027598
Cu      7.3632256786     2.8069908179    17.5500958797
Cu      8.5972424943     4.9459415918    17.5342652448
Cu      9.8180759981     7.0734424459    17.5648646661
Cu      8.5885939405     0.6817796705    17.5622574946
Cu      9.8198283448     2.8100871581    17.5665513292
Cu     11.0468572814     4.9420519325    17.5645960176
Cu     12.2740107923     7.0698830295    17.5709571933
O       6.0756568293     3.4210532048    21.0883421627
O       7.6330932723     4.5838174771    19.2799780375
O       6.4740154734     4.4002320011    23.8787505127
C       7.1249328611     4.4730901241    21.5743221895
C       8.2321382787     4.4733767249    20.5352870191
C       7.5516631468     4.1632887816    22.9897915653
H       6.5276487974     5.3853486402    21.5329662678
H       8.8371938928     3.5442177260    20.6290278390
H       8.9168689316     5.3155552191    20.7737239662
H       8.3978278293     4.8582825534    23.1819033766
H       7.9537855657     3.1386552677    23.0754858659
H       6.5381379368     2.5711222760    20.8338196656
H       5.7482088464     3.7451571326    20.1651947276
H       6.7776364710     4.1770469170    24.8030473628
O       3.0021940916     1.8011311321    19.1951324633
H       2.3330877790     1.3495368994    19.7644007478
80
Step 4 | NEB Image 4 | Cartesian Angstrom
Ni      1.2286148341     0.7093358146    11.2499200453
Ni      2.4572499543     2.8374340473    11.2498396781
Ni      3.6859033881     4.9655599928    11.2497827093
Ni      4.9145720796     7.0936831802    11.2497931626
Ni      3.6859218657     0.7093135597    11.2498527083
Ni      4.9145788389     2.8374227231    11.2497514693
Ni      6.1432500862     4.9655616948    11.2497139771
Ni      7.3719199485     7.0936866085    11.2497661823
Ni      6.1432536131     0.7092977544    11.2498041325
Ni      7.3719311831     2.8374167673    11.2497245593
Ni      8.6006049620     4.9655560724    11.2497293361
Ni      9.8292576738     7.0936716042    11.2498097494
Ni      8.6005919652     0.7092985983    11.2498090405
Ni      9.8292715371     2.8374204886    11.2497761837
Ni     11.0579288387     4.9655475998    11.2498138122
Ni     12.2865615371     7.0936498911    11.2498839109
Ni     14.7391856204     8.5053816384    13.3010994584
Ni     11.0533409222     2.1205610730    13.3004218254
Ni     12.2819175083     4.2489845939    13.3003074486
Ni     13.5103299311     6.3773875021    13.3007845240
Ni      7.3673002428     8.5049457268    13.3007664659
Ni      3.6812647654     2.1206792624    13.3002011855
Ni      4.9098299947     4.2493791027    13.3001440501
Ni      6.1382038837     6.3776713369    13.3004306784
Ni      9.8242217970     8.5048515814    13.3007697279
Ni      6.1383724080     2.1206357014    13.3000742735
Ni      7.3669947857     4.2490557076    13.2999596114
Ni      8.5955419229     6.3768997285    13.3003146198
Ni     12.2817720404     8.5052387846    13.3004405528
Ni      8.5960200494     2.1204656713    13.3004095170
Ni      9.8246960701     4.2487142251    13.3001120643
Ni     11.0530499886     6.3770448378    13.3002884234
Cu      2.4474688970     1.4020521631    15.3758659792
Cu      3.6758015945     3.5308793735    15.3741601214
Cu      4.9037840888     5.6606137008    15.3749134494
Cu      6.1329453425     7.7887566030    15.3771372852
Cu      4.9046456440     1.4017593199    15.3758472099
Cu      6.1328124454     3.5312888776    15.3743844862
Cu      7.3613815743     5.6606892215    15.3749504156
Cu      8.5910313510     7.7876540841    15.3773045482
Cu      7.3626250107     1.4029319961    15.3742826987
Cu      8.5913596898     3.5318249642    15.3753004157
Cu      9.8200126572     5.6601759678    15.3750368239
Cu     11.0493117150     7.7878495495    15.3771286915
Cu      9.8202855292     1.4036615702    15.3762718630
Cu     11.0487035761     3.5313940503    15.3760868205
Cu     12.2770409361     5.6597196307    15.3765864250
Cu     13.5056492488     7.7884168514    15.3770888582
Cu      1.2135687783     0.6833466153    17.5692877497
Cu      2.4382431330     2.8138602092    17.5500078270
Cu      3.6657049586     4.9458215068    17.5558511601
Cu      4.8974657501     7.0731058432    17.5669683022
Cu      3.6708338479     0.6802531658    17.5684884454
Cu      4.9005895121     2.8060069492    17.5412756294
Cu      6.1263548420     4.9481364423    17.5488967274
Cu      7.3561328709     7.0759176675    17.5640010971
Cu      6.1308578719     0.6787252701    17.5633810905
Cu      7.3622159705     2.8095469401    17.5529852088
Cu      8.5980659772     4.9476836139    17.5420754175
Cu      9.8175914753     7.0724909395    17.5667120473
Cu      8.5889166434     0.6823896178    17.5628425257
Cu      9.8194608208     2.8111290607    17.5688049995
Cu     11.0458979213     4.9420618664    17.5663049491
Cu     12.2736951707     7.0696922512    17.5713546050
O       5.7419405950     2.9766478602    20.8467126775
O       7.4843708382     4.2876819485    19.1120688532
O       5.6344518133     4.2328370987    23.5445909574
C       6.5399824811     4.2212646110    21.3173182604
C       7.8080867008     4.3004198430    20.4746541928
C       6.8364291141     4.0963123973    22.7951473245
H       5.8785053384     5.0679097118    21.1075534154
H       8.4908386156     3.4627029651    20.7220951537
H       8.3361673660     5.2320254557    20.7608787326
H       7.5520172309     4.9118283401    23.0351981965
H       7.3514432303     3.1417025128    23.0066421265
H       6.2382214445     2.5248828269    20.1033271713
H       4.7875150821     3.0761549054    20.4288856142
H       5.8223141926     4.0273909654    24.4749857227
O       3.3176653873     2.4188631685    19.4545771465
H       2.7153850172     1.7543796382    19.8497137051
80
Step 5 | NEB Image 5 | Cartesian Angstrom
Ni      1.2286497034     0.7093615225    11.2499999440
Ni      2.4572989609     2.8374461750    11.2499999440
Ni      3.6859482184     4.9655308275    11.2499999440
Ni      4.9145974759     7.0936154800    11.2499999440
Ni      3.6859497034     0.7093615225    11.2499999440
Ni      4.9145989609     2.8374461750    11.2499999440
Ni      6.1432482184     4.9655308275    11.2499999440
Ni      7.3718974759     7.0936154800    11.2499999440
Ni      6.1432497034     0.7093615225    11.2499999440
Ni      7.3718989609     2.8374461750    11.2499999440
Ni      8.6005482184     4.9655308275    11.2499999440
Ni      9.8291974759     7.0936154800    11.2499999440
Ni      8.6005497034     0.7093615225    11.2499999440
Ni      9.8291989609     2.8374461750    11.2499999440
Ni     11.0578482184     4.9655308275    11.2499999440
Ni     12.2864974759     7.0936154800    11.2499999440
Ni     14.7391156794     8.5053429999    13.3011712910
Ni     11.0531329642     2.1206495503    13.3008022026
Ni     12.2817169557     4.2489790177    13.3006008466
Ni     13.5101985270     6.3773433856    13.3009432678
Ni      7.3672569131     8.5047181091    13.3011774747
Ni      3.6813641840     2.1207833643    13.3007249066
Ni      4.9098915592     4.2493198517    13.3009123494
Ni      6.1382080000     6.3774560890    13.3011137055
Ni      9.8241033938     8.5046823573    13.3010831736
Ni      6.1383369699     2.1207818321    13.3007716707
Ni      7.3668809566     4.2490234521    13.3008056810
Ni      8.5953896076     6.3767159412    13.3009509974
Ni     12.2816608204     8.5051500252    13.3006066438
Ni      8.5958457422     2.1206092019    13.3010364095
Ni      9.8244550440     4.2487038138    13.3007276120
Ni     11.0528529688     6.3769410074    13.3006611374
Cu      2.4478274055     1.4024593708    15.3768195742
Cu      3.6763308468     3.5307009057    15.3768060474
Cu      4.9041378398     5.6597275336    15.3773448005
Cu      6.1330260451     7.7878910103    15.3784795057
Cu      4.9046987540     1.4026027186    15.3777977550
Cu      6.1325026510     3.5313493756    15.3777258697
Cu      7.3610720952     5.6598451741    15.3779276123
Cu      8.5906751295     7.7868954923    15.3785351588
Cu      7.3621786280     1.4037477983    15.3762151195
Cu      8.5904727564     3.5321453644    15.3780682910
Cu      9.8190628915     5.6596863338    15.3769316534
Cu     11.0489115080     7.7874997832    15.3777154348
Cu      9.8196453802     1.4041813317    15.3774700200
Cu     11.0479045662     3.5315147704    15.3771971651
Cu     12.2765483193     5.6595852924    15.3771299176
Cu     13.5054403579     7.7883030926    15.3772814178
Cu      1.2140125591     0.6836803076    17.5697065574
Cu      2.4431555374     2.8116125893    17.5665702724
Cu      3.6705110760     4.9384343512    17.5687388115
Cu      4.8988742539     7.0688538531    17.5715929661
Cu      3.6716454744     0.6829118137    17.5713989532
Cu      4.8981418913     2.8112417067    17.5722074693
Cu      6.1274353048     4.9410331682    17.5708265763
Cu      7.3554752500     7.0698228126    17.5713297733
Cu      6.1297077779     0.6833063606    17.5689100221
Cu      7.3567237656     2.8135682139    17.5698797004
Cu      8.5851063076     4.9421568820    17.5702368079
Cu      9.8152975701     7.0699596058    17.5700617325
Cu      8.5865082080     0.6855771971    17.5667967496
Cu      9.8144914881     2.8135456562    17.5749499312
Cu     11.0427692018     4.9416447797    17.5690866435
Cu     12.2728600100     7.0692517198    17.5719744219
O       5.4816243728     2.5651691502    20.6539118200
O       7.3508896973     4.2099530947    19.0383354809
O       4.4981563510     3.9587391709    22.9072956728
C       5.9290713561     3.8945947838    20.9960208007
C       7.3297021271     4.1881915565    20.4688911028
C       5.8721709119     4.0116672750    22.5089584937
H       5.2340507257     4.6323215466    20.5533350446
H       8.0432145389     3.4244560240    20.8191443760
H       7.6571223136     5.1738780612    20.8354754738
H       6.3359933253     4.9675285031    22.8148914030
H       6.4497260984     3.1808581747    22.9509168945
H       5.8597578631     2.3152772777    19.7784701378
H       3.6583776659     2.5435355524    20.3168147116
H       4.4610770249     3.8064239805    23.8648388416
O       2.7103082747     2.5416543255    20.0177020144
H       2.4292112216     1.6097423068    20.0822731560
