80
Step 1 | NEB Image 1 | Cartesian Angstrom
Ni      1.2286497034     0.7093615225    11.2499999440
Ni      2.4572989609     2.8374461750    11.2499999440
Ni      3.6859482184     4.9655308275    11.2499999440
Ni      4.9145974759     7.0936154800    11.2499999440
Ni      3.6859497034     0.7093615225    11.2499999440
Ni      4.9145989609     2.8374461750    11.2499999440
Ni      6.1432482184     4.9655308275    11.2499999440
Ni      7.3718974759     7.0936154800    11.2499999440
Ni      6.1432497034     0.7093615225    11.2499999440
Ni      7.3718989609     2.8374461750    11.2499999440
Ni      8.6005482184     4.9655308275    11.2499999440
Ni      9.8291974759     7.0936154800    11.2499999440
Ni      8.6005497034     0.7093615225    11.2499999440
Ni      9.8291989609     2.8374461750    11.2499999440
Ni     11.0578482184     4.9655308275    11.2499999440
Ni     12.2864974759     7.0936154800    11.2499999440
Ni     14.7391156794     8.5053429999    13.3011712910
Ni     11.0531329642     2.1206495503    13.3008022026
Ni     12.2817169557     4.2489790177    13.3006008466
Ni     13.5101985270     6.3773433856    13.3009432678
Ni      7.3672569131     8.5047181091    13.3011774747
Ni      3.6813641840     2.1207833643    13.3007249066
Ni      4.9098915592     4.2493198517    13.3009123494
Ni      6.1382080000     6.3774560890    13.3011137055
Ni      9.8241033938     8.5046823573    13.3010831736
Ni      6.1383369699     2.1207818321    13.3007716707
Ni      7.3668809566     4.2490234521    13.3008056810
Ni      8.5953896076     6.3767159412    13.3009509974
Ni     12.2816608204     8.5051500252    13.3006066438
Ni      8.5958457422     2.1206092019    13.3010364095
Ni      9.8244550440     4.2487038138    13.3007276120
Ni     11.0528529688     6.3769410074    13.3006611374
Cu      2.4478274055     1.4024593708    15.3768195742
Cu      3.6763308468     3.5307009057    15.3768060474
Cu      4.9041378398     5.6597275336    15.3773448005
Cu      6.1330260451     7.7878910103    15.3784795057
Cu      4.9046987540     1.4026027186    15.3777977550
Cu      6.1325026510     3.5313493756    15.3777258697
Cu      7.3610720952     5.6598451741    15.3779276123
Cu      8.5906751295     7.7868954923    15.3785351588
Cu      7.3621786280     1.4037477983    15.3762151195
Cu      8.5904727564     3.5321453644    15.3780682910
Cu      9.8190628915     5.6596863338    15.3769316534
Cu     11.0489115080     7.7874997832    15.3777154348
Cu      9.8196453802     1.4041813317    15.3774700200
Cu     11.0479045662     3.5315147704    15.3771971651
Cu     12.2765483193     5.6595852924    15.3771299176
Cu     13.5054403579     7.7883030926    15.3772814178
Cu      1.2140125591     0.6836803076    17.5697065574
Cu      2.4431555374     2.8116125893    17.5665702724
Cu      3.6705110760     4.9384343512    17.5687388115
Cu      4.8988742539     7.0688538531    17.5715929661
Cu      3.6716454744     0.6829118137    17.5713989532
Cu      4.8981418913     2.8112417067    17.5722074693
Cu      6.1274353048     4.9410331682    17.5708265763
Cu      7.3554752500     7.0698228126    17.5713297733
Cu      6.1297077779     0.6833063606    17.5689100221
Cu      7.3567237656     2.8135682139    17.5698797004
Cu      8.5851063076     4.9421568820    17.5702368079
Cu      9.8152975701     7.0699596058    17.5700617325
Cu      8.5865082080     0.6855771971    17.5667967496
Cu      9.8144914881     2.8135456562    17.5749499312
Cu     11.0427692018     4.9416447797    17.5690866435
Cu     12.2728600100     7.0692517198    17.5719744219
O       7.2288202015     4.2734569284    22.3446828621
O       8.3044696405     5.3171068409    20.0014702420
O       8.8891638945     4.8479579810    24.7349733808
C       8.5251333110     4.9000290628    22.3715153937
C       9.1804211035     4.7744357207    20.9993344800
C       9.4189460410     4.3898719266    23.4895992517
H       8.3072385962     5.9614198807    22.5605187870
H       9.4153356173     3.7172718747    20.7683620669
H      10.1139922737     5.3503076003    20.9408546493
H      10.4461642949     4.7683945991    23.3275539960
H       9.4595638267     3.2836247445    23.4537018323
H       7.3561498138     3.3073831923    22.3295378714
H       7.4071380143     4.9636379387    20.1831718691
H       9.4432595602     4.5017937719    25.4528614775
O       2.4447775074     1.3898406800    19.0162048647
H       2.5328987835     1.2730973609    19.9764139723
80
Step 2 | NEB Image 2 | Cartesian Angstrom
Ni      1.2286142852     0.7093369351    11.2499305280
Ni      2.4572463788     2.8374316798    11.2498598130
Ni      3.6858911362     4.9655504066    11.2498025810
Ni      4.9145560828     7.0936735638    11.2498008740
Ni      3.6859164477     0.7093154609    11.2498739517
Ni      4.9145635742     2.8374159881    11.2497772585
Ni      6.1432282666     4.9655492539    11.2497253308
Ni      7.3719014932     7.0936782344    11.2497638619
Ni      6.1432385064     0.7092974250    11.2498272024
Ni      7.3719081501     2.8374071021    11.2497399460
Ni      8.6005835413     4.9655453941    11.2497284337
Ni      9.8292431808     7.0936661939    11.2497996634
Ni      8.6005730423     0.7092953585    11.2498213079
Ni      9.8292512286     2.8374120625    11.2497772588
Ni     11.0579142679     4.9655408206    11.2498040006
Ni     12.2865543455     7.0936476650    11.2498714915
Ni     14.7391864534     8.5053843254    13.3010822727
Ni     11.0532977325     2.1205407322    13.3004090087
Ni     12.2818956808     4.2489695208    13.3002712123
Ni     13.5103258168     6.3773850952    13.3007521865
Ni      7.3672600570     8.5049346691    13.3007517520
Ni      3.6812580515     2.1206847776    13.3002959158
Ni      4.9097624142     4.2493319073    13.3002217415
Ni      6.1381385544     6.3776388616    13.3004310707
Ni      9.8241942760     8.5048492587    13.3007375574
Ni      6.1383040803     2.1206142401    13.3001677108
Ni      7.3669181585     4.2490076120    13.2999780698
Ni      8.5954881726     6.3768744073    13.3002906076
Ni     12.2817638370     8.5052422311    13.3004098879
Ni      8.5959474625     2.1204401650    13.3004436464
Ni      9.8246359641     4.2486846779    13.3000958942
Ni     11.0530202175     6.3770338684    13.3002467741
Cu      2.4475649319     1.4021331402    15.3758676909
Cu      3.6758774357     3.5307909032    15.3748624704
Cu      4.9033412504     5.6604205961    15.3749439986
Cu      6.1327694007     7.7887236826    15.3770924628
Cu      4.9045535943     1.4019677479    15.3764681963
Cu      6.1322932350     3.5308679643    15.3746174648
Cu      7.3611984716     5.6605485562    15.3747809582
Cu      8.5908890710     7.7876290195    15.3771804650
Cu      7.3623074275     1.4028852911    15.3745810191
Cu      8.5910405063     3.5316618112    15.3753755974
Cu      9.8197802936     5.6600640952    15.3749154848
Cu     11.0492737573     7.7878701505    15.3769759882
Cu      9.8200756108     1.4035956403    15.3762946262
Cu     11.0485689338     3.5313085334    15.3759365597
Cu     12.2770290110     5.6597074591    15.3764197587
Cu     13.5056614582     7.7884329110    15.3770148287
Cu      1.2128418023     0.6826383981    17.5685326006
Cu      2.4406861107     2.8229005785    17.5464836385
Cu      3.6653019151     4.9411101827    17.5620214504
Cu      4.8961803341     7.0729483904    17.5670073344
Cu      3.6728921170     0.6801609119    17.5682028664
Cu      4.8948661519     2.8062007371    17.5587692898
Cu      6.1227204650     4.9485173111    17.5353253681
Cu      7.3549244204     7.0758685210    17.5631937206
Cu      6.1295773233     0.6803147089    17.5660906090
Cu      7.3601329319     2.8059333901    17.5536496607
Cu      8.5913160477     4.9432501353    17.5448169250
Cu      9.8171938735     7.0728900241    17.5651901057
Cu      8.5875202908     0.6826889533    17.5636713322
Cu      9.8179654581     2.8104594655    17.5679551210
Cu     11.0459944904     4.9418183862    17.5645036132
Cu     12.2738578955     7.0698488466    17.5708766761
O       6.5688042731     3.7958939867    21.7153932976
O       7.6707965367     4.8523121487    19.6955390184
O       7.5706864932     4.6427111018    24.3411920434
C       7.7251552832     4.6369708040    21.9845069925
C       8.6267125072     4.5821167982    20.7685298223
C       8.4369926472     4.2922502215    23.2568662377
H       7.3224602045     5.6494659060    22.0510842247
H       9.1048162401     3.5858440368    20.6810579317
H       9.4575017713     5.3061625217    20.9097524321
H       9.3856467913     4.8462161010    23.2861575123
H       8.6662264252     3.2025151901    23.2781819079
H       6.9085480611     2.8862901491    21.6063910632
H       6.6224596225     4.4239268162    20.0458352174
H       7.9694990184     4.3084513214    25.1591459706
O       2.5228069566     1.6777877287    19.1575653332
H       2.4980716177     1.3279792638    20.0492380339
80
Step 3 | NEB Image 3 | Cartesian Angstrom
Ni      1.2286013723     0.7093257371    11.2499014508
Ni      2.4572288157     2.8374254630    11.2497945034
Ni      3.6858805281     4.9655636206    11.2497157844
Ni      4.9145558609     7.0937005472    11.2497281928
Ni      3.6859081765     0.7092961519    11.2498183996
Ni      4.9145636767     2.8374082347    11.2496829174
Ni      6.1432403553     4.9655636423    11.2496281954
Ni      7.3719178148     7.0937032698    11.2496938800
Ni      6.1432459773     0.7092758421    11.2497589348
Ni      7.3719289037     2.8374005955    11.2496509125
Ni      8.6006104489     4.9655563236    11.2496506240
Ni      9.8292671248     7.0936839583    11.2497502675
Ni      8.6005929291     0.7092778908    11.2497632357
Ni      9.8292802373     2.8374075522    11.2497150593
Ni     11.0579428085     4.9655476256    11.2497572068
Ni     12.2865750326     7.0936575825    11.2498452351
Ni     14.7392046220     8.5053929775    13.3010710388
Ni     11.0533700172     2.1205242862    13.3003124266
Ni     12.2819583241     4.2489764040    13.3002077365
Ni     13.5103627053     6.3773973093    13.3007238386
Ni      7.3672928553     8.5050079935    13.3006356519
Ni      3.6812170419     2.1206302229    13.3000693829
Ni      4.9097729882     4.2493682092    13.2999038759
Ni      6.1381742395     6.3777245792    13.3002067294
Ni      9.8242403284     8.5048974725    13.3006626473
Ni      6.1383478676     2.1205656768    13.2999034206
Ni      7.3669940294     4.2490346713    13.2997128583
Ni      8.5955575343     6.3769368221    13.3001166385
Ni     12.2817980728     8.5052643583    13.3003779427
Ni      8.5960273115     2.1204071300    13.3002564309
Ni      9.8247277855     4.2486967175    13.2999329215
Ni     11.0530876556     6.3770658129    13.3001615341
Cu      2.4473670671     1.4018972263    15.3756355226
Cu      3.6755425893     3.5308287417    15.3734193080
Cu      4.9034385838     5.6608780879    15.3739317496
Cu      6.1328397485     7.7890209612    15.3766923987
Cu      4.9045237402     1.4014798483    15.3755194085
Cu      6.1327088169     3.5309956388    15.3732864998
Cu      7.3614039473     5.6608607630    15.3739600926
Cu      8.5910516400     7.7878564462    15.3768762228
Cu      7.3625732962     1.4026535927    15.3739286373
Cu      8.5914013713     3.5316143683    15.3745989864
Cu      9.8201470476     5.6602422120    15.3744161830
Cu     11.0494048695     7.7879577345    15.3768742127
Cu      9.8203183135     1.4034813757    15.3759636031
Cu     11.0488376739     3.5313069012    15.3756931257
Cu     12.2771696906     5.6597475186    15.3763431860
Cu     13.5057128085     7.7884553496    15.3769966417
Cu      1.2136675043     0.6832874169    17.5696363348
Cu      2.4378931452     2.8197467152    17.5402314993
Cu      3.6605446503     4.9461704218    17.5519817327
Cu      4.8964561114     7.0749004987    17.5652894326
Cu      3.6710396296     0.6799369571    17.5687701454
Cu      4.8935119520     2.7992389149    17.5359550890
Cu      6.1292641554     4.9530545863    17.5337920874
Cu      7.3555011020     7.0775831677    17.5614466783
Cu      6.1302519444     0.6781665178    17.5636566134
Cu      7.3632339059     2.8068239331    17.5499852918
Cu      8.5970969270     4.9457954675    17.5339818520
Cu      9.8180898396     7.0734890197    17.5647619628
Cu      8.5885574202     0.6817589393    17.5622465133
Cu      9.8198192242     2.8100323369    17.5664425851
Cu     11.0468992135     4.9420475131    17.5644945447
Cu     12.2740267399     7.0698936262    17.5709326257
O       6.1473228018     3.3976670387    21.2970709636
O       7.7742274637     4.7004845540    19.3156329623
O       6.5993262093     4.4707113646    23.9756632842
C       7.1685396490     4.4283180399    21.6472212864
C       8.2905102900     4.4731933297    20.6087766965
C       7.6869081319     4.2361282692    23.0578537908
H       6.6093012373     5.3646861536    21.6134472757
H       8.8711977663     3.5279472072    20.6882585457
H       8.9788002005     5.2718443877    20.9398916850
H       8.5234232262     4.9278868203    23.2403477409
H       8.0660166074     3.1904656656    23.1900601929
H       6.6521231759     2.6150657627    21.0383620005
H       5.3999873177     3.7870970767    20.0863714340
H       6.8610555933     4.1638356794    24.8490358860
O       2.6064198208     2.0271307497    19.3520219594
H       2.4570785523     1.3584116185    20.0355461529
80
Step 4 | NEB Image 4 | Cartesian Angstrom
Ni      1.2286154611     0.7093362858    11.2499209254
Ni      2.4572509355     2.8374344445    11.2498418097
Ni      3.6859044386     4.9655598116    11.2497858548
Ni      4.9145728158     7.0936823583    11.2497962017
Ni      3.6859224972     0.7093143738    11.2498543347
Ni      4.9145795267     2.8374233902    11.2497546981
Ni      6.1432505126     4.9655615884    11.2497179911
Ni      7.3719200248     7.0936858211    11.2497695507
Ni      6.1432539502     0.7092987757    11.2498062689
Ni      7.3719312605     2.8374175092    11.2497280126
Ni      8.6006046793     4.9655560473    11.2497330051
Ni      9.8292572149     7.0936710214    11.2498125103
Ni      8.6005918965     0.7092995598    11.2498111917
Ni      9.8292711059     2.8374210813    11.2497790352
Ni     11.0579281691     4.9655475901    11.2498164393
Ni     12.2865608988     7.0936495297    11.2498856987
Ni     14.7391847355     8.5053811131    13.3011007619
Ni     11.0533395114     2.1205627627    13.3004269103
Ni     12.2819155777     4.2489849568    13.3003120524
Ni     13.5103283978     6.3773870418    13.3007873130
Ni      7.3673005368     8.5049428096    13.3007725469
Ni      3.6812669822     2.1206815559    13.3002074500
Ni      4.9098325679     4.2493795514    13.3001553464
Ni      6.1382051839     6.3776688136    13.3004411211
Ni      9.8242208984     8.5048494386    13.3007746804
Ni      6.1383734665     2.1206389395    13.3000823572
Ni      7.3669947248     4.2490566281    13.2999711400
Ni      8.5955411275     6.3768979671    13.3003238210
Ni     12.2817708163     8.5052375965    13.3004434337
Ni      8.5960196196     2.1204683689    13.3004166978
Ni      9.8246945158     4.2487150044    13.3001203969
Ni     11.0530481949     6.3770438460    13.3002942877
Cu      2.4474737656     1.4020594890    15.3758767270
Cu      3.6758137665     3.5308816232    15.3741955455
Cu      4.9037996428     5.6606011306    15.3749592620
Cu      6.1329500452     7.7887442353    15.3771579728
Cu      4.9046512125     1.4017726126    15.3758632741
Cu      6.1328166255     3.5313020221    15.3744359750
Cu      7.3613803012     5.6606810463    15.3749963791
Cu      8.5910302263     7.7876446170    15.3773243641
Cu      7.3626270233     1.4029449187    15.3742995822
Cu      8.5913573455     3.5318345789    15.3753332159
Cu      9.8200060992     5.6601727385    15.3750656105
Cu     11.0493073238     7.7878445310    15.3771403655
Cu      9.8202837370     1.4036698894    15.3762862649
Cu     11.0486971544     3.5313980065    15.3761049889
Cu     12.2770349176     5.6597183151    15.3765975574
Cu     13.5056463005     7.7884150765    15.3770930651
Cu      1.2135632622     0.6833484864    17.5692705480
Cu      2.4382625192     2.8135970866    17.5504592476
Cu      3.6659450646     4.9457993227    17.5560393285
Cu      4.8975112132     7.0730219653    17.5670466326
Cu      3.6708268370     0.6802677940    17.5684749519
Cu      4.9009123349     2.8063227687    17.5415456760
Cu      6.1262146251     4.9479076000    17.5495839794
Cu      7.3561608115     7.0758399478    17.5641191895
Cu      6.1308845170     0.6787533188    17.5633716454
Cu      7.3621658915     2.8096693701    17.5531259215
Cu      8.5981026870     4.9477660871    17.5424562418
Cu      9.8175677386     7.0724449026    17.5668010640
Cu      8.5889316399     0.6824194006    17.5628713568
Cu      9.8194422319     2.8111793574    17.5689140858
Cu     11.0458513548     4.9420622300    17.5663871020
Cu     12.2736799148     7.0696830582    17.5713736808
O       5.7687214808     3.0032179900    20.9582154909
O       7.5807529398     4.4377978296    19.1598031773
O       5.6550439889     4.2662625927    23.5315273288
C       6.6179767699     4.2097226553    21.3667405985
C       7.8964466956     4.3414772471    20.5390908958
C       6.9122993841     4.1621740871    22.8499676627
H       5.9789891556     5.0605221253    21.1471092548
H       8.5702500788     3.4865388052    20.7475318097
H       8.4251069301     5.2446796064    20.9095681353
H       7.5925044557     4.9848715435    23.1138151645
H       7.4061033012     3.1925040679    23.1003371432
H       6.3406239552     2.4717140080    20.4044470672
H       4.5799535857     3.1241078533    20.2490789666
H       5.7950633100     4.0055121184    24.4604710279
O       2.7595447523     2.3443320256    19.6206190836
H       2.4825047925     1.4923610728    20.0604296573
80
Step 5 | NEB Image 5 | Cartesian Angstrom
Ni      1.2286497034     0.7093615225    11.2499999440
Ni      2.4572989609     2.8374461750    11.2499999440
Ni      3.6859482184     4.9655308275    11.2499999440
Ni      4.9145974759     7.0936154800    11.2499999440
Ni      3.6859497034     0.7093615225    11.2499999440
Ni      4.9145989609     2.8374461750    11.2499999440
Ni      6.1432482184     4.9655308275    11.2499999440
Ni      7.3718974759     7.0936154800    11.2499999440
Ni      6.1432497034     0.7093615225    11.2499999440
Ni      7.3718989609     2.8374461750    11.2499999440
Ni      8.6005482184     4.9655308275    11.2499999440
Ni      9.8291974759     7.0936154800    11.2499999440
Ni      8.6005497034     0.7093615225    11.2499999440
Ni      9.8291989609     2.8374461750    11.2499999440
Ni     11.0578482184     4.9655308275    11.2499999440
Ni     12.2864974759     7.0936154800    11.2499999440
Ni     14.7391156794     8.5053429999    13.3011712910
Ni     11.0531329642     2.1206495503    13.3008022026
Ni     12.2817169557     4.2489790177    13.3006008466
Ni     13.5101985270     6.3773433856    13.3009432678
Ni      7.3672569131     8.5047181091    13.3011774747
Ni      3.6813641840     2.1207833643    13.3007249066
Ni      4.9098915592     4.2493198517    13.3009123494
Ni      6.1382080000     6.3774560890    13.3011137055
Ni      9.8241033938     8.5046823573    13.3010831736
Ni      6.1383369699     2.1207818321    13.3007716707
Ni      7.3668809566     4.2490234521    13.3008056810
Ni      8.5953896076     6.3767159412    13.3009509974
Ni     12.2816608204     8.5051500252    13.3006066438
Ni      8.5958457422     2.1206092019    13.3010364095
Ni      9.8244550440     4.2487038138    13.3007276120
Ni     11.0528529688     6.3769410074    13.3006611374
Cu      2.4478274055     1.4024593708    15.3768195742
Cu      3.6763308468     3.5307009057    15.3768060474
Cu      4.9041378398     5.6597275336    15.3773448005
Cu      6.1330260451     7.7878910103    15.3784795057
Cu      4.9046987540     1.4026027186    15.3777977550
Cu      6.1325026510     3.5313493756    15.3777258697
Cu      7.3610720952     5.6598451741    15.3779276123
Cu      8.5906751295     7.7868954923    15.3785351588
Cu      7.3621786280     1.4037477983    15.3762151195
Cu      8.5904727564     3.5321453644    15.3780682910
Cu      9.8190628915     5.6596863338    15.3769316534
Cu     11.0489115080     7.7874997832    15.3777154348
Cu      9.8196453802     1.4041813317    15.3774700200
Cu     11.0479045662     3.5315147704    15.3771971651
Cu     12.2765483193     5.6595852924    15.3771299176
Cu     13.5054403579     7.7883030926    15.3772814178
Cu      1.2140125591     0.6836803076    17.5697065574
Cu      2.4431555374     2.8116125893    17.5665702724
Cu      3.6705110760     4.9384343512    17.5687388115
Cu      4.8988742539     7.0688538531    17.5715929661
Cu      3.6716454744     0.6829118137    17.5713989532
Cu      4.8981418913     2.8112417067    17.5722074693
Cu      6.1274353048     4.9410331682    17.5708265763
Cu      7.3554752500     7.0698228126    17.5713297733
Cu      6.1297077779     0.6833063606    17.5689100221
Cu      7.3567237656     2.8135682139    17.5698797004
Cu      8.5851063076     4.9421568820    17.5702368079
Cu      9.8152975701     7.0699596058    17.5700617325
Cu      8.5865082080     0.6855771971    17.5667967496
Cu      9.8144914881     2.8135456562    17.5749499312
Cu     11.0427692018     4.9416447797    17.5690866435
Cu     12.2728600100     7.0692517198    17.5719744219
O       5.4816243728     2.5651691502    20.6539118200
O       7.3508896973     4.2099530947    19.0383354809
O       4.4981563510     3.9587391709    22.9072956728
C       5.9290713561     3.8945947838    20.9960208007
C       7.3297021271     4.1881915565    20.4688911028
C       5.8721709119     4.0116672750    22.5089584937
H       5.2340507257     4.6323215466    20.5533350446
H       8.0432145389     3.4244560240    20.8191443760
H       7.6571223136     5.1738780612    20.8354754738
H       6.3359933253     4.9675285031    22.8148914030
H       6.4497260984     3.1808581747    22.9509168945
H       5.8597578631     2.3152772777    19.7784701378
H       3.6583776659     2.5435355524    20.3168147116
H       4.4610770249     3.8064239805    23.8648388416
O       2.7103082747     2.5416543255    20.0177020144
H       2.4292112216     1.6097423068    20.0822731560
