80
Step 1 | NEB Image 1 | Cartesian Angstrom
Ni      1.2286497034     0.7093615225    11.2499999440
Ni      2.4572989609     2.8374461750    11.2499999440
Ni      3.6859482184     4.9655308275    11.2499999440
Ni      4.9145974759     7.0936154800    11.2499999440
Ni      3.6859497034     0.7093615225    11.2499999440
Ni      4.9145989609     2.8374461750    11.2499999440
Ni      6.1432482184     4.9655308275    11.2499999440
Ni      7.3718974759     7.0936154800    11.2499999440
Ni      6.1432497034     0.7093615225    11.2499999440
Ni      7.3718989609     2.8374461750    11.2499999440
Ni      8.6005482184     4.9655308275    11.2499999440
Ni      9.8291974759     7.0936154800    11.2499999440
Ni      8.6005497034     0.7093615225    11.2499999440
Ni      9.8291989609     2.8374461750    11.2499999440
Ni     11.0578482184     4.9655308275    11.2499999440
Ni     12.2864974759     7.0936154800    11.2499999440
Ni     14.7391156794     8.5053429999    13.3011712910
Ni     11.0531329642     2.1206495503    13.3008022026
Ni     12.2817169557     4.2489790177    13.3006008466
Ni     13.5101985270     6.3773433856    13.3009432678
Ni      7.3672569131     8.5047181091    13.3011774747
Ni      3.6813641840     2.1207833643    13.3007249066
Ni      4.9098915592     4.2493198517    13.3009123494
Ni      6.1382080000     6.3774560890    13.3011137055
Ni      9.8241033938     8.5046823573    13.3010831736
Ni      6.1383369699     2.1207818321    13.3007716707
Ni      7.3668809566     4.2490234521    13.3008056810
Ni      8.5953896076     6.3767159412    13.3009509974
Ni     12.2816608204     8.5051500252    13.3006066438
Ni      8.5958457422     2.1206092019    13.3010364095
Ni      9.8244550440     4.2487038138    13.3007276120
Ni     11.0528529688     6.3769410074    13.3006611374
Cu      2.4478274055     1.4024593708    15.3768195742
Cu      3.6763308468     3.5307009057    15.3768060474
Cu      4.9041378398     5.6597275336    15.3773448005
Cu      6.1330260451     7.7878910103    15.3784795057
Cu      4.9046987540     1.4026027186    15.3777977550
Cu      6.1325026510     3.5313493756    15.3777258697
Cu      7.3610720952     5.6598451741    15.3779276123
Cu      8.5906751295     7.7868954923    15.3785351588
Cu      7.3621786280     1.4037477983    15.3762151195
Cu      8.5904727564     3.5321453644    15.3780682910
Cu      9.8190628915     5.6596863338    15.3769316534
Cu     11.0489115080     7.7874997832    15.3777154348
Cu      9.8196453802     1.4041813317    15.3774700200
Cu     11.0479045662     3.5315147704    15.3771971651
Cu     12.2765483193     5.6595852924    15.3771299176
Cu     13.5054403579     7.7883030926    15.3772814178
Cu      1.2140125591     0.6836803076    17.5697065574
Cu      2.4431555374     2.8116125893    17.5665702724
Cu      3.6705110760     4.9384343512    17.5687388115
Cu      4.8988742539     7.0688538531    17.5715929661
Cu      3.6716454744     0.6829118137    17.5713989532
Cu      4.8981418913     2.8112417067    17.5722074693
Cu      6.1274353048     4.9410331682    17.5708265763
Cu      7.3554752500     7.0698228126    17.5713297733
Cu      6.1297077779     0.6833063606    17.5689100221
Cu      7.3567237656     2.8135682139    17.5698797004
Cu      8.5851063076     4.9421568820    17.5702368079
Cu      9.8152975701     7.0699596058    17.5700617325
Cu      8.5865082080     0.6855771971    17.5667967496
Cu      9.8144914881     2.8135456562    17.5749499312
Cu     11.0427692018     4.9416447797    17.5690866435
Cu     12.2728600100     7.0692517198    17.5719744219
O       7.2288202015     4.2734569284    22.3446828621
O       8.3044696405     5.3171068409    20.0014702420
O       8.8891638945     4.8479579810    24.7349733808
C       8.5251333110     4.9000290628    22.3715153937
C       9.1804211035     4.7744357207    20.9993344800
C       9.4189460410     4.3898719266    23.4895992517
H       8.3072385962     5.9614198807    22.5605187870
H       9.4153356173     3.7172718747    20.7683620669
H      10.1139922737     5.3503076003    20.9408546493
H      10.4461642949     4.7683945991    23.3275539960
H       9.4595638267     3.2836247445    23.4537018323
H       7.3561498138     3.3073831923    22.3295378714
H       7.4071380143     4.9636379387    20.1831718691
H       9.4432595602     4.5017937719    25.4528614775
O       2.4447775074     1.3898406800    19.0162048647
H       2.5328987835     1.2730973609    19.9764139723
80
Step 2 | NEB Image 2 | Cartesian Angstrom
Ni      1.2286109335     0.7093340055    11.2499228119
Ni      2.4572418607     2.8374300965    11.2498425312
Ni      3.6858885526     4.9655539826    11.2497797126
Ni      4.9145562553     7.0936807227    11.2497818531
Ni      3.6859143737     0.7093104098    11.2498591926
Ni      4.9145638206     2.8374140678    11.2497523421
Ni      6.1432317259     4.9655531765    11.2496998952
Ni      7.3719060054     7.0936848685    11.2497456877
Ni      6.1432406676     0.7092918144    11.2498091088
Ni      7.3719138813     2.8374055484    11.2497165602
Ni      8.6005908503     4.9655483914    11.2497082025
Ni      9.8292496190     7.0936708936    11.2497869570
Ni      8.6005784887     0.7092908605    11.2498060224
Ni      9.8292590683     2.8374110104    11.2497610605
Ni     11.0579219032     4.9655426887    11.2497919673
Ni     12.2865598313     7.0936502773    11.2498648390
Ni     14.7391911684     8.5053865378    13.3010795973
Ni     11.0533171609     2.1205367461    13.3003840649
Ni     12.2819122932     4.2489715286    13.3002552191
Ni     13.5103354735     6.3773883076    13.3007452766
Ni      7.3672691688     8.5049539055    13.3007217574
Ni      3.6812474784     2.1206705044    13.3002356139
Ni      4.9097661381     4.2493420315    13.3001379224
Ni      6.1381487792     6.3776616307    13.3003726970
Ni      9.8242066539     8.5048618362    13.3007185307
Ni      6.1383164562     2.1206019140    13.3000976040
Ni      7.3669390013     4.2490153445    13.2999088027
Ni      8.5955069925     6.3768910106    13.3002456908
Ni     12.2817728624     8.5052479384    13.3004020180
Ni      8.5959692821     2.1204319373    13.3003944462
Ni      9.8246607189     4.2486882356    13.3000537255
Ni     11.0530381917     6.3770423375    13.3002251963
Cu      2.4475120700     1.4020705956    15.3758072618
Cu      3.6757892253     3.5308020214    15.3744768852
Cu      4.9033729487     5.6605424038    15.3746801967
Cu      6.1327902361     7.7888015010    15.3769890212
Cu      4.9045471520     1.4018378082    15.3762124062
Cu      6.1324088330     3.5309072409    15.3742678270
Cu      7.3612545670     5.6606318095    15.3745698285
Cu      8.5909334155     7.7876885511    15.3771030948
Cu      7.3623811714     1.4028256812    15.3744069913
Cu      8.5911389890     3.5316518162    15.3751724602
Cu      9.8198790587     5.6601120472    15.3747873254
Cu     11.0493084159     7.7878926411    15.3769517068
Cu      9.8201417778     1.4035668605    15.3762081745
Cu     11.0486407915     3.5313093397    15.3758753871
Cu     12.2770657840     5.6597180568    15.3764022355
Cu     13.5056746425     7.7884385178    15.3770111625
Cu      1.2130670941     0.6828174513    17.5688306351
Cu      2.4399242843     2.8219498881    17.5449077160
Cu      3.6640699941     4.9424945497    17.5593205448
Cu      4.8962705877     7.0734585472    17.5665598170
Cu      3.6723805175     0.6801039724    17.5683545692
Cu      4.8945962084     2.8043866535    17.5525817834
Cu      6.1244752871     4.9496923155    17.5351218015
Cu      7.3550918539     7.0763153371    17.5627508053
Cu      6.1297712761     0.6797329232    17.5654183409
Cu      7.3609697133     2.8062171032    17.5526867179
Cu      8.5929172526     4.9439761863    17.5419584438
Cu      9.8174327051     7.0730401232    17.5651006213
Cu      8.5878102263     0.6824426778    17.5632886992
Cu      9.8184692874     2.8103579758    17.5675738303
Cu     11.0462284869     4.9418815042    17.5645271834
Cu     12.2738994823     7.0698582430    17.5708981125
O       6.4867845040     3.7200070419    21.8895372768
O       7.8648680156     5.1524774745    19.9665534802
O       7.4021090738     4.2474164248    24.6421034872
C       7.6118077027     4.5304704002    22.2777867374
C       8.5777931362     4.6496826042    21.1015360447
C       8.2951477398     4.0477867530    23.5445535331
H       7.1744107302     5.5202524397    22.4736015796
H       9.0348374801     3.6690271071    20.8639745909
H       9.3853618878     5.3650083683    21.3057321555
H       9.2301546019     4.6229439790    23.6795442354
H       8.5690065183     2.9803283892    23.4360105976
H       6.7890651187     2.7988547932    21.7902235736
H       7.0112498124     4.6626546748    19.9378964083
H       7.8508481078     3.9747285894    25.4603611795
O       2.4507169510     1.4170395879    18.9956079757
H       2.5381128574     1.4114152087    19.9632163476
80
Step 3 | NEB Image 3 | Cartesian Angstrom
Ni      1.2285991272     0.7093236638    11.2498954670
Ni      2.4572259863     2.8374245488    11.2497813334
Ni      3.6858796187     4.9655667220    11.2496988271
Ni      4.9145570890     7.0937060914    11.2497147006
Ni      3.6859071399     0.7092925791    11.2498068711
Ni      4.9145649043     2.8374073942    11.2496641542
Ni      6.1432442265     4.9655671779    11.2496100806
Ni      7.3719221696     7.0937083703    11.2496816610
Ni      6.1432484983     0.7092720431    11.2497450081
Ni      7.3719344067     2.8374002081    11.2496339142
Ni      8.6006169148     4.9655591066    11.2496369054
Ni      9.8292725166     7.0936875353    11.2497423122
Ni      8.6005979528     0.7092750517    11.2497519717
Ni      9.8292869875     2.8374074205    11.2497039506
Ni     11.0579490211     4.9655493688    11.2497496910
Ni     12.2865792687     7.0936595165    11.2498415656
Ni     14.7392077760     8.5053942980    13.3010704093
Ni     11.0533862500     2.1205229831    13.3002963250
Ni     12.2819711556     4.2489788181    13.3001993576
Ni     13.5103695690     6.3773996647    13.3007213766
Ni      7.3673018518     8.5050218647    13.3006162414
Ni      3.6812103057     2.1206201173    13.3000217295
Ni      4.9097802164     4.2493783821    13.2998413858
Ni      6.1381857398     6.3777423438    13.3001669386
Ni      9.8242506706     8.5049062014    13.3006519198
Ni      6.1383610413     2.1205587703    13.2998491780
Ni      7.3670135468     4.2490432774    13.2996643928
Ni      8.5955740857     6.3769498900    13.3000877086
Ni     12.2818047903     8.5052680068    13.3003747106
Ni      8.5960472139     2.1204032961    13.3002205469
Ni      9.8247488209     4.2487011922    13.2999053192
Ni     11.0531019663     6.3770723435    13.3001497269
Cu      2.4473243912     1.4018490000    15.3755942401
Cu      3.6754772362     3.5308424570    15.3731078932
Cu      4.9034909189     5.6609744677    15.3737499296
Cu      6.1328661555     7.7890762557    15.3766250470
Cu      4.9045257421     1.4013768654    15.3753020571
Cu      6.1328236055     3.5310516141    15.3730321564
Cu      7.3614548702     5.6609272394    15.3738280373
Cu      8.5910917243     7.7878987386    15.3768321331
Cu      7.3626455770     1.4026162294    15.3737893814
Cu      8.5914906149     3.5316188862    15.3744553922
Cu      9.8202304564     5.6602826427    15.3743373057
Cu     11.0494311136     7.7879716247    15.3768682734
Cu      9.8203779586     1.4034663482    15.3759031329
Cu     11.0488959697     3.5313133872    15.3756618869
Cu     12.2771955678     5.6597555827    15.3763428196
Cu     13.5057209419     7.7884580540    15.3769992836
Cu      1.2138714385     0.6834585516    17.5698917765
Cu      2.4372046016     2.8184715182    17.5394026518
Cu      3.6597334584     4.9474405058    17.5497135525
Cu      4.8966068268     7.0752589429    17.5649818786
Cu      3.6705482450     0.6799045748    17.5688933091
Cu      4.8937253939     2.7979897268    17.5305257863
Cu      6.1307118262     4.9538285467    17.5345955648
Cu      7.3556990485     7.0778909461    17.5612010183
Cu      6.1304729607     0.6776598701    17.5630105723
Cu      7.3639485205     2.8072680537    17.5492832179
Cu      8.5986562419     4.9465978249    17.5318443644
Cu      9.8182801314     7.0735635606    17.5648066625
Cu      8.5888518582     0.6815703987    17.5619283305
Cu      9.8202662379     2.8100096874    17.5662418537
Cu     11.0470519056     4.9421074112    17.5646356520
Cu     12.2740437717     7.0698891558    17.5709804065
O       5.7802192330     3.3325647073    21.7067329948
O       7.2668714563     4.2466749303    19.7642201021
O       6.2975975537     4.2232389574    24.4431471716
C       6.7890318887     4.2818496337    22.1058767916
C       7.8974683151     4.3126097878    21.0475661614
C       7.3377631203     4.0111608033    23.4907571244
H       6.2603901732     5.2463342051    22.1021486982
H       8.5952955789     3.4630778226    21.1648553710
H       8.4761854206     5.2452935533    21.0883852486
H       8.1966971440     4.6859879086    23.6679721906
H       7.7180149442     2.9710050533    23.5275157703
H       6.1258441637     2.4294948791    21.8354428602
H       6.4283936313     3.7418028996    19.9096667710
H       6.6375588304     4.0094491244    25.3272195887
O       3.5073748095     2.0234309987    19.0529856892
H       2.9659020594     1.7730702236    19.8250817399
80
Step 4 | NEB Image 4 | Cartesian Angstrom
Ni      1.2286036510     0.7093273143    11.2499036541
Ni      2.4572326218     2.8374270856    11.2498003042
Ni      3.6858853485     4.9655638242    11.2497252145
Ni      4.9145598945     7.0936984747    11.2497383201
Ni      3.6859109019     0.7092988792    11.2498223052
Ni      4.9145674735     2.8374112033    11.2496921203
Ni      6.1432438020     4.9655643643    11.2496414683
Ni      7.3719197189     7.0937012100    11.2497060660
Ni      6.1432485127     0.7092795039    11.2497644929
Ni      7.3719312165     2.8374040895    11.2496618342
Ni      8.6006113382     4.9655571789    11.2496637540
Ni      9.8292667748     7.0936823639    11.2497609796
Ni      8.6005943587     0.7092815972    11.2497698018
Ni      9.8292805003     2.8374104055    11.2497251063
Ni     11.0579417156     4.9655481908    11.2497674189
Ni     12.2865733985     7.0936564939    11.2498526926
Ni     14.7392014006     8.5053908712    13.3010771957
Ni     11.0533688198     2.1205320958    13.3003316468
Ni     12.2819533884     4.2489790284    13.3002273173
Ni     13.5103576154     6.3773958850    13.3007366195
Ni      7.3672974560     8.5049985956    13.3006585830
Ni      3.6812255207     2.1206378927    13.3000832847
Ni      4.9097881193     4.2493739803    13.2999371822
Ni      6.1381846435     6.3777184770    13.3002438378
Ni      9.8242395668     8.5048900567    13.3006831086
Ni      6.1383576770     2.1205790929    13.2999239074
Ni      7.3670005914     4.2490422001    13.2997522312
Ni      8.5955594602     6.3769327972    13.3001514902
Ni     12.2817944445     8.5052598274    13.3003909023
Ni      8.5960322044     2.1204189815    13.3002789530
Ni      9.8247275744     4.2487021030    13.2999639902
Ni     11.0530839094     6.3770632557    13.3001860769
Cu      2.4473758885     1.4019161201    15.3756735995
Cu      3.6755791741     3.5308445703    15.3734831733
Cu      4.9035330831     5.6608504606    15.3740919960
Cu      6.1328720400     7.7889798833    15.3767699470
Cu      4.9045516898     1.4015086902    15.3755216111
Cu      6.1327696168     3.5310796281    15.3734490281
Cu      7.3614156173     5.6608441290    15.3741385696
Cu      8.5910602265     7.7878249904    15.3769576824
Cu      7.3626085497     1.4027036884    15.3739622988
Cu      8.5914212697     3.5316629998    15.3747090015
Cu      9.8201442776     5.6602406227    15.3745293072
Cu     11.0493926085     7.7879380618    15.3769292443
Cu      9.8203305093     1.4035167986    15.3760128152
Cu     11.0488267440     3.5313285380    15.3757710408
Cu     12.2771493386     5.6597439159    15.3763975264
Cu     13.5057012417     7.7884476158    15.3770181540
Cu      1.2137121962     0.6833567245    17.5696419548
Cu      2.4377459815     2.8180110682    17.5421489086
Cu      3.6614343302     4.9465083029    17.5521051679
Cu      4.8967315315     7.0746160854    17.5655645903
Cu      3.6708326081     0.6799971488    17.5687474145
Cu      4.8951665061     2.8003450987    17.5353680330
Cu      6.1290869378     4.9522069315    17.5374371392
Cu      7.3557073883     7.0773110768    17.5619381415
Cu      6.1304600012     0.6781256738    17.5633833210
Cu      7.3632400575     2.8075790726    17.5504270073
Cu      8.5978246308     4.9464810209    17.5350938654
Cu      9.8180405854     7.0732899677    17.5652132215
Cu      8.5887342891     0.6818383919    17.5622757413
Cu      9.8198853932     2.8102704713    17.5669057749
Cu     11.0467250399     4.9420703457    17.5649461067
Cu     12.2739580812     7.0698470748    17.5710427556
O       6.0434260995     2.8903054445    21.1054127740
O       7.4325943593     4.2492670542    19.0666280744
O       6.1677424422     4.2179964254    23.7442308953
C       6.7478257921     4.1180727908    21.4175370579
C       7.8865488020     4.3513250868    20.4261050332
C       7.2727528072     4.0553459108    22.8481426500
H       6.0211742933     4.9448017788    21.3503925770
H       8.6850992344     3.6042304427    20.5876615868
H       8.3196664571     5.3496957027    20.5971255635
H       8.0213590174     4.8558373865    23.0008232543
H       7.7695340671     3.0811013645    22.9990583770
H       6.4613762617     2.5029328991    20.3106437864
H       4.4554394008     2.9313350367    20.4382329223
H       6.4803221831     4.0614496238    24.6505546571
O       3.5671891713     2.8394915214    19.9839143930
H       3.2995306582     1.9111990192    20.1156701860
80
Step 5 | NEB Image 5 | Cartesian Angstrom
Ni      1.2286497034     0.7093615225    11.2499999440
Ni      2.4572989609     2.8374461750    11.2499999440
Ni      3.6859482184     4.9655308275    11.2499999440
Ni      4.9145974759     7.0936154800    11.2499999440
Ni      3.6859497034     0.7093615225    11.2499999440
Ni      4.9145989609     2.8374461750    11.2499999440
Ni      6.1432482184     4.9655308275    11.2499999440
Ni      7.3718974759     7.0936154800    11.2499999440
Ni      6.1432497034     0.7093615225    11.2499999440
Ni      7.3718989609     2.8374461750    11.2499999440
Ni      8.6005482184     4.9655308275    11.2499999440
Ni      9.8291974759     7.0936154800    11.2499999440
Ni      8.6005497034     0.7093615225    11.2499999440
Ni      9.8291989609     2.8374461750    11.2499999440
Ni     11.0578482184     4.9655308275    11.2499999440
Ni     12.2864974759     7.0936154800    11.2499999440
Ni     14.7391156794     8.5053429999    13.3011712910
Ni     11.0531329642     2.1206495503    13.3008022026
Ni     12.2817169557     4.2489790177    13.3006008466
Ni     13.5101985270     6.3773433856    13.3009432678
Ni      7.3672569131     8.5047181091    13.3011774747
Ni      3.6813641840     2.1207833643    13.3007249066
Ni      4.9098915592     4.2493198517    13.3009123494
Ni      6.1382080000     6.3774560890    13.3011137055
Ni      9.8241033938     8.5046823573    13.3010831736
Ni      6.1383369699     2.1207818321    13.3007716707
Ni      7.3668809566     4.2490234521    13.3008056810
Ni      8.5953896076     6.3767159412    13.3009509974
Ni     12.2816608204     8.5051500252    13.3006066438
Ni      8.5958457422     2.1206092019    13.3010364095
Ni      9.8244550440     4.2487038138    13.3007276120
Ni     11.0528529688     6.3769410074    13.3006611374
Cu      2.4478274055     1.4024593708    15.3768195742
Cu      3.6763308468     3.5307009057    15.3768060474
Cu      4.9041378398     5.6597275336    15.3773448005
Cu      6.1330260451     7.7878910103    15.3784795057
Cu      4.9046987540     1.4026027186    15.3777977550
Cu      6.1325026510     3.5313493756    15.3777258697
Cu      7.3610720952     5.6598451741    15.3779276123
Cu      8.5906751295     7.7868954923    15.3785351588
Cu      7.3621786280     1.4037477983    15.3762151195
Cu      8.5904727564     3.5321453644    15.3780682910
Cu      9.8190628915     5.6596863338    15.3769316534
Cu     11.0489115080     7.7874997832    15.3777154348
Cu      9.8196453802     1.4041813317    15.3774700200
Cu     11.0479045662     3.5315147704    15.3771971651
Cu     12.2765483193     5.6595852924    15.3771299176
Cu     13.5054403579     7.7883030926    15.3772814178
Cu      1.2140125591     0.6836803076    17.5697065574
Cu      2.4431555374     2.8116125893    17.5665702724
Cu      3.6705110760     4.9384343512    17.5687388115
Cu      4.8988742539     7.0688538531    17.5715929661
Cu      3.6716454744     0.6829118137    17.5713989532
Cu      4.8981418913     2.8112417067    17.5722074693
Cu      6.1274353048     4.9410331682    17.5708265763
Cu      7.3554752500     7.0698228126    17.5713297733
Cu      6.1297077779     0.6833063606    17.5689100221
Cu      7.3567237656     2.8135682139    17.5698797004
Cu      8.5851063076     4.9421568820    17.5702368079
Cu      9.8152975701     7.0699596058    17.5700617325
Cu      8.5865082080     0.6855771971    17.5667967496
Cu      9.8144914881     2.8135456562    17.5749499312
Cu     11.0427692018     4.9416447797    17.5690866435
Cu     12.2728600100     7.0692517198    17.5719744219
O       5.4816243728     2.5651691502    20.6539118200
O       7.3508896973     4.2099530947    19.0383354809
O       4.4981563510     3.9587391709    22.9072956728
C       5.9290713561     3.8945947838    20.9960208007
C       7.3297021271     4.1881915565    20.4688911028
C       5.8721709119     4.0116672750    22.5089584937
H       5.2340507257     4.6323215466    20.5533350446
H       8.0432145389     3.4244560240    20.8191443760
H       7.6571223136     5.1738780612    20.8354754738
H       6.3359933253     4.9675285031    22.8148914030
H       6.4497260984     3.1808581747    22.9509168945
H       5.8597578631     2.3152772777    19.7784701378
H       3.6583776659     2.5435355524    20.3168147116
H       4.4610770249     3.8064239805    23.8648388416
O       2.7103082747     2.5416543255    20.0177020144
H       2.4292112216     1.6097423068    20.0822731560
