80
Step 1 | NEB Image 1 | Cartesian Angstrom
Ni      1.2286497034     0.7093615225    11.2499999440
Ni      2.4572989609     2.8374461750    11.2499999440
Ni      3.6859482184     4.9655308275    11.2499999440
Ni      4.9145974759     7.0936154800    11.2499999440
Ni      3.6859497034     0.7093615225    11.2499999440
Ni      4.9145989609     2.8374461750    11.2499999440
Ni      6.1432482184     4.9655308275    11.2499999440
Ni      7.3718974759     7.0936154800    11.2499999440
Ni      6.1432497034     0.7093615225    11.2499999440
Ni      7.3718989609     2.8374461750    11.2499999440
Ni      8.6005482184     4.9655308275    11.2499999440
Ni      9.8291974759     7.0936154800    11.2499999440
Ni      8.6005497034     0.7093615225    11.2499999440
Ni      9.8291989609     2.8374461750    11.2499999440
Ni     11.0578482184     4.9655308275    11.2499999440
Ni     12.2864974759     7.0936154800    11.2499999440
Ni     14.7391156794     8.5053429999    13.3011712910
Ni     11.0531329642     2.1206495503    13.3008022026
Ni     12.2817169557     4.2489790177    13.3006008466
Ni     13.5101985270     6.3773433856    13.3009432678
Ni      7.3672569131     8.5047181091    13.3011774747
Ni      3.6813641840     2.1207833643    13.3007249066
Ni      4.9098915592     4.2493198517    13.3009123494
Ni      6.1382080000     6.3774560890    13.3011137055
Ni      9.8241033938     8.5046823573    13.3010831736
Ni      6.1383369699     2.1207818321    13.3007716707
Ni      7.3668809566     4.2490234521    13.3008056810
Ni      8.5953896076     6.3767159412    13.3009509974
Ni     12.2816608204     8.5051500252    13.3006066438
Ni      8.5958457422     2.1206092019    13.3010364095
Ni      9.8244550440     4.2487038138    13.3007276120
Ni     11.0528529688     6.3769410074    13.3006611374
Cu      2.4478274055     1.4024593708    15.3768195742
Cu      3.6763308468     3.5307009057    15.3768060474
Cu      4.9041378398     5.6597275336    15.3773448005
Cu      6.1330260451     7.7878910103    15.3784795057
Cu      4.9046987540     1.4026027186    15.3777977550
Cu      6.1325026510     3.5313493756    15.3777258697
Cu      7.3610720952     5.6598451741    15.3779276123
Cu      8.5906751295     7.7868954923    15.3785351588
Cu      7.3621786280     1.4037477983    15.3762151195
Cu      8.5904727564     3.5321453644    15.3780682910
Cu      9.8190628915     5.6596863338    15.3769316534
Cu     11.0489115080     7.7874997832    15.3777154348
Cu      9.8196453802     1.4041813317    15.3774700200
Cu     11.0479045662     3.5315147704    15.3771971651
Cu     12.2765483193     5.6595852924    15.3771299176
Cu     13.5054403579     7.7883030926    15.3772814178
Cu      1.2140125591     0.6836803076    17.5697065574
Cu      2.4431555374     2.8116125893    17.5665702724
Cu      3.6705110760     4.9384343512    17.5687388115
Cu      4.8988742539     7.0688538531    17.5715929661
Cu      3.6716454744     0.6829118137    17.5713989532
Cu      4.8981418913     2.8112417067    17.5722074693
Cu      6.1274353048     4.9410331682    17.5708265763
Cu      7.3554752500     7.0698228126    17.5713297733
Cu      6.1297077779     0.6833063606    17.5689100221
Cu      7.3567237656     2.8135682139    17.5698797004
Cu      8.5851063076     4.9421568820    17.5702368079
Cu      9.8152975701     7.0699596058    17.5700617325
Cu      8.5865082080     0.6855771971    17.5667967496
Cu      9.8144914881     2.8135456562    17.5749499312
Cu     11.0427692018     4.9416447797    17.5690866435
Cu     12.2728600100     7.0692517198    17.5719744219
O       7.2288202015     4.2734569284    22.3446828621
O       8.3044696405     5.3171068409    20.0014702420
O       8.8891638945     4.8479579810    24.7349733808
C       8.5251333110     4.9000290628    22.3715153937
C       9.1804211035     4.7744357207    20.9993344800
C       9.4189460410     4.3898719266    23.4895992517
H       8.3072385962     5.9614198807    22.5605187870
H       9.4153356173     3.7172718747    20.7683620669
H      10.1139922737     5.3503076003    20.9408546493
H      10.4461642949     4.7683945991    23.3275539960
H       9.4595638267     3.2836247445    23.4537018323
H       7.3561498138     3.3073831923    22.3295378714
H       7.4071380143     4.9636379387    20.1831718691
H       9.4432595602     4.5017937719    25.4528614775
O       2.4447775074     1.3898406800    19.0162048647
H       2.5328987835     1.2730973609    19.9764139723
80
Step 2 | NEB Image 2 | Cartesian Angstrom
Ni      1.2286111987     0.7093342379    11.2499234262
Ni      2.4572422174     2.8374302211    11.2498439059
Ni      3.6858887534     4.9655536964    11.2497815296
Ni      4.9145562366     7.0936801528    11.2497833617
Ni      3.6859145362     0.7093108104    11.2498603679
Ni      4.9145637963     2.8374142177    11.2497543231
Ni      6.1432314451     4.9655528620    11.2497019128
Ni      7.3719056423     7.0936843406    11.2497471260
Ni      6.1432404917     0.7092922586    11.2498105487
Ni      7.3719134202     2.8374056684    11.2497184168
Ni      8.6005902649     4.9655481507    11.2497098042
Ni      9.8292491047     7.0936705198    11.2497879600
Ni      8.6005780516     0.7092912156    11.2498072366
Ni      9.8292584412     2.8374110910    11.2497623435
Ni     11.0579212940     4.9655425386    11.2497929170
Ni     12.2865593947     7.0936500698    11.2498653619
Ni     14.7391907953     8.5053863634    13.3010798038
Ni     11.0533156089     2.1205370554    13.3003860360
Ni     12.2819109710     4.2489713649    13.3002564741
Ni     13.5103347076     6.3773880525    13.3007458136
Ni      7.3672684347     8.5049523788    13.3007241279
Ni      3.6812483135     2.1206716363    13.3002404185
Ni      4.9097658220     4.2493412150    13.3001445838
Ni      6.1381479491     6.3776598176    13.3003773193
Ni      9.8242056651     8.5048608396    13.3007200272
Ni      6.1383154549     2.1206028833    13.3001031846
Ni      7.3669373269     4.2490147171    13.2999142932
Ni      8.5955054854     6.3768896879    13.3002492399
Ni     12.2817721452     8.5052474876    13.3004026315
Ni      8.5959675316     2.1204325807    13.3003983527
Ni      9.8246587399     4.2486879446    13.3000570594
Ni     11.0530367592     6.3770416635    13.3002268918
Cu      2.4475162858     1.4020755734    15.3758120472
Cu      3.6757962338     3.5308011133    15.3745076370
Cu      4.9033702998     5.6605326982    15.3747010948
Cu      6.1327885311     7.7887953289    15.3769971979
Cu      4.9045476332     1.4018481625    15.3762328551
Cu      6.1323995168     3.5309039989    15.3742955852
Cu      7.3612500678     5.6606251732    15.3745864932
Cu      8.5909298596     7.7876838294    15.3771091823
Cu      7.3623752326     1.4028303866    15.3744208648
Cu      8.5911310908     3.5316525565    15.3751885687
Cu      9.8198711654     5.6601082151    15.3747974354
Cu     11.0493056596     7.7878908667    15.3769535816
Cu      9.8201364727     1.4035691187    15.3762150271
Cu     11.0486350594     3.5313092491    15.3758801838
Cu     12.2770628685     5.6597172138    15.3764035708
Cu     13.5056736024     7.7884380789    15.3770114296
Cu      1.2130490270     0.6828030513    17.5688067992
Cu      2.4399853738     2.8220280013    17.5450313962
Cu      3.6641674142     4.9423834546    17.5595363443
Cu      4.8962630381     7.0734181024    17.5665952648
Cu      3.6724216727     0.6801084521    17.5683424675
Cu      4.8946157883     2.8045303579    17.5530772117
Cu      6.1243351962     4.9495993952    17.5351336643
Cu      7.3550782171     7.0762799417    17.5627856233
Cu      6.1297555169     0.6797794889    17.5654724225
Cu      7.3609028016     2.8061935049    17.5527631745
Cu      8.5927883483     4.9439173054    17.5421856451
Cu      9.8174136691     7.0730283632    17.5651072296
Cu      8.5877868306     0.6824622724    17.5633192569
Cu      9.8184289240     2.8103658020    17.5676037553
Cu     11.0462099888     4.9418764300    17.5645247521
Cu     12.2738962404     7.0698575481    17.5708962652
O       6.4885961656     3.7207654539    21.8782738920
O       7.8513173910     5.1210487069    19.9340320119
O       7.4129582895     4.2888876272    24.6236335639
C       7.6128668655     4.5387678456    22.2527367070
C       8.5754915023     4.6442735457    21.0736247908
C       8.3007413949     4.0737402026    23.5244270424
H       7.1740276742     5.5310735699    22.4373711023
H       9.0391407235     3.6641317023    20.8502446499
H       9.3771700472     5.3704300729    21.2603744831
H       9.2366356657     4.6503739453    23.6465991590
H       8.5735488899     3.0049809804    23.4284444968
H       6.7903651653     2.8006536211    21.7918237235
H       6.9996608814     4.6252350274    19.9220861504
H       7.8635047423     4.0288863028    25.4410722109
O       2.4514413132     1.4175255623    18.9967808474
H       2.5342925230     1.4093729433    19.9634550682
80
Step 3 | NEB Image 3 | Cartesian Angstrom
Ni      1.2285991493     0.7093236835    11.2498955211
Ni      2.4572260153     2.8374245586    11.2497814537
Ni      3.6858796324     4.9655666957    11.2496989844
Ni      4.9145570834     7.0937060412    11.2497148289
Ni      3.6859071521     0.7092926132    11.2498069749
Ni      4.9145648984     2.8374074051    11.2496643267
Ni      6.1432441975     4.9655671485    11.2496102525
Ni      7.3719221346     7.0937083240    11.2496817810
Ni      6.1432484797     0.7092720803    11.2497451345
Ni      7.3719343623     2.8374002158    11.2496340736
Ni      8.6006168604     4.9655590838    11.2496370394
Ni      9.8292724699     7.0936875026    11.2497423937
Ni      8.6005979114     0.7092750807    11.2497520765
Ni      9.8292869299     2.8374074251    11.2497040583
Ni     11.0579489664     4.9655493545    11.2497497681
Ni     12.2865792303     7.0936594986    11.2498416063
Ni     14.7392077449     8.5053942841    13.3010704223
Ni     11.0533861091     2.1205230039    13.3002964869
Ni     12.2819710393     4.2489788006    13.3001994538
Ni     13.5103695038     6.3773996427    13.3007214135
Ni      7.3673017803     8.5050217341    13.3006164363
Ni      3.6812103740     2.1206202135    13.3000221558
Ni      4.9097801730     4.2493783019    13.2998419634
Ni      6.1381856539     6.3777421837    13.3001673260
Ni      9.8242505809     8.5049061173    13.3006520372
Ni      6.1383609403     2.1205588461    13.2998496690
Ni      7.3670133873     4.2490432128    13.2996648576
Ni      8.5955739460     6.3769497728    13.3000880000
Ni     12.2818047281     8.5052679699    13.3003747543
Ni      8.5960470491     2.1204033436    13.3002208828
Ni      9.8247486400     4.2487011604    13.2999055945
Ni     11.0531018388     6.3770722842    13.3001498586
Cu      2.4473247685     1.4018494374    15.3755946416
Cu      3.6754778425     3.5308423588    15.3731106457
Cu      4.9034905862     5.6609736061    15.3737516885
Cu      6.1328659687     7.7890757302    15.3766257210
Cu      4.9045257594     1.4013777851    15.3753039259
Cu      6.1328226951     3.5310512372    15.3730345408
Cu      7.3614544474     5.6609266482    15.3738293914
Cu      8.5910913907     7.7878983366    15.3768326122
Cu      7.3626449999     1.4026166120    15.3737906186
Cu      8.5914898733     3.5316189075    15.3744567609
Cu      9.8202297369     5.6602822936    15.3743381226
Cu     11.0494308731     7.7879714811    15.3768683923
Cu      9.8203774616     1.4034665209    15.3759037128
Cu     11.0488954557     3.5313133582    15.3756622513
Cu     12.2771953205     5.6597555090    15.3763428898
Cu     13.5057208578     7.7884580212    15.3769992875
Cu      1.2138697428     0.6834571679    17.5698895903
Cu      2.4372103314     2.8184803232    17.5394121354
Cu      3.6597415214     4.9474300188    17.5497331783
Cu      4.8966058729     7.0752555143    17.5649848589
Cu      3.6705522081     0.6799049272    17.5688922236
Cu      4.8937256044     2.7980018176    17.5305716745
Cu      6.1306991784     4.9538208552    17.5345931675
Cu      7.3556976038     7.0778879677    17.5612037343
Cu      6.1304713201     0.6776641695    17.5630157814
Cu      7.3639423928     2.8072651732    17.5492897909
Cu      8.5986437530     4.9465917828    17.5318640888
Cu      9.8182784368     7.0735626749    17.5648068359
Cu      8.5888495487     0.6815721155    17.5619310984
Cu      9.8202624818     2.8100101759    17.5662441490
Cu     11.0470503796     4.9421069252    17.5646349981
Cu     12.2740435407     7.0698891367    17.5709801322
O       5.7951609413     3.3554630035    21.6123622352
O       7.3129559331     4.2271924709    19.7073441959
O       6.2751917201     4.2259739483    24.3637484362
C       6.8021471003     4.2975294944    22.0364790102
C       7.9289738004     4.3303573883    20.9960768511
C       7.3282881092     4.0144029738    23.4248437853
H       6.2769279646     5.2623675310    22.0296116079
H       8.6415412290     3.4966588024    21.1344551410
H       8.4883543217     5.2756400183    21.0279499998
H       8.1884015609     4.6831941922    23.6187975848
H       7.7028992165     2.9713414119    23.4604046125
H       6.1300749135     2.4484107689    21.7365642597
H       6.4610876838     3.7445563499    19.8677562464
H       6.6016603158     4.0067637513    25.2520127695
O       3.3970755288     1.9617192714    19.0882355189
H       2.7837835273     1.6553879198    19.7851850668
80
Step 4 | NEB Image 4 | Cartesian Angstrom
Ni      1.2286045832     0.7093280667    11.2499053415
Ni      2.4572339892     2.8374276083    11.2498042140
Ni      3.6858865291     4.9655632269    11.2497306527
Ni      4.9145604724     7.0936969049    11.2497431878
Ni      3.6859116772     0.7093001776    11.2498254862
Ni      4.9145680028     2.8374119882    11.2496978839
Ni      6.1432437142     4.9655637843    11.2496479369
Ni      7.3719192136     7.0936997343    11.2497110954
Ni      6.1432485154     0.7092810414    11.2497685087
Ni      7.3719305587     2.8374048892    11.2496675882
Ni      8.6006101887     4.9655567815    11.2496692870
Ni      9.8292655913     7.0936812980    11.2497648265
Ni      8.6005936178     0.7092829461    11.2497734765
Ni      9.8292791631     2.8374110205    11.2497294661
Ni     11.0579402098     4.9655479479    11.2497710721
Ni     12.2865721886     7.0936558710    11.2498549855
Ni     14.7392000868     8.5053901651    13.3010785939
Ni     11.0533652271     2.1205339735    13.3003389257
Ni     12.2819497265     4.2489790715    13.3002330788
Ni     13.5103551519     6.3773951060    13.3007397603
Ni      7.3672965496     8.5049938000    13.3006673086
Ni      3.6812286561     2.1206415560    13.3000959715
Ni      4.9097897469     4.2493730724    13.2999569252
Ni      6.1381844167     6.3777135581    13.3002596853
Ni      9.8242372781     8.5048867295    13.3006895356
Ni      6.1383569827     2.1205832807    13.2999393091
Ni      7.3669979205     4.2490419774    13.2997703334
Ni      8.5955564454     6.3769292743    13.3001646341
Ni     12.2817923123     8.5052581419    13.3003942386
Ni      8.5960291101     2.1204222136    13.3002909899
Ni      9.8247231950     4.2487022903    13.2999760810
Ni     11.0530801878     6.3770613827    13.3001935674
Cu      2.4473865025     1.4019299535    15.3756899540
Cu      3.6756001827     3.5308450045    15.3735605218
Cu      4.9035417659     5.6608249022    15.3741624899
Cu      6.1328732501     7.7889600223    15.3767998076
Cu      4.9045570358     1.4015358598    15.3755668661
Cu      6.1327584832     3.5310853952    15.3735349410
Cu      7.3614075254     5.6608269994    15.3742025621
Cu      8.5910537333     7.7878097919    15.3769835540
Cu      7.3626009145     1.4027217114    15.3739979382
Cu      8.5914069743     3.5316720885    15.3747612668
Cu      9.8201265144     5.6602319616    15.3745688734
Cu     11.0493846727     7.7879311454    15.3769418071
Cu      9.8203207278     1.4035271945    15.3760354190
Cu     11.0488124759     3.5313316591    15.3757935332
Cu     12.2771398115     5.6597415114    15.3764087981
Cu     13.5056971820     7.7884454649    15.3770220418
Cu      1.2136793688     0.6833357296    17.5695904603
Cu      2.4378575852     2.8179163086    17.5427148102
Cu      3.6617848425     4.9463161251    17.5525981246
Cu      4.8967572123     7.0744836021    17.5656846769
Cu      3.6708912398     0.6800162252    17.5687173443
Cu      4.8954634099     2.8008305000    17.5363661830
Cu      6.1287520260     4.9518727522    17.5380225388
Cu      7.3557090895     7.0771915758    17.5620900372
Cu      6.1304573119     0.6782216903    17.5634601768
Cu      7.3630940263     2.8076431156    17.5506627306
Cu      8.5976531536     4.9464568857    17.5357635669
Cu      9.8179912136     7.0732335911    17.5652969838
Cu      8.5887100401     0.6818936246    17.5623473482
Cu      9.8198068866     2.8103242044    17.5670425845
Cu     11.0466576804     4.9420627037    17.5650100596
Cu     12.2739404243     7.0698384049    17.5710555977
O       6.0458412087     2.8974040476    21.0827234263
O       7.4395260625     4.2480827496    19.0562122427
O       6.1657515248     4.2323677605    23.7231996999
C       6.7504811149     4.1231890171    21.3974410214
C       7.8945681895     4.3528182127    20.4151106519
C       7.2716330034     4.0613511500    22.8303531170
H       6.0282472048     4.9549343344    21.3258777987
H       8.6917693844     3.6052382672    20.5775966724
H       8.3283941847     5.3517336428    20.5820122581
H       8.0228952723     4.8587283427    22.9792362369
H       7.7633416580     3.0857780588    22.9826972032
H       6.4381601195     2.5360255065    20.2612293080
H       4.4248778975     2.9224807838    20.4465738792
H       6.4773503150     4.0778012524    24.6306173325
O       3.5310016409     2.8269277996    20.0059235952
H       3.2791301559     1.8925315808    20.1231462615
80
Step 5 | NEB Image 5 | Cartesian Angstrom
Ni      1.2286497034     0.7093615225    11.2499999440
Ni      2.4572989609     2.8374461750    11.2499999440
Ni      3.6859482184     4.9655308275    11.2499999440
Ni      4.9145974759     7.0936154800    11.2499999440
Ni      3.6859497034     0.7093615225    11.2499999440
Ni      4.9145989609     2.8374461750    11.2499999440
Ni      6.1432482184     4.9655308275    11.2499999440
Ni      7.3718974759     7.0936154800    11.2499999440
Ni      6.1432497034     0.7093615225    11.2499999440
Ni      7.3718989609     2.8374461750    11.2499999440
Ni      8.6005482184     4.9655308275    11.2499999440
Ni      9.8291974759     7.0936154800    11.2499999440
Ni      8.6005497034     0.7093615225    11.2499999440
Ni      9.8291989609     2.8374461750    11.2499999440
Ni     11.0578482184     4.9655308275    11.2499999440
Ni     12.2864974759     7.0936154800    11.2499999440
Ni     14.7391156794     8.5053429999    13.3011712910
Ni     11.0531329642     2.1206495503    13.3008022026
Ni     12.2817169557     4.2489790177    13.3006008466
Ni     13.5101985270     6.3773433856    13.3009432678
Ni      7.3672569131     8.5047181091    13.3011774747
Ni      3.6813641840     2.1207833643    13.3007249066
Ni      4.9098915592     4.2493198517    13.3009123494
Ni      6.1382080000     6.3774560890    13.3011137055
Ni      9.8241033938     8.5046823573    13.3010831736
Ni      6.1383369699     2.1207818321    13.3007716707
Ni      7.3668809566     4.2490234521    13.3008056810
Ni      8.5953896076     6.3767159412    13.3009509974
Ni     12.2816608204     8.5051500252    13.3006066438
Ni      8.5958457422     2.1206092019    13.3010364095
Ni      9.8244550440     4.2487038138    13.3007276120
Ni     11.0528529688     6.3769410074    13.3006611374
Cu      2.4478274055     1.4024593708    15.3768195742
Cu      3.6763308468     3.5307009057    15.3768060474
Cu      4.9041378398     5.6597275336    15.3773448005
Cu      6.1330260451     7.7878910103    15.3784795057
Cu      4.9046987540     1.4026027186    15.3777977550
Cu      6.1325026510     3.5313493756    15.3777258697
Cu      7.3610720952     5.6598451741    15.3779276123
Cu      8.5906751295     7.7868954923    15.3785351588
Cu      7.3621786280     1.4037477983    15.3762151195
Cu      8.5904727564     3.5321453644    15.3780682910
Cu      9.8190628915     5.6596863338    15.3769316534
Cu     11.0489115080     7.7874997832    15.3777154348
Cu      9.8196453802     1.4041813317    15.3774700200
Cu     11.0479045662     3.5315147704    15.3771971651
Cu     12.2765483193     5.6595852924    15.3771299176
Cu     13.5054403579     7.7883030926    15.3772814178
Cu      1.2140125591     0.6836803076    17.5697065574
Cu      2.4431555374     2.8116125893    17.5665702724
Cu      3.6705110760     4.9384343512    17.5687388115
Cu      4.8988742539     7.0688538531    17.5715929661
Cu      3.6716454744     0.6829118137    17.5713989532
Cu      4.8981418913     2.8112417067    17.5722074693
Cu      6.1274353048     4.9410331682    17.5708265763
Cu      7.3554752500     7.0698228126    17.5713297733
Cu      6.1297077779     0.6833063606    17.5689100221
Cu      7.3567237656     2.8135682139    17.5698797004
Cu      8.5851063076     4.9421568820    17.5702368079
Cu      9.8152975701     7.0699596058    17.5700617325
Cu      8.5865082080     0.6855771971    17.5667967496
Cu      9.8144914881     2.8135456562    17.5749499312
Cu     11.0427692018     4.9416447797    17.5690866435
Cu     12.2728600100     7.0692517198    17.5719744219
O       5.4816243728     2.5651691502    20.6539118200
O       7.3508896973     4.2099530947    19.0383354809
O       4.4981563510     3.9587391709    22.9072956728
C       5.9290713561     3.8945947838    20.9960208007
C       7.3297021271     4.1881915565    20.4688911028
C       5.8721709119     4.0116672750    22.5089584937
H       5.2340507257     4.6323215466    20.5533350446
H       8.0432145389     3.4244560240    20.8191443760
H       7.6571223136     5.1738780612    20.8354754738
H       6.3359933253     4.9675285031    22.8148914030
H       6.4497260984     3.1808581747    22.9509168945
H       5.8597578631     2.3152772777    19.7784701378
H       3.6583776659     2.5435355524    20.3168147116
H       4.4610770249     3.8064239805    23.8648388416
O       2.7103082747     2.5416543255    20.0177020144
H       2.4292112216     1.6097423068    20.0822731560
