80
Step 1 | NEB Image 1 | Cartesian Angstrom
Ni      1.2286497034     0.7093615225    11.2499999440
Ni      2.4572989609     2.8374461750    11.2499999440
Ni      3.6859482184     4.9655308275    11.2499999440
Ni      4.9145974759     7.0936154800    11.2499999440
Ni      3.6859497034     0.7093615225    11.2499999440
Ni      4.9145989609     2.8374461750    11.2499999440
Ni      6.1432482184     4.9655308275    11.2499999440
Ni      7.3718974759     7.0936154800    11.2499999440
Ni      6.1432497034     0.7093615225    11.2499999440
Ni      7.3718989609     2.8374461750    11.2499999440
Ni      8.6005482184     4.9655308275    11.2499999440
Ni      9.8291974759     7.0936154800    11.2499999440
Ni      8.6005497034     0.7093615225    11.2499999440
Ni      9.8291989609     2.8374461750    11.2499999440
Ni     11.0578482184     4.9655308275    11.2499999440
Ni     12.2864974759     7.0936154800    11.2499999440
Ni     14.7391156794     8.5053429999    13.3011712910
Ni     11.0531329642     2.1206495503    13.3008022026
Ni     12.2817169557     4.2489790177    13.3006008466
Ni     13.5101985270     6.3773433856    13.3009432678
Ni      7.3672569131     8.5047181091    13.3011774747
Ni      3.6813641840     2.1207833643    13.3007249066
Ni      4.9098915592     4.2493198517    13.3009123494
Ni      6.1382080000     6.3774560890    13.3011137055
Ni      9.8241033938     8.5046823573    13.3010831736
Ni      6.1383369699     2.1207818321    13.3007716707
Ni      7.3668809566     4.2490234521    13.3008056810
Ni      8.5953896076     6.3767159412    13.3009509974
Ni     12.2816608204     8.5051500252    13.3006066438
Ni      8.5958457422     2.1206092019    13.3010364095
Ni      9.8244550440     4.2487038138    13.3007276120
Ni     11.0528529688     6.3769410074    13.3006611374
Cu      2.4478274055     1.4024593708    15.3768195742
Cu      3.6763308468     3.5307009057    15.3768060474
Cu      4.9041378398     5.6597275336    15.3773448005
Cu      6.1330260451     7.7878910103    15.3784795057
Cu      4.9046987540     1.4026027186    15.3777977550
Cu      6.1325026510     3.5313493756    15.3777258697
Cu      7.3610720952     5.6598451741    15.3779276123
Cu      8.5906751295     7.7868954923    15.3785351588
Cu      7.3621786280     1.4037477983    15.3762151195
Cu      8.5904727564     3.5321453644    15.3780682910
Cu      9.8190628915     5.6596863338    15.3769316534
Cu     11.0489115080     7.7874997832    15.3777154348
Cu      9.8196453802     1.4041813317    15.3774700200
Cu     11.0479045662     3.5315147704    15.3771971651
Cu     12.2765483193     5.6595852924    15.3771299176
Cu     13.5054403579     7.7883030926    15.3772814178
Cu      1.2140125591     0.6836803076    17.5697065574
Cu      2.4431555374     2.8116125893    17.5665702724
Cu      3.6705110760     4.9384343512    17.5687388115
Cu      4.8988742539     7.0688538531    17.5715929661
Cu      3.6716454744     0.6829118137    17.5713989532
Cu      4.8981418913     2.8112417067    17.5722074693
Cu      6.1274353048     4.9410331682    17.5708265763
Cu      7.3554752500     7.0698228126    17.5713297733
Cu      6.1297077779     0.6833063606    17.5689100221
Cu      7.3567237656     2.8135682139    17.5698797004
Cu      8.5851063076     4.9421568820    17.5702368079
Cu      9.8152975701     7.0699596058    17.5700617325
Cu      8.5865082080     0.6855771971    17.5667967496
Cu      9.8144914881     2.8135456562    17.5749499312
Cu     11.0427692018     4.9416447797    17.5690866435
Cu     12.2728600100     7.0692517198    17.5719744219
O       7.2288202015     4.2734569284    22.3446828621
O       8.3044696405     5.3171068409    20.0014702420
O       8.8891638945     4.8479579810    24.7349733808
C       8.5251333110     4.9000290628    22.3715153937
C       9.1804211035     4.7744357207    20.9993344800
C       9.4189460410     4.3898719266    23.4895992517
H       8.3072385962     5.9614198807    22.5605187870
H       9.4153356173     3.7172718747    20.7683620669
H      10.1139922737     5.3503076003    20.9408546493
H      10.4461642949     4.7683945991    23.3275539960
H       9.4595638267     3.2836247445    23.4537018323
H       7.3561498138     3.3073831923    22.3295378714
H       7.4071380143     4.9636379387    20.1831718691
H       9.4432595602     4.5017937719    25.4528614775
O       2.4447775074     1.3898406800    19.0162048647
H       2.5328987835     1.2730973609    19.9764139723
80
Step 2 | NEB Image 2 | Cartesian Angstrom
Ni      1.2286132125     0.7093359967    11.2499280526
Ni      2.4572449343     2.8374311742    11.2498542707
Ni      3.6858903155     4.9655515562    11.2497952505
Ni      4.9145561461     7.0936758603    11.2497947813
Ni      3.6859157865     0.7093138430    11.2498692163
Ni      4.9145636609     2.8374153768    11.2497692694
Ni      6.1432293851     4.9655505159    11.2497171829
Ni      7.3719029470     7.0936803623    11.2497580453
Ni      6.1432392059     0.7092956292    11.2498213988
Ni      7.3719099965     2.8374066097    11.2497324522
Ni      8.6005858919     4.9655463590    11.2497219580
Ni      9.8292452491     7.0936677011    11.2497956012
Ni      8.6005747954     0.7092939203    11.2498164086
Ni      9.8292537485     2.8374117300    11.2497720731
Ni     11.0579167194     4.9655414220    11.2498001536
Ni     12.2865561052     7.0936485023    11.2498693683
Ni     14.7391879623     8.5053850322    13.3010814251
Ni     11.0533039736     2.1205394666    13.3004010306
Ni     12.2819010097     4.2489701712    13.3002661112
Ni     13.5103289101     6.3773861247    13.3007499911
Ni      7.3672629943     8.5049408325    13.3007421580
Ni      3.6812546704     2.1206802058    13.3002765644
Ni      4.9097636407     4.2493351722    13.3001948708
Ni      6.1381418607     6.3776461667    13.3004123846
Ni      9.8241982523     8.5048532861    13.3007314832
Ni      6.1383080768     2.1206103054    13.3001452215
Ni      7.3669248695     4.2490101117    13.2999558875
Ni      8.5954942244     6.3768797350    13.3002762416
Ni     12.2817667303     8.5052440563    13.3004073843
Ni      8.5959544841     2.1204375442    13.3004278796
Ni      9.8246439189     4.2486858318    13.3000824039
Ni     11.0530259863     6.3770365850    13.3002398881
Cu      2.4475479614     1.4021130779    15.3758483462
Cu      3.6758491602     3.5307945073    15.3747386836
Cu      4.9033516229     5.6604596861    15.3748595380
Cu      6.1327761599     7.7887486097    15.3770593732
Cu      4.9045515789     1.4019260469    15.3763859994
Cu      6.1323305034     3.5308807516    15.3745054242
Cu      7.3612165215     5.6605752779    15.3747134603
Cu      8.5909033386     7.7876480888    15.3771557614
Cu      7.3623311953     1.4028662333    15.3745251594
Cu      8.5910721940     3.5316586948    15.3753105332
Cu      9.8198120275     5.6600795020    15.3748745218
Cu     11.0492848711     7.7878773394    15.3769682933
Cu      9.8200968984     1.4035864613    15.3762669408
Cu     11.0485920046     3.5313088351    15.3759170545
Cu     12.2770407884     5.6597108577    15.3764142343
Cu     13.5056656724     7.7884346976    15.3770136928
Cu      1.2129142905     0.6826960753    17.5686283886
Cu      2.4404409992     2.8225916481    17.5459809691
Cu      3.6649077728     4.9415557304    17.5611537249
Cu      4.8962098800     7.0731117759    17.5668640607
Cu      3.6727273011     0.6801427321    17.5682515732
Cu      4.8947826574     2.8056199358    17.5567797054
Cu      6.1232840495     4.9488932452    17.5352671206
Cu      7.3549786330     7.0760115754    17.5630523514
Cu      6.1296400617     0.6801276647    17.5658740299
Cu      7.3604018538     2.8060260504    17.5533410765
Cu      8.5918320457     4.9434848092    17.5439005054
Cu      9.8172705280     7.0729378686    17.5651622366
Cu      8.5876138130     0.6826099660    17.5635484260
Cu      9.8181274998     2.8104273191    17.5678334999
Cu     11.0460693453     4.9418387149    17.5645120761
Cu     12.2738711249     7.0698517747    17.5708837816
O       6.5489111730     3.7500116163    21.8759823778
O       7.8416778111     5.0892210273    19.8544863734
O       7.5555762837     4.4428569795    24.5764687427
C       7.6849469628     4.5801133351    22.1882886149
C       8.6084572697     4.6407508824    20.9782790943
C       8.4067518662     4.1682977075    23.4549034401
H       7.2501189791     5.5799652940    22.3446600698
H       9.0561190690     3.6504187720    20.7640971531
H       9.4223672986     5.3658503065    21.1090008302
H       9.3503334065     4.7409652575    23.5235438722
H       8.6672947581     3.0932444548    23.4037945462
H       6.8517908989     2.8296726305    21.7963100808
H       6.9892186991     4.5931310877    19.8863823086
H       8.0113783330     4.1985276620    25.3789191062
O       2.4466183601     1.4139716877    19.0001358822
H       2.5172805852     1.3829385085    19.9618835071
80
Step 3 | NEB Image 3 | Cartesian Angstrom
Ni      1.2286014426     0.7093257397    11.2499011806
Ni      2.4572290148     2.8374255738    11.2497940211
Ni      3.6858810175     4.9655639199    11.2497153953
Ni      4.9145564469     7.0937007940    11.2497281935
Ni      3.6859084069     0.7092961575    11.2498178388
Ni      4.9145642346     2.8374085112    11.2496823412
Ni      6.1432411063     4.9655640413    11.2496281580
Ni      7.3719184263     7.0937034787    11.2496942371
Ni      6.1432465008     0.7092759382    11.2497583566
Ni      7.3719296654     2.8374009744    11.2496506962
Ni      8.6006111277     4.9655566716    11.2496509598
Ni      9.8292675617     7.0936840870    11.2497508286
Ni      8.6005935438     0.7092780773    11.2497630129
Ni      9.8292808673     2.8374078780    11.2497152620
Ni     11.0579432304     4.9655478471    11.2497577478
Ni     12.2865752151     7.0936576253    11.2498457915
Ni     14.7392045208     8.5053928455    13.3010717111
Ni     11.0533713157     2.1205250942    13.3003132712
Ni     12.2819588787     4.2489769286    13.3002093089
Ni     13.5103627123     6.3773973498    13.3007251317
Ni      7.3672941975     8.5050081126    13.3006366418
Ni      3.6812174470     2.1206302334    13.3000667995
Ni      4.9097754189     4.2493697942    13.2999022711
Ni      6.1381764902     6.3777254335    13.3002075880
Ni      9.8242411558     8.5048973699    13.3006641154
Ni      6.1383501963     2.1205666507    13.2999010314
Ni      7.3669965369     4.2490363251    13.2997132152
Ni      8.5955592304     6.3769375054    13.3001181937
Ni     12.2817982396     8.5052641461    13.3003791886
Ni      8.5960296558     2.1204081915    13.3002559110
Ni      9.8247296266     4.2486977514    13.2999341471
Ni     11.0530884821     6.3770660898    13.3001633892
Cu      2.4473643244     1.4018951824    15.3756363634
Cu      3.6755411182     3.5308318304    15.3733992343
Cu      4.9034544024     5.6608833708    15.3739345709
Cu      6.1328459100     7.7890210086    15.3766955948
Cu      4.9045272232     1.4014741233    15.3755003870
Cu      6.1327261906     3.5310105374    15.3732831573
Cu      7.3614098450     5.6608646931    15.3739694848
Cu      8.5910562114     7.7878564781    15.3768819451
Cu      7.3625838776     1.4026562025    15.3739202643
Cu      8.5914116416     3.5316205204    15.3745992584
Cu      9.8201541194     5.6602456108    15.3744225639
Cu     11.0494057477     7.7879566401    15.3768801940
Cu      9.8203250471     1.4034842318    15.3759640586
Cu     11.0488415529     3.5313100354    15.3756995688
Cu     12.2771695793     5.6597478080    15.3763495799
Cu     13.5057121621     7.7884546749    15.3769994202
Cu      1.2136908813     0.6833107953    17.5696596605
Cu      2.4378146582     2.8194283256    17.5403847279
Cu      3.6605779029     4.9463230540    17.5517951127
Cu      4.8965020539     7.0748986619    17.5652946894
Cu      3.6709715542     0.6799412028    17.5687783834
Cu      4.8937265595     2.7992589158    17.5354040106
Cu      6.1293716248     4.9530230008    17.5342944410
Cu      7.3555430585     7.0775782935    17.5614830069
Cu      6.1302961569     0.6781167411    17.5635669806
Cu      7.3632980292     2.8069526375    17.5499752471
Cu      8.5973213194     4.9459477228    17.5339237383
Cu      9.8181008961     7.0734720920    17.5648192954
Cu      8.5886044578     0.6817516096    17.5622217428
Cu      9.8198667056     2.8100584900    17.5664795557
Cu     11.0468921611     4.9420555271    17.5645604658
Cu     12.2740201310     7.0698877243    17.5709498888
O       5.9825235696     3.4848303353    21.3741367642
O       7.4723387705     4.3566665080    19.5194874196
O       6.4894498360     4.2860286874    24.1485320882
C       7.0117092748     4.3908251884    21.8279731024
C       8.1364362336     4.4251832324    20.7872034061
C       7.5351625162     4.0604205884    23.2045175775
H       6.5076641267     5.3645442186    21.8428708300
H       8.8328082679     3.5787541873    20.8792262276
H       8.7082847477     5.3639715799    20.8159382249
H       8.4127523158     4.7063977589    23.4018362063
H       7.8818621681     3.0102489006    23.2146949627
H       6.3076837767     2.5644408999    21.4175037097
H       6.5980667169     3.9136271639    19.7174629096
H       6.8233556765     4.0855039075    25.0347052149
O       3.1042777932     1.7949060047    19.1378371504
H       2.4239686488     1.4199966666    19.7313393682
80
Step 4 | NEB Image 4 | Cartesian Angstrom
Ni      1.2286071483     0.7093300650    11.2499094580
Ni      2.4572378787     2.8374291411    11.2498139430
Ni      3.6858903075     4.9655620390    11.2497445580
Ni      4.9145627805     7.0936930690    11.2497560961
Ni      3.6859140377     0.7093036278    11.2498331786
Ni      4.9145701447     2.8374144354    11.2497124045
Ni      6.1432444755     4.9655627745    11.2496650399
Ni      7.3719186831     7.0936960977    11.2497249044
Ni      6.1432492156     0.7092852455    11.2497783918
Ni      7.3719298228     2.8374075112    11.2496825594
Ni      8.6006080390     4.9655561884    11.2496844030
Ni      9.8292630314     7.0936786423    11.2497757698
Ni      8.6005924668     0.7092867696    11.2497829255
Ni      9.8292764512     2.8374130826    11.2497412952
Ni     11.0579367756     4.9655475971    11.2497814753
Ni     12.2865692222     7.0936542758    11.2498618019
Ni     14.7391964691     8.5053881179    13.3010831916
Ni     11.0533574194     2.1205400219    13.3003593450
Ni     12.2819407508     4.2489798802    13.3002504374
Ni     13.5103486289     6.3773930941    13.3007498002
Ni      7.3672959226     8.5049812417    13.3006917563
Ni      3.6812375064     2.1206512836    13.3001261927
Ni      4.9097972804     4.2493727632    13.3000071524
Ni      6.1381867943     6.3777016455    13.3003028439
Ni      9.8242323045     8.5048777712    13.3007085210
Ni      6.1383582242     2.1205956745    13.2999769865
Ni      7.3669941571     4.2490435760    13.2998188061
Ni      8.5955506962     6.3769208374    13.3002015455
Ni     12.2817868793     8.5052533915    13.3004047347
Ni      8.5960240083     2.1204321890    13.3003222194
Ni      9.8247140196     4.2487041554    13.3000097637
Ni     11.0530714134     6.3770567827    13.3002158849
Cu      2.4474110167     1.4019639294    15.3757344334
Cu      3.6756539428     3.5308502444    15.3737390514
Cu      4.9035857285     5.6607641233    15.3743531497
Cu      6.1328846149     7.7889074205    15.3768832180
Cu      4.9045758219     1.4016003261    15.3756616882
Cu      6.1327519579     3.5311204084    15.3737583273
Cu      7.3613938750     5.6607867802    15.3743846798
Cu      8.5910425669     7.7877695329    15.3770597308
Cu      7.3625946749     1.4027729567    15.3740813582
Cu      8.5913826626     3.5317043318    15.3749002159
Cu      9.8200887736     5.6602134942    15.3746822352
Cu     11.0493647923     7.7879113570    15.3769830365
Cu      9.8203037040     1.4035585414    15.3760959592
Cu     11.0487797765     3.5313440838    15.3758617039
Cu     12.2771144016     5.6597355186    15.3764471501
Cu     13.5056855616     7.7884388684    15.3770360286
Cu      1.2136232659     0.6833110040    17.5694847906
Cu      2.4380496275     2.8172435950    17.5444182071
Cu      3.6627582934     4.9460085727    17.5536582480
Cu      4.8968861215     7.0741298719    17.5660100627
Cu      3.6709566008     0.6800724291    17.5686485130
Cu      4.8965347649     2.8021440880    17.5382834762
Cu      6.1280062123     4.9509448173    17.5402397658
Cu      7.3557691373     7.0768682494    17.5625408984
Cu      6.1305087040     0.6784104039    17.5635453264
Cu      7.3627916815     2.8079832981    17.5512744900
Cu      8.5974954792     4.9465944243    17.5374624558
Cu      9.8178749324     7.0730616933    17.5655949816
Cu      8.5887080028     0.6820303802    17.5625044365
Cu      9.8196615646     2.8105013038    17.5674542924
Cu     11.0464697314     4.9420530477    17.5652668985
Cu     12.2738848565     7.0698076033    17.5711125011
O       6.0010358887     2.9809954451    21.0403582463
O       7.4669240000     4.2599748785    19.0510972670
O       6.1142921175     4.2885942735    23.6799686420
C       6.7517666585     4.1718963341    21.3728735882
C       7.9195515626     4.3536513672    20.4078126299
C       7.2360305427     4.0877072352    22.8151555987
H       6.0675545073     5.0340166457    21.2837094243
H       8.6847206144     3.5731736696    20.5803885808
H       8.3956976491     5.3326379239    20.5757731281
H       8.0105568823     4.8599124913    22.9891091580
H       7.6932912639     3.0956854137    22.9733930746
H       6.4394754200     2.5608512864    20.2697106614
H       4.4042172051     2.9414055888    20.3517324477
H       6.3877868623     4.1027675681    24.5896485870
O       3.5093800596     2.7774628603    19.9325945219
H       3.3019017460     1.8341515122    20.0879555496
80
Step 5 | NEB Image 5 | Cartesian Angstrom
Ni      1.2286497034     0.7093615225    11.2499999440
Ni      2.4572989609     2.8374461750    11.2499999440
Ni      3.6859482184     4.9655308275    11.2499999440
Ni      4.9145974759     7.0936154800    11.2499999440
Ni      3.6859497034     0.7093615225    11.2499999440
Ni      4.9145989609     2.8374461750    11.2499999440
Ni      6.1432482184     4.9655308275    11.2499999440
Ni      7.3718974759     7.0936154800    11.2499999440
Ni      6.1432497034     0.7093615225    11.2499999440
Ni      7.3718989609     2.8374461750    11.2499999440
Ni      8.6005482184     4.9655308275    11.2499999440
Ni      9.8291974759     7.0936154800    11.2499999440
Ni      8.6005497034     0.7093615225    11.2499999440
Ni      9.8291989609     2.8374461750    11.2499999440
Ni     11.0578482184     4.9655308275    11.2499999440
Ni     12.2864974759     7.0936154800    11.2499999440
Ni     14.7391156794     8.5053429999    13.3011712910
Ni     11.0531329642     2.1206495503    13.3008022026
Ni     12.2817169557     4.2489790177    13.3006008466
Ni     13.5101985270     6.3773433856    13.3009432678
Ni      7.3672569131     8.5047181091    13.3011774747
Ni      3.6813641840     2.1207833643    13.3007249066
Ni      4.9098915592     4.2493198517    13.3009123494
Ni      6.1382080000     6.3774560890    13.3011137055
Ni      9.8241033938     8.5046823573    13.3010831736
Ni      6.1383369699     2.1207818321    13.3007716707
Ni      7.3668809566     4.2490234521    13.3008056810
Ni      8.5953896076     6.3767159412    13.3009509974
Ni     12.2816608204     8.5051500252    13.3006066438
Ni      8.5958457422     2.1206092019    13.3010364095
Ni      9.8244550440     4.2487038138    13.3007276120
Ni     11.0528529688     6.3769410074    13.3006611374
Cu      2.4478274055     1.4024593708    15.3768195742
Cu      3.6763308468     3.5307009057    15.3768060474
Cu      4.9041378398     5.6597275336    15.3773448005
Cu      6.1330260451     7.7878910103    15.3784795057
Cu      4.9046987540     1.4026027186    15.3777977550
Cu      6.1325026510     3.5313493756    15.3777258697
Cu      7.3610720952     5.6598451741    15.3779276123
Cu      8.5906751295     7.7868954923    15.3785351588
Cu      7.3621786280     1.4037477983    15.3762151195
Cu      8.5904727564     3.5321453644    15.3780682910
Cu      9.8190628915     5.6596863338    15.3769316534
Cu     11.0489115080     7.7874997832    15.3777154348
Cu      9.8196453802     1.4041813317    15.3774700200
Cu     11.0479045662     3.5315147704    15.3771971651
Cu     12.2765483193     5.6595852924    15.3771299176
Cu     13.5054403579     7.7883030926    15.3772814178
Cu      1.2140125591     0.6836803076    17.5697065574
Cu      2.4431555374     2.8116125893    17.5665702724
Cu      3.6705110760     4.9384343512    17.5687388115
Cu      4.8988742539     7.0688538531    17.5715929661
Cu      3.6716454744     0.6829118137    17.5713989532
Cu      4.8981418913     2.8112417067    17.5722074693
Cu      6.1274353048     4.9410331682    17.5708265763
Cu      7.3554752500     7.0698228126    17.5713297733
Cu      6.1297077779     0.6833063606    17.5689100221
Cu      7.3567237656     2.8135682139    17.5698797004
Cu      8.5851063076     4.9421568820    17.5702368079
Cu      9.8152975701     7.0699596058    17.5700617325
Cu      8.5865082080     0.6855771971    17.5667967496
Cu      9.8144914881     2.8135456562    17.5749499312
Cu     11.0427692018     4.9416447797    17.5690866435
Cu     12.2728600100     7.0692517198    17.5719744219
O       5.4816243728     2.5651691502    20.6539118200
O       7.3508896973     4.2099530947    19.0383354809
O       4.4981563510     3.9587391709    22.9072956728
C       5.9290713561     3.8945947838    20.9960208007
C       7.3297021271     4.1881915565    20.4688911028
C       5.8721709119     4.0116672750    22.5089584937
H       5.2340507257     4.6323215466    20.5533350446
H       8.0432145389     3.4244560240    20.8191443760
H       7.6571223136     5.1738780612    20.8354754738
H       6.3359933253     4.9675285031    22.8148914030
H       6.4497260984     3.1808581747    22.9509168945
H       5.8597578631     2.3152772777    19.7784701378
H       3.6583776659     2.5435355524    20.3168147116
H       4.4610770249     3.8064239805    23.8648388416
O       2.7103082747     2.5416543255    20.0177020144
H       2.4292112216     1.6097423068    20.0822731560
