80
Step 1 | NEB Image 1 | Cartesian Angstrom
Ni      1.2286497034     0.7093615225    11.2499999440
Ni      2.4572989609     2.8374461750    11.2499999440
Ni      3.6859482184     4.9655308275    11.2499999440
Ni      4.9145974759     7.0936154800    11.2499999440
Ni      3.6859497034     0.7093615225    11.2499999440
Ni      4.9145989609     2.8374461750    11.2499999440
Ni      6.1432482184     4.9655308275    11.2499999440
Ni      7.3718974759     7.0936154800    11.2499999440
Ni      6.1432497034     0.7093615225    11.2499999440
Ni      7.3718989609     2.8374461750    11.2499999440
Ni      8.6005482184     4.9655308275    11.2499999440
Ni      9.8291974759     7.0936154800    11.2499999440
Ni      8.6005497034     0.7093615225    11.2499999440
Ni      9.8291989609     2.8374461750    11.2499999440
Ni     11.0578482184     4.9655308275    11.2499999440
Ni     12.2864974759     7.0936154800    11.2499999440
Ni     14.7391156794     8.5053429999    13.3011712910
Ni     11.0531329642     2.1206495503    13.3008022026
Ni     12.2817169557     4.2489790177    13.3006008466
Ni     13.5101985270     6.3773433856    13.3009432678
Ni      7.3672569131     8.5047181091    13.3011774747
Ni      3.6813641840     2.1207833643    13.3007249066
Ni      4.9098915592     4.2493198517    13.3009123494
Ni      6.1382080000     6.3774560890    13.3011137055
Ni      9.8241033938     8.5046823573    13.3010831736
Ni      6.1383369699     2.1207818321    13.3007716707
Ni      7.3668809566     4.2490234521    13.3008056810
Ni      8.5953896076     6.3767159412    13.3009509974
Ni     12.2816608204     8.5051500252    13.3006066438
Ni      8.5958457422     2.1206092019    13.3010364095
Ni      9.8244550440     4.2487038138    13.3007276120
Ni     11.0528529688     6.3769410074    13.3006611374
Cu      2.4478274055     1.4024593708    15.3768195742
Cu      3.6763308468     3.5307009057    15.3768060474
Cu      4.9041378398     5.6597275336    15.3773448005
Cu      6.1330260451     7.7878910103    15.3784795057
Cu      4.9046987540     1.4026027186    15.3777977550
Cu      6.1325026510     3.5313493756    15.3777258697
Cu      7.3610720952     5.6598451741    15.3779276123
Cu      8.5906751295     7.7868954923    15.3785351588
Cu      7.3621786280     1.4037477983    15.3762151195
Cu      8.5904727564     3.5321453644    15.3780682910
Cu      9.8190628915     5.6596863338    15.3769316534
Cu     11.0489115080     7.7874997832    15.3777154348
Cu      9.8196453802     1.4041813317    15.3774700200
Cu     11.0479045662     3.5315147704    15.3771971651
Cu     12.2765483193     5.6595852924    15.3771299176
Cu     13.5054403579     7.7883030926    15.3772814178
Cu      1.2140125591     0.6836803076    17.5697065574
Cu      2.4431555374     2.8116125893    17.5665702724
Cu      3.6705110760     4.9384343512    17.5687388115
Cu      4.8988742539     7.0688538531    17.5715929661
Cu      3.6716454744     0.6829118137    17.5713989532
Cu      4.8981418913     2.8112417067    17.5722074693
Cu      6.1274353048     4.9410331682    17.5708265763
Cu      7.3554752500     7.0698228126    17.5713297733
Cu      6.1297077779     0.6833063606    17.5689100221
Cu      7.3567237656     2.8135682139    17.5698797004
Cu      8.5851063076     4.9421568820    17.5702368079
Cu      9.8152975701     7.0699596058    17.5700617325
Cu      8.5865082080     0.6855771971    17.5667967496
Cu      9.8144914881     2.8135456562    17.5749499312
Cu     11.0427692018     4.9416447797    17.5690866435
Cu     12.2728600100     7.0692517198    17.5719744219
O       7.2288202015     4.2734569284    22.3446828621
O       8.3044696405     5.3171068409    20.0014702420
O       8.8891638945     4.8479579810    24.7349733808
C       8.5251333110     4.9000290628    22.3715153937
C       9.1804211035     4.7744357207    20.9993344800
C       9.4189460410     4.3898719266    23.4895992517
H       8.3072385962     5.9614198807    22.5605187870
H       9.4153356173     3.7172718747    20.7683620669
H      10.1139922737     5.3503076003    20.9408546493
H      10.4461642949     4.7683945991    23.3275539960
H       9.4595638267     3.2836247445    23.4537018323
H       7.3561498138     3.3073831923    22.3295378714
H       7.4071380143     4.9636379387    20.1831718691
H       9.4432595602     4.5017937719    25.4528614775
O       2.4447775074     1.3898406800    19.0162048647
H       2.5328987835     1.2730973609    19.9764139723
80
Step 2 | NEB Image 2 | Cartesian Angstrom
Ni      1.2286107070     0.7093338072    11.2499222875
Ni      2.4572415562     2.8374299900    11.2498413576
Ni      3.6858883812     4.9655542268    11.2497781613
Ni      4.9145562712     7.0936812092    11.2497805652
Ni      3.6859142349     0.7093100678    11.2498581892
Ni      4.9145638413     2.8374139397    11.2497506508
Ni      6.1432319655     4.9655534449    11.2496981726
Ni      7.3719063153     7.0936853192    11.2497444596
Ni      6.1432408177     0.7092914352    11.2498078795
Ni      7.3719142748     2.8374054459    11.2497149752
Ni      8.6005913501     4.9655485968    11.2497068350
Ni      9.8292500581     7.0936712128    11.2497861006
Ni      8.6005788619     0.7092905572    11.2498049857
Ni      9.8292596036     2.8374109414    11.2497599652
Ni     11.0579224232     4.9655428167    11.2497911563
Ni     12.2865602041     7.0936504545    11.2498643925
Ni     14.7391914870     8.5053866866    13.3010794209
Ni     11.0533184857     2.1205364820    13.3003823819
Ni     12.2819134221     4.2489716683    13.3002541473
Ni     13.5103361275     6.3773885254    13.3007448179
Ni      7.3672697953     8.5049552089    13.3007197334
Ni      3.6812467654     2.1206695380    13.3002315123
Ni      4.9097664075     4.2493427283    13.3001322353
Ni      6.1381494876     6.3776631785    13.3003687504
Ni      9.8242074979     8.5048626871    13.3007172528
Ni      6.1383173108     2.1206010863    13.3000928398
Ni      7.3669404305     4.2490158798    13.2999041149
Ni      8.5955082789     6.3768921397    13.3002426604
Ni     12.2817734747     8.5052483234    13.3004014939
Ni      8.5959707763     2.1204313877    13.3003911110
Ni      9.8246624083     4.2486884839    13.3000508788
Ni     11.0530394147     6.3770429129    13.3002237484
Cu      2.4475084710     1.4020663459    15.3758031759
Cu      3.6757832417     3.5308027962    15.3744506329
Cu      4.9033752077     5.6605506895    15.3746623539
Cu      6.1327916908     7.7888067707    15.3769820396
Cu      4.9045467406     1.4018289688    15.3761949504
Cu      6.1324167843     3.5309100066    15.3742441280
Cu      7.3612584074     5.6606374749    15.3745555991
Cu      8.5909364508     7.7876925825    15.3770978966
Cu      7.3623862403     1.4028216634    15.3743951476
Cu      8.5911457307     3.5316511833    15.3751587070
Cu      9.8198857968     5.6601153183    15.3747786928
Cu     11.0493107690     7.7878941563    15.3769501052
Cu      9.8201463061     1.4035649321    15.3762023239
Cu     11.0486456848     3.5313094167    15.3758712908
Cu     12.2770682732     5.6597187765    15.3764010945
Cu     13.5056755306     7.7884388927    15.3770109340
Cu      1.2130825159     0.6828297421    17.5688509822
Cu      2.4398721394     2.8218832459    17.5448020964
Cu      3.6639868134     4.9425893770    17.5591363282
Cu      4.8962770263     7.0734930786    17.5665295515
Cu      3.6723453905     0.6801001470    17.5683649002
Cu      4.8945794582     2.8042639583    17.5521588813
Cu      6.1245948775     4.9497716540    17.5351115955
Cu      7.3551034903     7.0763455578    17.5627210728
Cu      6.1297847242     0.6796931740    17.5653721809
Cu      7.3610268313     2.8062372311    17.5526214423
Cu      8.5930272738     4.9440264341    17.5417644725
Cu      9.8174489559     7.0730501664    17.5650949704
Cu      8.5878301938     0.6824259495    17.5632626134
Cu      9.8185037416     2.8103512899    17.5675482752
Cu     11.0462442814     4.9418858352    17.5645292490
Cu     12.2739022512     7.0698588373    17.5708996869
O       6.4942104238     3.7241387110    21.9050425720
O       7.8927196432     5.2050226855    20.0169881527
O       7.4035601285     4.1864807209    24.6705339058
C       7.6214854004     4.5202785362    22.3133770280
C       8.5912229053     4.6640019159    21.1430853648
C       8.2992367613     4.0100977937    23.5730874357
H       7.1876545026     5.5099822992    22.5316859974
H       9.0357791309     3.6817124503    20.8818026269
H       9.4064790245     5.3596453845    21.3716421353
H       9.2351881530     4.5792159988    23.7238302505
H       8.5715971551     2.9433275452    23.4413113214
H       6.7934343770     2.8057667296    21.7855745323
H       7.0344962807     4.7287130700    19.9657739540
H       7.8519651562     3.8899730465    25.4878960299
O       2.4496661046     1.4159477541    18.9896407663
H       2.5383930067     1.4071567615    19.9597001988
80
Step 3 | NEB Image 3 | Cartesian Angstrom
Ni      1.2285995494     0.7093240366    11.2498964671
Ni      2.4572265486     2.8374247432    11.2497835653
Ni      3.6858799158     4.9655662473    11.2497017643
Ni      4.9145570289     7.0937051638    11.2497171225
Ni      3.6859073890     0.7092932220    11.2498087869
Ni      4.9145648367     2.8374076207    11.2496673643
Ni      6.1432437372     4.9655666526    11.2496133218
Ni      7.3719215554     7.0937075120    11.2496839520
Ni      6.1432481891     0.7092727513    11.2497473495
Ni      7.3719336275     2.8374003814    11.2496369060
Ni      8.6006159400     4.9655587024    11.2496394597
Ni      9.8292716684     7.0936869285    11.2497438937
Ni      8.6005972194     0.7092756123    11.2497539325
Ni      9.8292859483     2.8374075333    11.2497059999
Ni     11.0579480215     4.9655491165    11.2497511881
Ni     12.2865785583     7.0936591811    11.2498423766
Ni     14.7392071822     8.5053940249    13.3010707063
Ni     11.0533836918     2.1205234381    13.3002994462
Ni     12.2819690043     4.2489785284    13.3002012920
Ni     13.5103683389     6.3773992530    13.3007221724
Ni      7.3673006045     8.5050194076    13.3006199963
Ni      3.6812116257     2.1206219340    13.3000295757
Ni      4.9097795843     4.2493769900    13.2998521628
Ni      6.1381842917     6.3777393891    13.3001743156
Ni      9.8242490408     8.5049046066    13.3006542472
Ni      6.1383593142     2.1205602765    13.2998582600
Ni      7.3670107300     4.2490421854    13.2996731896
Ni      8.5955715792     6.3769477314    13.3000933269
Ni     12.2818036302     8.5052672938    13.3003756317
Ni      8.5960442833     2.1204042748    13.3002268454
Ni      9.8247455492     4.2487006720    13.2999106090
Ni     11.0530996239     6.3770712471    13.3001523540
Cu      2.4473313004     1.4018570967    15.3756018801
Cu      3.6754885638     3.5308408407    15.3731582943
Cu      4.9034858552     5.6609586145    15.3737833367
Cu      6.1328631023     7.7890663438    15.3766380108
Cu      4.9045263362     1.4013937827    15.3753358628
Cu      6.1328077578     3.5310456452    15.3730768935
Cu      7.3614473444     5.6609163834    15.3738543108
Cu      8.5910857809     7.7878911562    15.3768416131
Cu      7.3626354997     1.4026236501    15.3738120845
Cu      8.5914774078     3.5316197593    15.3744812403
Cu      9.8202174211     5.6602763161    15.3743532100
Cu     11.0494266434     7.7879688320    15.3768709767
Cu      9.8203690961     1.4034698272    15.3759141113
Cu     11.0488865680     3.5313130810    15.3756692576
Cu     12.2771908927     5.6597542144    15.3763446355
Cu     13.5057193051     7.7884573839    15.3769995700
Cu      1.2138412333     0.6834342340    17.5698523121
Cu      2.4373067042     2.8186132514    17.5395933642
Cu      3.6598881612     4.9472543181    17.5500695849
Cu      4.8965923506     7.0751941030    17.5650385204
Cu      3.6706178095     0.6799115493    17.5688734574
Cu      4.8937458270     2.7982194182    17.5313494462
Cu      6.1304814012     4.9536809828    17.5345888563
Cu      7.3556750038     7.0778343688    17.5612550559
Cu      6.1304453927     0.6777371830    17.5631019952
Cu      7.3638378067     2.8072235684    17.5494064835
Cu      8.5984377829     4.9464954862    17.5322121144
Cu      9.8182490024     7.0735455477    17.5648143328
Cu      8.5888118850     0.6816022335    17.5619786608
Cu      9.8201990004     2.8100209116    17.5662880028
Cu     11.0470225685     4.9420988538    17.5646283690
Cu     12.2740389057     7.0698883427    17.5709765557
O       5.7941885561     3.3013776236    21.8433981037
O       7.2193647638     4.3118124436    19.8468740518
O       6.3780831922     4.2200481969    24.5585441014
C       6.8047672688     4.2632247039    22.2078695750
C       7.8776257432     4.2994863013    21.1179935740
C       7.3946159165     4.0066204788    23.5794225184
H       6.2684968620     5.2244801774    22.2156588990
H       8.5482906855     3.4207634191    21.1850002254
H       8.4917521099     5.2073640598    21.1780581361
H       8.2533419034     4.6876218054    23.7306090347
H       7.7823161262     2.9685984662    23.6169953197
H       6.1600626539     2.4054615595    21.9713011359
H       6.4044373669     3.7673333883    19.9595614789
H       6.7495445359     4.0129493035    25.4428621360
O       3.6222010035     2.0904368747    19.0008576740
H       3.2767800249     1.9806786905    19.9051857007
80
Step 4 | NEB Image 4 | Cartesian Angstrom
Ni      1.2286023646     0.7093262778    11.2499013377
Ni      2.4572307321     2.8374263621    11.2497949323
Ni      3.6858837074     4.9655646382    11.2497177342
Ni      4.9145590808     7.0937006299    11.2497316142
Ni      3.6859098271     0.7092970904    11.2498179397
Ni      4.9145667278     2.8374101137    11.2496841973
Ni      6.1432439005     4.9655651514    11.2496325581
Ni      7.3719203968     7.0937032368    11.2496991267
Ni      6.1432484932     0.7092773829    11.2497589779
Ni      7.3719320999     2.8374029764    11.2496539137
Ni      8.6006129016     4.9655577160    11.2496561216
Ni      9.8292683921     7.0936838283    11.2497556633
Ni      8.6005953611     0.7092797334    11.2497647462
Ni      9.8292823236     2.8374095485    11.2497190940
Ni     11.0579437774     4.9655485187    11.2497623699
Ni     12.2865750597     7.0936573508    11.2498495172
Ni     14.7392032136     8.5053918480    13.3010752493
Ni     11.0533737304     2.1205294849    13.3003215938
Ni     12.2819584164     4.2489789533    13.3002193332
Ni     13.5103610090     6.3773969569    13.3007322540
Ni      7.3672986647     8.5050051984    13.3006465328
Ni      3.6812211891     2.1206328458    13.3000658842
Ni      4.9097858044     4.2493751836    13.2999100316
Ni      6.1381848888     6.3777252280    13.3002219801
Ni      9.8242426950     8.5048946434    13.3006742108
Ni      6.1383585639     2.1205732946    13.2999027609
Ni      7.3670041961     4.2490424575    13.2997272825
Ni      8.5955635629     6.3769376300    13.3001333364
Ni     12.2817973769     8.5052621558    13.3003862688
Ni      8.5960363971     2.1204144971    13.3002623861
Ni      9.8247335526     4.2487018142    13.2999472970
Ni     11.0530890117     6.3770658277    13.3001757024
Cu      2.4473613482     1.4018971239    15.3756510439
Cu      3.6755502759     3.5308438798    15.3733772153
Cu      4.9035206487     5.6608855128    15.3739947970
Cu      6.1328701888     7.7890072431    15.3767287147
Cu      4.9045442209     1.4014714314    15.3754598347
Cu      6.1327844357     3.5310712381    15.3733307717
Cu      7.3614265888     5.6608676098    15.3740501309
Cu      8.5910690351     7.7878459273    15.3769218699
Cu      7.3626187521     1.4026787814    15.3739134510
Cu      8.5914406566     3.5316502953    15.3746369911
Cu      9.8201685375     5.6602524531    15.3744746089
Cu     11.0494035148     7.7879476227    15.3769117588
Cu      9.8203437834     1.4035023915    15.3759816618
Cu     11.0488462843     3.5313241447    15.3757398620
Cu     12.2771624669     5.6597472197    15.3763818072
Cu     13.5057068537     7.7884505991    15.3770127151
Cu      1.2137567219     0.6833849494    17.5697121985
Cu      2.4375945774     2.8181511232    17.5413647271
Cu      3.6609504600     4.9467684936    17.5514316300
Cu      4.8966947805     7.0747986535    17.5653989981
Cu      3.6707538688     0.6799707416    17.5687885942
Cu      4.8947510710     2.7996757971    17.5340094122
Cu      6.1295451126     4.9526682510    17.5366156673
Cu      7.3557037913     7.0774758508    17.5617277998
Cu      6.1304623852     0.6779948855    17.5632801197
Cu      7.3634393191     2.8074870002    17.5501025673
Cu      8.5980541599     4.9465097220    17.5341729994
Cu      9.8181082711     7.0733681397    17.5650961152
Cu      8.5887662901     0.6817625204    17.5621778334
Cu      9.8199921280     2.8101956657    17.5667161973
Cu     11.0468180473     4.9420806342    17.5648560339
Cu     12.2739826033     7.0698591950    17.5710245482
O       6.0511215902     2.8771788957    21.1438303670
O       7.4219502234     4.2503396225    19.0794534958
O       6.1891870705     4.2070143484    23.7758736598
C       6.7550374571     4.1080466879    21.4444632477
C       7.8806804355     4.3469851269    20.4380505528
C       7.2904675839     4.0525007024    22.8737203157
H       6.0187031549     4.9275157563    21.3848326933
H       8.6808949416     3.5995709830    20.5933887374
H       8.3158214556     5.3435729339    20.6131079210
H       8.0340272296     4.8584349029    23.0231750957
H       7.7947247353     3.0817598699    23.0239041555
H       6.5123137627     2.4425415728    20.3985224562
H       4.5163473307     2.9495371953    20.4227934909
H       6.5043648863     4.0429296577    24.6799207447
O       3.6410142147     2.8706964748    19.9393873708
H       3.3453673597     1.9539885752    20.0928232784
80
Step 5 | NEB Image 5 | Cartesian Angstrom
Ni      1.2286497034     0.7093615225    11.2499999440
Ni      2.4572989609     2.8374461750    11.2499999440
Ni      3.6859482184     4.9655308275    11.2499999440
Ni      4.9145974759     7.0936154800    11.2499999440
Ni      3.6859497034     0.7093615225    11.2499999440
Ni      4.9145989609     2.8374461750    11.2499999440
Ni      6.1432482184     4.9655308275    11.2499999440
Ni      7.3718974759     7.0936154800    11.2499999440
Ni      6.1432497034     0.7093615225    11.2499999440
Ni      7.3718989609     2.8374461750    11.2499999440
Ni      8.6005482184     4.9655308275    11.2499999440
Ni      9.8291974759     7.0936154800    11.2499999440
Ni      8.6005497034     0.7093615225    11.2499999440
Ni      9.8291989609     2.8374461750    11.2499999440
Ni     11.0578482184     4.9655308275    11.2499999440
Ni     12.2864974759     7.0936154800    11.2499999440
Ni     14.7391156794     8.5053429999    13.3011712910
Ni     11.0531329642     2.1206495503    13.3008022026
Ni     12.2817169557     4.2489790177    13.3006008466
Ni     13.5101985270     6.3773433856    13.3009432678
Ni      7.3672569131     8.5047181091    13.3011774747
Ni      3.6813641840     2.1207833643    13.3007249066
Ni      4.9098915592     4.2493198517    13.3009123494
Ni      6.1382080000     6.3774560890    13.3011137055
Ni      9.8241033938     8.5046823573    13.3010831736
Ni      6.1383369699     2.1207818321    13.3007716707
Ni      7.3668809566     4.2490234521    13.3008056810
Ni      8.5953896076     6.3767159412    13.3009509974
Ni     12.2816608204     8.5051500252    13.3006066438
Ni      8.5958457422     2.1206092019    13.3010364095
Ni      9.8244550440     4.2487038138    13.3007276120
Ni     11.0528529688     6.3769410074    13.3006611374
Cu      2.4478274055     1.4024593708    15.3768195742
Cu      3.6763308468     3.5307009057    15.3768060474
Cu      4.9041378398     5.6597275336    15.3773448005
Cu      6.1330260451     7.7878910103    15.3784795057
Cu      4.9046987540     1.4026027186    15.3777977550
Cu      6.1325026510     3.5313493756    15.3777258697
Cu      7.3610720952     5.6598451741    15.3779276123
Cu      8.5906751295     7.7868954923    15.3785351588
Cu      7.3621786280     1.4037477983    15.3762151195
Cu      8.5904727564     3.5321453644    15.3780682910
Cu      9.8190628915     5.6596863338    15.3769316534
Cu     11.0489115080     7.7874997832    15.3777154348
Cu      9.8196453802     1.4041813317    15.3774700200
Cu     11.0479045662     3.5315147704    15.3771971651
Cu     12.2765483193     5.6595852924    15.3771299176
Cu     13.5054403579     7.7883030926    15.3772814178
Cu      1.2140125591     0.6836803076    17.5697065574
Cu      2.4431555374     2.8116125893    17.5665702724
Cu      3.6705110760     4.9384343512    17.5687388115
Cu      4.8988742539     7.0688538531    17.5715929661
Cu      3.6716454744     0.6829118137    17.5713989532
Cu      4.8981418913     2.8112417067    17.5722074693
Cu      6.1274353048     4.9410331682    17.5708265763
Cu      7.3554752500     7.0698228126    17.5713297733
Cu      6.1297077779     0.6833063606    17.5689100221
Cu      7.3567237656     2.8135682139    17.5698797004
Cu      8.5851063076     4.9421568820    17.5702368079
Cu      9.8152975701     7.0699596058    17.5700617325
Cu      8.5865082080     0.6855771971    17.5667967496
Cu      9.8144914881     2.8135456562    17.5749499312
Cu     11.0427692018     4.9416447797    17.5690866435
Cu     12.2728600100     7.0692517198    17.5719744219
O       5.4816243728     2.5651691502    20.6539118200
O       7.3508896973     4.2099530947    19.0383354809
O       4.4981563510     3.9587391709    22.9072956728
C       5.9290713561     3.8945947838    20.9960208007
C       7.3297021271     4.1881915565    20.4688911028
C       5.8721709119     4.0116672750    22.5089584937
H       5.2340507257     4.6323215466    20.5533350446
H       8.0432145389     3.4244560240    20.8191443760
H       7.6571223136     5.1738780612    20.8354754738
H       6.3359933253     4.9675285031    22.8148914030
H       6.4497260984     3.1808581747    22.9509168945
H       5.8597578631     2.3152772777    19.7784701378
H       3.6583776659     2.5435355524    20.3168147116
H       4.4610770249     3.8064239805    23.8648388416
O       2.7103082747     2.5416543255    20.0177020144
H       2.4292112216     1.6097423068    20.0822731560
