80
Step 1 | NEB Image 1 | Cartesian Angstrom
Ni      1.2286497034     0.7093615225    11.2499999440
Ni      2.4572989609     2.8374461750    11.2499999440
Ni      3.6859482184     4.9655308275    11.2499999440
Ni      4.9145974759     7.0936154800    11.2499999440
Ni      3.6859497034     0.7093615225    11.2499999440
Ni      4.9145989609     2.8374461750    11.2499999440
Ni      6.1432482184     4.9655308275    11.2499999440
Ni      7.3718974759     7.0936154800    11.2499999440
Ni      6.1432497034     0.7093615225    11.2499999440
Ni      7.3718989609     2.8374461750    11.2499999440
Ni      8.6005482184     4.9655308275    11.2499999440
Ni      9.8291974759     7.0936154800    11.2499999440
Ni      8.6005497034     0.7093615225    11.2499999440
Ni      9.8291989609     2.8374461750    11.2499999440
Ni     11.0578482184     4.9655308275    11.2499999440
Ni     12.2864974759     7.0936154800    11.2499999440
Ni     14.7391156794     8.5053429999    13.3011712910
Ni     11.0531329642     2.1206495503    13.3008022026
Ni     12.2817169557     4.2489790177    13.3006008466
Ni     13.5101985270     6.3773433856    13.3009432678
Ni      7.3672569131     8.5047181091    13.3011774747
Ni      3.6813641840     2.1207833643    13.3007249066
Ni      4.9098915592     4.2493198517    13.3009123494
Ni      6.1382080000     6.3774560890    13.3011137055
Ni      9.8241033938     8.5046823573    13.3010831736
Ni      6.1383369699     2.1207818321    13.3007716707
Ni      7.3668809566     4.2490234521    13.3008056810
Ni      8.5953896076     6.3767159412    13.3009509974
Ni     12.2816608204     8.5051500252    13.3006066438
Ni      8.5958457422     2.1206092019    13.3010364095
Ni      9.8244550440     4.2487038138    13.3007276120
Ni     11.0528529688     6.3769410074    13.3006611374
Cu      2.4478274055     1.4024593708    15.3768195742
Cu      3.6763308468     3.5307009057    15.3768060474
Cu      4.9041378398     5.6597275336    15.3773448005
Cu      6.1330260451     7.7878910103    15.3784795057
Cu      4.9046987540     1.4026027186    15.3777977550
Cu      6.1325026510     3.5313493756    15.3777258697
Cu      7.3610720952     5.6598451741    15.3779276123
Cu      8.5906751295     7.7868954923    15.3785351588
Cu      7.3621786280     1.4037477983    15.3762151195
Cu      8.5904727564     3.5321453644    15.3780682910
Cu      9.8190628915     5.6596863338    15.3769316534
Cu     11.0489115080     7.7874997832    15.3777154348
Cu      9.8196453802     1.4041813317    15.3774700200
Cu     11.0479045662     3.5315147704    15.3771971651
Cu     12.2765483193     5.6595852924    15.3771299176
Cu     13.5054403579     7.7883030926    15.3772814178
Cu      1.2140125591     0.6836803076    17.5697065574
Cu      2.4431555374     2.8116125893    17.5665702724
Cu      3.6705110760     4.9384343512    17.5687388115
Cu      4.8988742539     7.0688538531    17.5715929661
Cu      3.6716454744     0.6829118137    17.5713989532
Cu      4.8981418913     2.8112417067    17.5722074693
Cu      6.1274353048     4.9410331682    17.5708265763
Cu      7.3554752500     7.0698228126    17.5713297733
Cu      6.1297077779     0.6833063606    17.5689100221
Cu      7.3567237656     2.8135682139    17.5698797004
Cu      8.5851063076     4.9421568820    17.5702368079
Cu      9.8152975701     7.0699596058    17.5700617325
Cu      8.5865082080     0.6855771971    17.5667967496
Cu      9.8144914881     2.8135456562    17.5749499312
Cu     11.0427692018     4.9416447797    17.5690866435
Cu     12.2728600100     7.0692517198    17.5719744219
O       7.2288202015     4.2734569284    22.3446828621
O       8.3044696405     5.3171068409    20.0014702420
O       8.8891638945     4.8479579810    24.7349733808
C       8.5251333110     4.9000290628    22.3715153937
C       9.1804211035     4.7744357207    20.9993344800
C       9.4189460410     4.3898719266    23.4895992517
H       8.3072385962     5.9614198807    22.5605187870
H       9.4153356173     3.7172718747    20.7683620669
H      10.1139922737     5.3503076003    20.9408546493
H      10.4461642949     4.7683945991    23.3275539960
H       9.4595638267     3.2836247445    23.4537018323
H       7.3561498138     3.3073831923    22.3295378714
H       7.4071380143     4.9636379387    20.1831718691
H       9.4432595602     4.5017937719    25.4528614775
O       2.4447775074     1.3898406800    19.0162048647
H       2.5328987835     1.2730973609    19.9764139723
80
Step 2 | NEB Image 2 | Cartesian Angstrom
Ni      1.2286133355     0.7093361038    11.2499283330
Ni      2.4572451007     2.8374312328    11.2498548993
Ni      3.6858904130     4.9655514274    11.2497960838
Ni      4.9145561435     7.0936756002    11.2497954765
Ni      3.6859158638     0.7093140277    11.2498697522
Ni      4.9145636554     2.8374154487    11.2497701765
Ni      6.1432292634     4.9655503750    11.2497181123
Ni      7.3719027860     7.0936801211    11.2497587118
Ni      6.1432391302     0.7092958348    11.2498220564
Ni      7.3719097918     2.8374066689    11.2497333056
Ni      8.6005856290     4.9655462517    11.2497226995
Ni      9.8292450165     7.0936675301    11.2497960691
Ni      8.6005746002     0.7092940859    11.2498169659
Ni      9.8292534659     2.8374117705    11.2497726664
Ni     11.0579164430     4.9655413551    11.2498005969
Ni     12.2865559059     7.0936484071    11.2498696150
Ni     14.7391877893     8.5053849505    13.3010815271
Ni     11.0533032718     2.1205396173    13.3004019476
Ni     12.2819004060     4.2489701011    13.3002667057
Ni     13.5103285572     6.3773860076    13.3007502518
Ni      7.3672626697     8.5049401302    13.3007432605
Ni      3.6812550594     2.1206807276    13.3002787521
Ni      4.9097635199     4.2493348121    13.3001979241
Ni      6.1381415012     6.3776453399    13.3004145235
Ni      9.8241978051     8.5048528257    13.3007321879
Ni      6.1383076392     2.1206107620    13.3001477687
Ni      7.3669241235     4.2490098395    13.2999584213
Ni      8.5954935472     6.3768791325    13.3002778931
Ni     12.2817664015     8.5052438463    13.3004076798
Ni      8.5959537015     2.1204378516    13.3004296745
Ni      9.8246430258     4.2486857083    13.3000839528
Ni     11.0530253346     6.3770362772    13.3002406884
Cu      2.4475498761     1.4021153509    15.3758505601
Cu      3.6758523749     3.5307941205    15.3747526496
Cu      4.9033505642     5.6604552675    15.3748691974
Cu      6.1327754373     7.7887457658    15.3770631740
Cu      4.9045518364     1.4019307599    15.3763952281
Cu      6.1323263881     3.5308794101    15.3745181820
Cu      7.3612145085     5.6605722599    15.3747212361
Cu      8.5909017467     7.7876459132    15.3771586253
Cu      7.3623285669     1.4028684285    15.3745314671
Cu      8.5910686594     3.5316590990    15.3753179594
Cu      9.8198084624     5.6600777709    15.3748792461
Cu     11.0492836100     7.7878765105    15.3769692185
Cu      9.8200945226     1.4035875312    15.3762701033
Cu     11.0485894028     3.5313088254    15.3759193309
Cu     12.2770394437     5.6597104722    15.3764149151
Cu     13.5056651864     7.7884344884    15.3770138443
Cu      1.2129062039     0.6826896787    17.5686176431
Cu      2.4404683476     2.8226243852    17.5460395341
Cu      3.6649530078     4.9415060968    17.5612512617
Cu      4.8962068713     7.0730931187    17.5668804500
Cu      3.6727455697     0.6801448400    17.5682460807
Cu      4.8947938779     2.8056863645    17.5570023729
Cu      6.1232205913     4.9488501010    17.5352777312
Cu      7.3549727783     7.0759952141    17.5630687686
Cu      6.1296332520     0.6801486141    17.5658980348
Cu      7.3603716752     2.8060164933    17.5533762074
Cu      8.5917749399     4.9434592339    17.5440046125
Cu      9.8172618688     7.0729322759    17.5651658690
Cu      8.5876035131     0.6826189208    17.5635622544
Cu      9.8181093852     2.8104311935    17.5678476690
Cu     11.0460607485     4.9418364586    17.5645116307
Cu     12.2738695632     7.0698513940    17.5708831071
O       6.5562936773     3.7597744277    21.8850691012
O       7.8530075674     5.1034267309    19.8640392825
O       7.5664743631     4.4396687577    24.5843667846
C       7.6933704201     4.5814672868    22.1978964270
C       8.6125009696     4.6423372615    20.9861668634
C       8.4176461772     4.1663872562    23.4618061065
H       7.2597085648     5.5809103069    22.3571086940
H       9.0595510302     3.6542972804    20.7663748209
H       9.4331914056     5.3671706850    21.1205369969
H       9.3614829168     4.7380816051    23.5310314045
H       8.6770907215     3.0916440517    23.4076684881
H       6.8603229332     2.8272089292    21.8032603349
H       6.9927297092     4.6034106581    19.8909629488
H       8.0277807574     4.1959208319    25.3895489916
O       2.4361466964     1.4077667766    18.9934961551
H       2.5191242673     1.3835017468    19.9657430858
80
Step 3 | NEB Image 3 | Cartesian Angstrom
Ni      1.2286014912     0.7093257855    11.2499013166
Ni      2.4572290745     2.8374255924    11.2497943188
Ni      3.6858810306     4.9655638471    11.2497157754
Ni      4.9145564114     7.0937006680    11.2497284916
Ni      3.6859084265     0.7092962363    11.2498181014
Ni      4.9145641996     2.8374085259    11.2496827638
Ni      6.1432410102     4.9655639576    11.2496285587
Ni      7.3719183215     7.0937033631    11.2496945020
Ni      6.1432464377     0.7092760207    11.2497586725
Ni      7.3719295331     2.8374009776    11.2496510747
Ni      8.6006109753     4.9655566052    11.2496512581
Ni      9.8292674364     7.0936840062    11.2497509964
Ni      8.6005934242     0.7092781374    11.2497632649
Ni      9.8292807092     2.8374078763    11.2497155045
Ni     11.0579430872     4.9655478054    11.2497579062
Ni     12.2865751190     7.0936575820    11.2498458647
Ni     14.7392044526     8.5053928182    13.3010717155
Ni     11.0533709387     2.1205251116    13.3003136150
Ni     12.2819585874     4.2489768678    13.3002094717
Ni     13.5103625606     6.3773972972    13.3007251678
Ni      7.3672939798     8.5050078045    13.3006370566
Ni      3.6812175901     2.1206304565    13.3000678887
Ni      4.9097752248     4.2493695470    13.2999036743
Ni      6.1381762043     6.3777250290    13.3002084548
Ni      9.8242409157     8.5048971785    13.3006643317
Ni      6.1383498724     2.1205667895    13.2999022634
Ni      7.3669960703     4.2490361116    13.2997142808
Ni      8.5955588408     6.3769372071    13.3001188108
Ni     12.2817980889     8.5052640685    13.3003792424
Ni      8.5960291830     2.1204082612    13.3002567111
Ni      9.8247291359     4.2486976379    13.2999347395
Ni     11.0530881543     6.3770659417    13.3001636238
Cu      2.4473653060     1.4018962767    15.3756372635
Cu      3.6755425827     3.5308314837    15.3734063974
Cu      4.9034530227     5.6608811670    15.3739385476
Cu      6.1328452396     7.7890197864    15.3766970374
Cu      4.9045271298     1.4014764792    15.3755054573
Cu      6.1327234092     3.5310090902    15.3732888231
Cu      7.3614086367     5.6608631691    15.3739722692
Cu      8.5910552613     7.7878555433    15.3768828382
Cu      7.3625821313     1.4026569910    15.3739234589
Cu      8.5914095250     3.5316203336    15.3746024266
Cu      9.8201521769     5.6602446696    15.3744242162
Cu     11.0494051555     7.7879563488    15.3768802406
Cu      9.8203236343     1.4034845234    15.3759653880
Cu     11.0488402103     3.5313098479    15.3757001678
Cu     12.2771690093     5.6597476257    15.3763494976
Cu     13.5057119916     7.7884546247    15.3769993226
Cu      1.2136860458     0.6833066844    17.5696536879
Cu      2.4378309781     2.8194609963    17.5404008717
Cu      3.6605953526     4.9462928394    17.5518478564
Cu      4.8964980750     7.0748907696    17.5653014092
Cu      3.6709833716     0.6799418581    17.5687755462
Cu      4.8937188108     2.7992862284    17.5355317376
Cu      6.1293381256     4.9530063500    17.5342695904
Cu      7.3555380927     7.0775715634    17.5614879201
Cu      6.1302906495     0.6781286369    17.5635825191
Cu      7.3632813364     2.8069410072    17.5499908984
Cu      8.5972837011     4.9459278459    17.5339717784
Cu      9.8180965361     7.0734706846    17.5648174975
Cu      8.5885972885     0.6817558782    17.5622291218
Cu      9.8198561595     2.8100586207    17.5664834674
Cu     11.0468888877     4.9420540907    17.5645564168
Cu     12.2740198482     7.0698879065    17.5709485892
O       5.9844760914     3.4954807618    21.3993872848
O       7.4836424241     4.3687592196    19.5267049541
O       6.4967864722     4.2865573488    24.1869400177
C       7.0008414265     4.4084474264    21.8452791118
C       8.1624012697     4.4246932424    20.8175857730
C       7.5576463159     4.0462115022    23.2186040917
H       6.5177721250     5.3566233590    21.8680615141
H       8.8281545387     3.5816830019    20.8989568783
H       8.7099359224     5.3607022182    20.8372161781
H       8.4225483759     4.7040677776    23.4192116916
H       7.8861971189     3.0149559496    23.2326072776
H       6.3076272676     2.5582364980    21.4533363190
H       6.6089062398     3.9177291854    19.7218522989
H       6.8363725109     4.0821716901    25.0498920077
O       3.1038387708     1.7851056065    19.1225237136
H       2.4189827119     1.4185182979    19.7367870089
80
Step 4 | NEB Image 4 | Cartesian Angstrom
Ni      1.2286069488     0.7093299151    11.2499091785
Ni      2.4572375664     2.8374290146    11.2498132658
Ni      3.6858899727     4.9655620962    11.2497435582
Ni      4.9145625455     7.0936933300    11.2497551296
Ni      3.6859138365     0.7093033689    11.2498326622
Ni      4.9145699252     2.8374142229    11.2497113785
Ni      6.1432443388     4.9655628078    11.2496637634
Ni      7.3719186579     7.0936963478    11.2497238327
Ni      6.1432491077     0.7092849206    11.2497777132
Ni      7.3719297971     2.8374072747    11.2496814615
Ni      8.6006081280     4.9655561958    11.2496832357
Ni      9.8292631767     7.0936788275    11.2497748909
Ni      8.6005924877     0.7092864636    11.2497822417
Ni      9.8292765874     2.8374128936    11.2497403880
Ni     11.0579369879     4.9655475999    11.2497806390
Ni     12.2865694249     7.0936543907    11.2498612325
Ni     14.7391967507     8.5053882852    13.3010827761
Ni     11.0533578662     2.1205394834    13.3003577266
Ni     12.2819413640     4.2489797640    13.3002489710
Ni     13.5103491165     6.3773932404    13.3007489114
Ni      7.3672958271     8.5049821693    13.3006898209
Ni      3.6812368008     2.1206505542    13.3001242042
Ni      4.9097964584     4.2493726182    13.3000035623
Ni      6.1381863774     6.3777024467    13.3002995216
Ni      9.8242325891     8.5048784528    13.3007069438
Ni      6.1383578841     2.1205946433    13.2999744192
Ni      7.3669941728     4.2490432808    13.2998151392
Ni      8.5955509467     6.3769213965    13.3001986171
Ni     12.2817872683     8.5052537697    13.3004038166
Ni      8.5960241415     2.1204313295    13.3003199364
Ni      9.8247145112     4.2487039061    13.3000071119
Ni     11.0530719826     6.3770570977    13.3002140173
Cu      2.4474094724     1.4019616026    15.3757310141
Cu      3.6756500740     3.5308495243    15.3737278153
Cu      4.9035807587     5.6607681131    15.3743385761
Cu      6.1328831103     7.7889113537    15.3768766341
Cu      4.9045740458     1.4015961072    15.3756566073
Cu      6.1327506030     3.5311162062    15.3737419576
Cu      7.3613942712     5.6607893743    15.3743700485
Cu      8.5910429179     7.7877725437    15.3770534205
Cu      7.3625940193     1.4027688431    15.3740760011
Cu      8.5913833930     3.5317012650    15.3748897842
Cu      9.8200908488     5.6602145161    15.3746730710
Cu     11.0493661875     7.7879129546    15.3769793151
Cu      9.8203042641     1.4035558915    15.3760913784
Cu     11.0487818131     3.5313428210    15.3758559164
Cu     12.2771163158     5.6597359365    15.3764436003
Cu     13.5056865001     7.7884394338    15.3770346866
Cu      1.2136249857     0.6833103745    17.5694902269
Cu      2.4380435776     2.8173277423    17.5442744195
Cu      3.6626818852     4.9460154032    17.5535986805
Cu      4.8968715956     7.0741565497    17.5659851441
Cu      3.6709589305     0.6800677708    17.5686527921
Cu      4.8964317841     2.8020436206    17.5381984056
Cu      6.1280506465     4.9510176410    17.5400204649
Cu      7.3557601899     7.0768929732    17.5625032889
Cu      6.1305001652     0.6784015570    17.5635484620
Cu      7.3628075135     2.8079441732    17.5512297549
Cu      8.5974834747     4.9465679720    17.5373414303
Cu      9.8178824649     7.0730763590    17.5655665879
Cu      8.5887031644     0.6820209193    17.5624953039
Cu      9.8196674065     2.8104852698    17.5674195461
Cu     11.0464845510     4.9420529203    17.5652406750
Cu     12.2738897180     7.0698105355    17.5711064092
O       5.9924816754     2.9916532248    21.0648961599
O       7.4624610646     4.2606467456    19.0535195989
O       6.1124634677     4.2944946829    23.6743564384
C       6.7648519192     4.1753766186    21.3852729279
C       7.9203112525     4.3573046165    20.4188007809
C       7.2577096538     4.0839184408    22.8063003171
H       6.0722645675     5.0305731447    21.2907807360
H       8.6923073695     3.5740081706    20.5822896934
H       8.3977272840     5.3355651536    20.5760505560
H       8.0202119931     4.8577492731    22.9884162335
H       7.7023681613     3.0958768322    22.9767716225
H       6.4430424623     2.5529293253    20.2702355888
H       4.4352429409     2.9617878077    20.3428654941
H       6.4106353714     4.0989288778    24.6134484682
O       3.5094945311     2.7783918889    19.9384063391
H       3.2799711571     1.8125049948    20.0837443848
80
Step 5 | NEB Image 5 | Cartesian Angstrom
Ni      1.2286497034     0.7093615225    11.2499999440
Ni      2.4572989609     2.8374461750    11.2499999440
Ni      3.6859482184     4.9655308275    11.2499999440
Ni      4.9145974759     7.0936154800    11.2499999440
Ni      3.6859497034     0.7093615225    11.2499999440
Ni      4.9145989609     2.8374461750    11.2499999440
Ni      6.1432482184     4.9655308275    11.2499999440
Ni      7.3718974759     7.0936154800    11.2499999440
Ni      6.1432497034     0.7093615225    11.2499999440
Ni      7.3718989609     2.8374461750    11.2499999440
Ni      8.6005482184     4.9655308275    11.2499999440
Ni      9.8291974759     7.0936154800    11.2499999440
Ni      8.6005497034     0.7093615225    11.2499999440
Ni      9.8291989609     2.8374461750    11.2499999440
Ni     11.0578482184     4.9655308275    11.2499999440
Ni     12.2864974759     7.0936154800    11.2499999440
Ni     14.7391156794     8.5053429999    13.3011712910
Ni     11.0531329642     2.1206495503    13.3008022026
Ni     12.2817169557     4.2489790177    13.3006008466
Ni     13.5101985270     6.3773433856    13.3009432678
Ni      7.3672569131     8.5047181091    13.3011774747
Ni      3.6813641840     2.1207833643    13.3007249066
Ni      4.9098915592     4.2493198517    13.3009123494
Ni      6.1382080000     6.3774560890    13.3011137055
Ni      9.8241033938     8.5046823573    13.3010831736
Ni      6.1383369699     2.1207818321    13.3007716707
Ni      7.3668809566     4.2490234521    13.3008056810
Ni      8.5953896076     6.3767159412    13.3009509974
Ni     12.2816608204     8.5051500252    13.3006066438
Ni      8.5958457422     2.1206092019    13.3010364095
Ni      9.8244550440     4.2487038138    13.3007276120
Ni     11.0528529688     6.3769410074    13.3006611374
Cu      2.4478274055     1.4024593708    15.3768195742
Cu      3.6763308468     3.5307009057    15.3768060474
Cu      4.9041378398     5.6597275336    15.3773448005
Cu      6.1330260451     7.7878910103    15.3784795057
Cu      4.9046987540     1.4026027186    15.3777977550
Cu      6.1325026510     3.5313493756    15.3777258697
Cu      7.3610720952     5.6598451741    15.3779276123
Cu      8.5906751295     7.7868954923    15.3785351588
Cu      7.3621786280     1.4037477983    15.3762151195
Cu      8.5904727564     3.5321453644    15.3780682910
Cu      9.8190628915     5.6596863338    15.3769316534
Cu     11.0489115080     7.7874997832    15.3777154348
Cu      9.8196453802     1.4041813317    15.3774700200
Cu     11.0479045662     3.5315147704    15.3771971651
Cu     12.2765483193     5.6595852924    15.3771299176
Cu     13.5054403579     7.7883030926    15.3772814178
Cu      1.2140125591     0.6836803076    17.5697065574
Cu      2.4431555374     2.8116125893    17.5665702724
Cu      3.6705110760     4.9384343512    17.5687388115
Cu      4.8988742539     7.0688538531    17.5715929661
Cu      3.6716454744     0.6829118137    17.5713989532
Cu      4.8981418913     2.8112417067    17.5722074693
Cu      6.1274353048     4.9410331682    17.5708265763
Cu      7.3554752500     7.0698228126    17.5713297733
Cu      6.1297077779     0.6833063606    17.5689100221
Cu      7.3567237656     2.8135682139    17.5698797004
Cu      8.5851063076     4.9421568820    17.5702368079
Cu      9.8152975701     7.0699596058    17.5700617325
Cu      8.5865082080     0.6855771971    17.5667967496
Cu      9.8144914881     2.8135456562    17.5749499312
Cu     11.0427692018     4.9416447797    17.5690866435
Cu     12.2728600100     7.0692517198    17.5719744219
O       5.4816243728     2.5651691502    20.6539118200
O       7.3508896973     4.2099530947    19.0383354809
O       4.4981563510     3.9587391709    22.9072956728
C       5.9290713561     3.8945947838    20.9960208007
C       7.3297021271     4.1881915565    20.4688911028
C       5.8721709119     4.0116672750    22.5089584937
H       5.2340507257     4.6323215466    20.5533350446
H       8.0432145389     3.4244560240    20.8191443760
H       7.6571223136     5.1738780612    20.8354754738
H       6.3359933253     4.9675285031    22.8148914030
H       6.4497260984     3.1808581747    22.9509168945
H       5.8597578631     2.3152772777    19.7784701378
H       3.6583776659     2.5435355524    20.3168147116
H       4.4610770249     3.8064239805    23.8648388416
O       2.7103082747     2.5416543255    20.0177020144
H       2.4292112216     1.6097423068    20.0822731560
