80
Step 1 | NEB Image 1 | Cartesian Angstrom
Ni      1.2286497034     0.7093615225    11.2499999440
Ni      2.4572989609     2.8374461750    11.2499999440
Ni      3.6859482184     4.9655308275    11.2499999440
Ni      4.9145974759     7.0936154800    11.2499999440
Ni      3.6859497034     0.7093615225    11.2499999440
Ni      4.9145989609     2.8374461750    11.2499999440
Ni      6.1432482184     4.9655308275    11.2499999440
Ni      7.3718974759     7.0936154800    11.2499999440
Ni      6.1432497034     0.7093615225    11.2499999440
Ni      7.3718989609     2.8374461750    11.2499999440
Ni      8.6005482184     4.9655308275    11.2499999440
Ni      9.8291974759     7.0936154800    11.2499999440
Ni      8.6005497034     0.7093615225    11.2499999440
Ni      9.8291989609     2.8374461750    11.2499999440
Ni     11.0578482184     4.9655308275    11.2499999440
Ni     12.2864974759     7.0936154800    11.2499999440
Ni     14.7391156794     8.5053429999    13.3011712910
Ni     11.0531329642     2.1206495503    13.3008022026
Ni     12.2817169557     4.2489790177    13.3006008466
Ni     13.5101985270     6.3773433856    13.3009432678
Ni      7.3672569131     8.5047181091    13.3011774747
Ni      3.6813641840     2.1207833643    13.3007249066
Ni      4.9098915592     4.2493198517    13.3009123494
Ni      6.1382080000     6.3774560890    13.3011137055
Ni      9.8241033938     8.5046823573    13.3010831736
Ni      6.1383369699     2.1207818321    13.3007716707
Ni      7.3668809566     4.2490234521    13.3008056810
Ni      8.5953896076     6.3767159412    13.3009509974
Ni     12.2816608204     8.5051500252    13.3006066438
Ni      8.5958457422     2.1206092019    13.3010364095
Ni      9.8244550440     4.2487038138    13.3007276120
Ni     11.0528529688     6.3769410074    13.3006611374
Cu      2.4478274055     1.4024593708    15.3768195742
Cu      3.6763308468     3.5307009057    15.3768060474
Cu      4.9041378398     5.6597275336    15.3773448005
Cu      6.1330260451     7.7878910103    15.3784795057
Cu      4.9046987540     1.4026027186    15.3777977550
Cu      6.1325026510     3.5313493756    15.3777258697
Cu      7.3610720952     5.6598451741    15.3779276123
Cu      8.5906751295     7.7868954923    15.3785351588
Cu      7.3621786280     1.4037477983    15.3762151195
Cu      8.5904727564     3.5321453644    15.3780682910
Cu      9.8190628915     5.6596863338    15.3769316534
Cu     11.0489115080     7.7874997832    15.3777154348
Cu      9.8196453802     1.4041813317    15.3774700200
Cu     11.0479045662     3.5315147704    15.3771971651
Cu     12.2765483193     5.6595852924    15.3771299176
Cu     13.5054403579     7.7883030926    15.3772814178
Cu      1.2140125591     0.6836803076    17.5697065574
Cu      2.4431555374     2.8116125893    17.5665702724
Cu      3.6705110760     4.9384343512    17.5687388115
Cu      4.8988742539     7.0688538531    17.5715929661
Cu      3.6716454744     0.6829118137    17.5713989532
Cu      4.8981418913     2.8112417067    17.5722074693
Cu      6.1274353048     4.9410331682    17.5708265763
Cu      7.3554752500     7.0698228126    17.5713297733
Cu      6.1297077779     0.6833063606    17.5689100221
Cu      7.3567237656     2.8135682139    17.5698797004
Cu      8.5851063076     4.9421568820    17.5702368079
Cu      9.8152975701     7.0699596058    17.5700617325
Cu      8.5865082080     0.6855771971    17.5667967496
Cu      9.8144914881     2.8135456562    17.5749499312
Cu     11.0427692018     4.9416447797    17.5690866435
Cu     12.2728600100     7.0692517198    17.5719744219
O       7.2288202015     4.2734569284    22.3446828621
O       8.3044696405     5.3171068409    20.0014702420
O       8.8891638945     4.8479579810    24.7349733808
C       8.5251333110     4.9000290628    22.3715153937
C       9.1804211035     4.7744357207    20.9993344800
C       9.4189460410     4.3898719266    23.4895992517
H       8.3072385962     5.9614198807    22.5605187870
H       9.4153356173     3.7172718747    20.7683620669
H      10.1139922737     5.3503076003    20.9408546493
H      10.4461642949     4.7683945991    23.3275539960
H       9.4595638267     3.2836247445    23.4537018323
H       7.3561498138     3.3073831923    22.3295378714
H       7.4071380143     4.9636379387    20.1831718691
H       9.4432595602     4.5017937719    25.4528614775
O       2.4447775074     1.3898406800    19.0162048647
H       2.5328987835     1.2730973609    19.9764139723
80
Step 2 | NEB Image 2 | Cartesian Angstrom
Ni      1.2286110699     0.7093341251    11.2499231279
Ni      2.4572420442     2.8374301606    11.2498432385
Ni      3.6858886559     4.9655538353    11.2497806474
Ni      4.9145562457     7.0936804295    11.2497826293
Ni      3.6859144573     0.7093106159    11.2498597973
Ni      4.9145638081     2.8374141449    11.2497533613
Ni      6.1432315814     4.9655530146    11.2497009332
Ni      7.3719058186     7.0936845969    11.2497464277
Ni      6.1432405771     0.7092920429    11.2498098497
Ni      7.3719136441     2.8374056101    11.2497175154
Ni      8.6005905491     4.9655482676    11.2497090265
Ni      9.8292493544     7.0936707013    11.2497874730
Ni      8.6005782638     0.7092910432    11.2498066471
Ni      9.8292587456     2.8374110519    11.2497617206
Ni     11.0579215898     4.9655426115    11.2497924559
Ni     12.2865596067     7.0936501705    11.2498651080
Ni     14.7391909765     8.5053864481    13.3010797035
Ni     11.0533163624     2.1205369052    13.3003850791
Ni     12.2819116129     4.2489714444    13.3002558648
Ni     13.5103350795     6.3773881764    13.3007455529
Ni      7.3672687911     8.5049531200    13.3007229770
Ni      3.6812479081     2.1206710868    13.3002380859
Ni      4.9097659755     4.2493416114    13.3001413497
Ni      6.1381483521     6.3776606978    13.3003750751
Ni      9.8242061452     8.5048613234    13.3007193007
Ni      6.1383159410     2.1206024127    13.3001004752
Ni      7.3669381398     4.2490150217    13.2999116275
Ni      8.5955062171     6.3768903301    13.3002475168
Ni     12.2817724934     8.5052477064    13.3004023336
Ni      8.5959683815     2.1204322683    13.3003964561
Ni      9.8246597008     4.2486880859    13.3000554408
Ni     11.0530374547     6.3770419907    13.3002260686
Cu      2.4475142390     1.4020731566    15.3758097239
Cu      3.6757928311     3.5308015542    15.3744927069
Cu      4.9033715859     5.6605374103    15.3746909487
Cu      6.1327893589     7.7887983255    15.3769932281
Cu      4.9045473996     1.4018431354    15.3762229271
Cu      6.1324040399     3.5309055730    15.3742821085
Cu      7.3612522522     5.6606283952    15.3745784024
Cu      8.5909315860     7.7876861218    15.3771062268
Cu      7.3623781159     1.4028281021    15.3744141291
Cu      8.5911349254     3.5316521971    15.3751807479
Cu      9.8198749976     5.6601100756    15.3747925270
Cu     11.0493069978     7.7878917282    15.3769526714
Cu      9.8201390483     1.4035680224    15.3762117002
Cu     11.0486378423     3.5313092931    15.3758778550
Cu     12.2770642840     5.6597176231    15.3764029225
Cu     13.5056741073     7.7884382920    15.3770112999
Cu      1.2130577987     0.6828100426    17.5688183717
Cu      2.4399557145     2.8219900765    17.5449713492
Cu      3.6641201164     4.9424373920    17.5594315724
Cu      4.8962667035     7.0734377385    17.5665780547
Cu      3.6724016915     0.6801062772    17.5683483429
Cu      4.8946062825     2.8044605889    17.5528366783
Cu      6.1244032111     4.9496445083    17.5351279057
Cu      7.3550848379     7.0762971263    17.5627687191
Cu      6.1297631681     0.6797568810    17.5654461655
Cu      7.3609352876     2.8062049622    17.5527260545
Cu      8.5928509322     4.9439458926    17.5420753379
Cu      9.8174229112     7.0730340727    17.5651040214
Cu      8.5877981894     0.6824527591    17.5633044210
Cu      9.8184485207     2.8103620024    17.5675892267
Cu     11.0462189697     4.9418788936    17.5645259326
Cu     12.2738978143     7.0698578855    17.5708971621
O       6.4862241011     3.7253375326    21.8848797707
O       7.8576153688     5.1357606098    19.9495854677
O       7.4060978579     4.2706852588    24.6297645365
C       7.6120157062     4.5334955770    22.2652782360
C       8.5760967276     4.6470165903    21.0871727938
C       8.2976757982     4.0621132723    23.5349104795
H       7.1735803454     5.5259415561    22.4547569370
H       9.0370141317     3.6660535635    20.8572337182
H       9.3807799511     5.3677896118    21.2823029063
H       9.2332709973     4.6377785906    23.6628136396
H       8.5711727266     2.9934680646    23.4331419774
H       6.7914467849     2.7949685050    21.7913271145
H       7.0050574653     4.6424256894    19.9294587535
H       7.8579648525     4.0031497196    25.4532557945
O       2.4512252282     1.4174208150    18.9970391804
H       2.5359696312     1.4106013796    19.9618433631
80
Step 3 | NEB Image 3 | Cartesian Angstrom
Ni      1.2285991176     0.7093236554    11.2498954452
Ni      2.4572259734     2.8374245442    11.2497812845
Ni      3.6858796111     4.9655667321    11.2496987623
Ni      4.9145570892     7.0937061116    11.2497146465
Ni      3.6859071339     0.7092925648    11.2498068294
Ni      4.9145649047     2.8374073886    11.2496640836
Ni      6.1432442360     4.9655671889    11.2496100083
Ni      7.3719221822     7.0937083891    11.2496816092
Ni      6.1432485042     0.7092720272    11.2497449569
Ni      7.3719344227     2.8374002036    11.2496338478
Ni      8.6006169353     4.9655591150    11.2496368478
Ni      9.8292725347     7.0936875486    11.2497422758
Ni      8.6005979680     0.7092750388    11.2497519283
Ni      9.8292870095     2.8374074174    11.2497039044
Ni     11.0579490427     4.9655493740    11.2497496566
Ni     12.2865792842     7.0936595240    11.2498415465
Ni     14.7392077894     8.5053943043    13.3010704015
Ni     11.0533863047     2.1205229714    13.3002962537
Ni     12.2819712026     4.2489788236    13.3001993115
Ni     13.5103695965     6.3773996738    13.3007213564
Ni      7.3673018772     8.5050219194    13.3006161557
Ni      3.6812102755     2.1206200767    13.3000215591
Ni      4.9097802260     4.2493784103    13.2998411481
Ni      6.1381857680     6.3777424082    13.3001667723
Ni      9.8242507055     8.5049062372    13.3006518652
Ni      6.1383610756     2.1205587348    13.2998489796
Ni      7.3670136051     4.2490432988    13.2996641958
Ni      8.5955741386     6.3769499369    13.3000875803
Ni     12.2818048159     8.5052680231    13.3003746877
Ni      8.5960472750     2.1204032723    13.3002204073
Ni      9.8247488905     4.2487012019    13.2999051988
Ni     11.0531020171     6.3770723674    13.3001496649
Cu      2.4473242421     1.4018488230    15.3755940680
Cu      3.6754769860     3.5308424874    15.3731068050
Cu      4.9034910027     5.6609748119    15.3737491786
Cu      6.1328662123     7.7890764769    15.3766247516
Cu      4.9045257224     1.4013764982    15.3753013375
Cu      6.1328239273     3.5310517198    15.3730311638
Cu      7.3614550273     5.6609274746    15.3738274334
Cu      8.5910918485     7.7878989078    15.3768319109
Cu      7.3626457824     1.4026160589    15.3737888900
Cu      8.5914908908     3.5316188554    15.3744548146
Cu      9.8202307344     5.6602827777    15.3743369389
Cu     11.0494312118     7.7879716891    15.3768682020
Cu      9.8203781440     1.4034662652    15.3759028869
Cu     11.0488961725     3.5313133883    15.3756617104
Cu     12.2771956724     5.6597556127    15.3763427672
Cu     13.5057209796     7.7884580702    15.3769992721
Cu      1.2138720697     0.6834590514    17.5698926145
Cu      2.4372024670     2.8184689417    17.5393981110
Cu      3.6597299431     4.9474443809    17.5497059482
Cu      4.8966070652     7.0752603939    17.5649806043
Cu      3.6705468176     0.6799044113    17.5688937371
Cu      4.8937245415     2.7979845618    17.5305084145
Cu      6.1307167723     4.9538318995    17.5345947872
Cu      7.3556995079     7.0778922182    17.5611997448
Cu      6.1304734946     0.6776582359    17.5630086967
Cu      7.3639508739     2.8072688093    17.5492804844
Cu      8.5986607050     4.9465998287    17.5318362612
Cu      9.8182808059     7.0735639940    17.5648063854
Cu      8.5888526638     0.6815697015    17.5619272526
Cu      9.8202676514     2.8100093886    17.5662407551
Cu     11.0470525736     4.9421075875    17.5646356929
Cu     12.2740438925     7.0698891849    17.5709804606
O       5.7865238929     3.3459098914    21.6555918586
O       7.2909806161     4.2351865816    19.7329864866
O       6.2838988919     4.2239407369    24.4040808264
C       6.7952079280     4.2897343239    22.0679549832
C       7.9133794956     4.3218632144    21.0204126183
C       7.3312741128     4.0128130592    23.4547013769
H       6.2681348021     5.2555325366    22.0626365723
H       8.6190935717     3.4804995204    21.1489815551
H       8.4817361157     5.2610233154    21.0556483843
H       8.1904321279     4.6843886080    23.6421443516
H       7.7078657098     2.9712238026    23.4915903169
H       6.1255027269     2.4396627401    21.7837774204
H       6.4452615448     3.7419723194    19.8868079403
H       6.6138958403     4.0084966353    25.2834132324
O       3.4491124113     1.9906709945    19.0726402133
H       2.8614583916     1.7049521946    19.8009902727
80
Step 4 | NEB Image 4 | Cartesian Angstrom
Ni      1.2286041352     0.7093277051    11.2499045309
Ni      2.4572333319     2.8374273570    11.2498023356
Ni      3.6858859612     4.9655635136    11.2497280398
Ni      4.9145601941     7.0936976590    11.2497408486
Ni      3.6859113044     0.7092995537    11.2498239581
Ni      4.9145677479     2.8374116107    11.2496951148
Ni      6.1432437556     4.9655640626    11.2496448285
Ni      7.3719194558     7.0937004432    11.2497086782
Ni      6.1432485135     0.7092803025    11.2497665795
Ni      7.3719308740     2.8374045045    11.2496648233
Ni      8.6006107404     4.9655569721    11.2496666278
Ni      9.8292661595     7.0936818101    11.2497629773
Ni      8.6005939732     0.7092822977    11.2497717109
Ni      9.8292798051     2.8374107246    11.2497273708
Ni     11.0579409330     4.9655480644    11.2497693160
Ni     12.2865727698     7.0936561703    11.2498538830
Ni     14.7392007183     8.5053905045    13.3010779213
Ni     11.0533669522     2.1205330703    13.3003354269
Ni     12.2819514856     4.2489790503    13.3002303085
Ni     13.5103563358     6.3773954803    13.3007382496
Ni      7.3672969838     8.5049961044    13.3006631145
Ni      3.6812271489     2.1206397956    13.3000898776
Ni      4.9097889622     4.2493735070    13.2999474394
Ni      6.1381845234     6.3777159210    13.3002520689
Ni      9.8242383770     8.5048883285    13.3006864456
Ni      6.1383573139     2.1205812673    13.2999319103
Ni      7.3669992014     4.2490420827    13.2997616340
Ni      8.5955578924     6.3769309665    13.3001583162
Ni     12.2817933367     8.5052589521    13.3003926340
Ni      8.5960305946     2.1204206593    13.3002852061
Ni      9.8247252976     4.2487021993    13.2999702695
Ni     11.0530819754     6.3770622825    13.3001899659
Cu      2.4473814048     1.4019233080    15.3756820940
Cu      3.6755900885     3.5308447927    15.3735233729
Cu      4.9035375769     5.6608371788    15.3741286111
Cu      6.1328726622     7.7889695664    15.3767854548
Cu      4.9045544631     1.4015228094    15.3755451387
Cu      6.1327638153     3.5310826083    15.3734936591
Cu      7.3614114078     5.6608352270    15.3741718007
Cu      8.5910568489     7.7878170955    15.3769711155
Cu      7.3626045725     1.4027130477    15.3739808204
Cu      8.5914138333     3.5316677145    15.3747361504
Cu      9.8201350432     5.6602361202    15.3745498532
Cu     11.0493884853     7.7879344702    15.3769357638
Cu      9.8203254213     1.4035221958    15.3760245563
Cu     11.0488193284     3.5313301560    15.3757827178
Cu     12.2771443899     5.6597426666    15.3764033748
Cu     13.5056991335     7.7884464992    15.3770201706
Cu      1.2136951197     0.6833457944    17.5696151817
Cu      2.4378040358     2.8179621768    17.5424427068
Cu      3.6616163693     4.9464083171    17.5523614287
Cu      4.8967448236     7.0745472688    17.5656269639
Cu      3.6708631352     0.6800070536    17.5687317859
Cu      4.8953205094     2.8005972198    17.5358870961
Cu      6.1289128559     4.9520333748    17.5377407022
Cu      7.3557082283     7.0772490071    17.5620170059
Cu      6.1304585582     0.6781756014    17.5634233371
Cu      7.3631641348     2.8076122058    17.5505494643
Cu      8.5977353233     4.9464683254    17.5354418026
Cu      9.8180149277     7.0732607005    17.5652566721
Cu      8.5887216439     0.6818670902    17.5623129634
Cu      9.8198445635     2.8102983557    17.5669768022
Cu     11.0466900573     4.9420663677    17.5649792584
Cu     12.2739489162     7.0698425773    17.5710494085
O       6.0432720168     2.8953200266    21.0926848464
O       7.4367306519     4.2490012452    19.0614442798
O       6.1654751286     4.2242942702    23.7339908218
C       6.7483419935     4.1215060006    21.4073393343
C       7.8904626635     4.3526896367    20.4205844756
C       7.2704831058     4.0578208034    22.8381924084
H       6.0246136765     4.9510934937    21.3377308845
H       8.6880802326     3.6049659163    20.5833188629
H       8.3238427835     5.3510865359    20.5898729811
H       8.0212547477     4.8564454252    22.9906307659
H       7.7646522330     3.0824131154    22.9898758327
H       6.4482864764     2.5214499554    20.2833326909
H       4.4379556006     2.9261233935    20.4415990340
H       6.4768801981     4.0698356045    24.6392273857
O       3.5474708217     2.8320197914    19.9953468417
H       3.2871675190     1.8990078916    20.1203461148
80
Step 5 | NEB Image 5 | Cartesian Angstrom
Ni      1.2286497034     0.7093615225    11.2499999440
Ni      2.4572989609     2.8374461750    11.2499999440
Ni      3.6859482184     4.9655308275    11.2499999440
Ni      4.9145974759     7.0936154800    11.2499999440
Ni      3.6859497034     0.7093615225    11.2499999440
Ni      4.9145989609     2.8374461750    11.2499999440
Ni      6.1432482184     4.9655308275    11.2499999440
Ni      7.3718974759     7.0936154800    11.2499999440
Ni      6.1432497034     0.7093615225    11.2499999440
Ni      7.3718989609     2.8374461750    11.2499999440
Ni      8.6005482184     4.9655308275    11.2499999440
Ni      9.8291974759     7.0936154800    11.2499999440
Ni      8.6005497034     0.7093615225    11.2499999440
Ni      9.8291989609     2.8374461750    11.2499999440
Ni     11.0578482184     4.9655308275    11.2499999440
Ni     12.2864974759     7.0936154800    11.2499999440
Ni     14.7391156794     8.5053429999    13.3011712910
Ni     11.0531329642     2.1206495503    13.3008022026
Ni     12.2817169557     4.2489790177    13.3006008466
Ni     13.5101985270     6.3773433856    13.3009432678
Ni      7.3672569131     8.5047181091    13.3011774747
Ni      3.6813641840     2.1207833643    13.3007249066
Ni      4.9098915592     4.2493198517    13.3009123494
Ni      6.1382080000     6.3774560890    13.3011137055
Ni      9.8241033938     8.5046823573    13.3010831736
Ni      6.1383369699     2.1207818321    13.3007716707
Ni      7.3668809566     4.2490234521    13.3008056810
Ni      8.5953896076     6.3767159412    13.3009509974
Ni     12.2816608204     8.5051500252    13.3006066438
Ni      8.5958457422     2.1206092019    13.3010364095
Ni      9.8244550440     4.2487038138    13.3007276120
Ni     11.0528529688     6.3769410074    13.3006611374
Cu      2.4478274055     1.4024593708    15.3768195742
Cu      3.6763308468     3.5307009057    15.3768060474
Cu      4.9041378398     5.6597275336    15.3773448005
Cu      6.1330260451     7.7878910103    15.3784795057
Cu      4.9046987540     1.4026027186    15.3777977550
Cu      6.1325026510     3.5313493756    15.3777258697
Cu      7.3610720952     5.6598451741    15.3779276123
Cu      8.5906751295     7.7868954923    15.3785351588
Cu      7.3621786280     1.4037477983    15.3762151195
Cu      8.5904727564     3.5321453644    15.3780682910
Cu      9.8190628915     5.6596863338    15.3769316534
Cu     11.0489115080     7.7874997832    15.3777154348
Cu      9.8196453802     1.4041813317    15.3774700200
Cu     11.0479045662     3.5315147704    15.3771971651
Cu     12.2765483193     5.6595852924    15.3771299176
Cu     13.5054403579     7.7883030926    15.3772814178
Cu      1.2140125591     0.6836803076    17.5697065574
Cu      2.4431555374     2.8116125893    17.5665702724
Cu      3.6705110760     4.9384343512    17.5687388115
Cu      4.8988742539     7.0688538531    17.5715929661
Cu      3.6716454744     0.6829118137    17.5713989532
Cu      4.8981418913     2.8112417067    17.5722074693
Cu      6.1274353048     4.9410331682    17.5708265763
Cu      7.3554752500     7.0698228126    17.5713297733
Cu      6.1297077779     0.6833063606    17.5689100221
Cu      7.3567237656     2.8135682139    17.5698797004
Cu      8.5851063076     4.9421568820    17.5702368079
Cu      9.8152975701     7.0699596058    17.5700617325
Cu      8.5865082080     0.6855771971    17.5667967496
Cu      9.8144914881     2.8135456562    17.5749499312
Cu     11.0427692018     4.9416447797    17.5690866435
Cu     12.2728600100     7.0692517198    17.5719744219
O       5.4816243728     2.5651691502    20.6539118200
O       7.3508896973     4.2099530947    19.0383354809
O       4.4981563510     3.9587391709    22.9072956728
C       5.9290713561     3.8945947838    20.9960208007
C       7.3297021271     4.1881915565    20.4688911028
C       5.8721709119     4.0116672750    22.5089584937
H       5.2340507257     4.6323215466    20.5533350446
H       8.0432145389     3.4244560240    20.8191443760
H       7.6571223136     5.1738780612    20.8354754738
H       6.3359933253     4.9675285031    22.8148914030
H       6.4497260984     3.1808581747    22.9509168945
H       5.8597578631     2.3152772777    19.7784701378
H       3.6583776659     2.5435355524    20.3168147116
H       4.4610770249     3.8064239805    23.8648388416
O       2.7103082747     2.5416543255    20.0177020144
H       2.4292112216     1.6097423068    20.0822731560
