80
Step 1 | NEB Image 1 | Cartesian Angstrom
Ni      1.2286497034     0.7093615225    11.2499999440
Ni      2.4572989609     2.8374461750    11.2499999440
Ni      3.6859482184     4.9655308275    11.2499999440
Ni      4.9145974759     7.0936154800    11.2499999440
Ni      3.6859497034     0.7093615225    11.2499999440
Ni      4.9145989609     2.8374461750    11.2499999440
Ni      6.1432482184     4.9655308275    11.2499999440
Ni      7.3718974759     7.0936154800    11.2499999440
Ni      6.1432497034     0.7093615225    11.2499999440
Ni      7.3718989609     2.8374461750    11.2499999440
Ni      8.6005482184     4.9655308275    11.2499999440
Ni      9.8291974759     7.0936154800    11.2499999440
Ni      8.6005497034     0.7093615225    11.2499999440
Ni      9.8291989609     2.8374461750    11.2499999440
Ni     11.0578482184     4.9655308275    11.2499999440
Ni     12.2864974759     7.0936154800    11.2499999440
Ni     14.7391156794     8.5053429999    13.3011712910
Ni     11.0531329642     2.1206495503    13.3008022026
Ni     12.2817169557     4.2489790177    13.3006008466
Ni     13.5101985270     6.3773433856    13.3009432678
Ni      7.3672569131     8.5047181091    13.3011774747
Ni      3.6813641840     2.1207833643    13.3007249066
Ni      4.9098915592     4.2493198517    13.3009123494
Ni      6.1382080000     6.3774560890    13.3011137055
Ni      9.8241033938     8.5046823573    13.3010831736
Ni      6.1383369699     2.1207818321    13.3007716707
Ni      7.3668809566     4.2490234521    13.3008056810
Ni      8.5953896076     6.3767159412    13.3009509974
Ni     12.2816608204     8.5051500252    13.3006066438
Ni      8.5958457422     2.1206092019    13.3010364095
Ni      9.8244550440     4.2487038138    13.3007276120
Ni     11.0528529688     6.3769410074    13.3006611374
Cu      2.4478274055     1.4024593708    15.3768195742
Cu      3.6763308468     3.5307009057    15.3768060474
Cu      4.9041378398     5.6597275336    15.3773448005
Cu      6.1330260451     7.7878910103    15.3784795057
Cu      4.9046987540     1.4026027186    15.3777977550
Cu      6.1325026510     3.5313493756    15.3777258697
Cu      7.3610720952     5.6598451741    15.3779276123
Cu      8.5906751295     7.7868954923    15.3785351588
Cu      7.3621786280     1.4037477983    15.3762151195
Cu      8.5904727564     3.5321453644    15.3780682910
Cu      9.8190628915     5.6596863338    15.3769316534
Cu     11.0489115080     7.7874997832    15.3777154348
Cu      9.8196453802     1.4041813317    15.3774700200
Cu     11.0479045662     3.5315147704    15.3771971651
Cu     12.2765483193     5.6595852924    15.3771299176
Cu     13.5054403579     7.7883030926    15.3772814178
Cu      1.2140125591     0.6836803076    17.5697065574
Cu      2.4431555374     2.8116125893    17.5665702724
Cu      3.6705110760     4.9384343512    17.5687388115
Cu      4.8988742539     7.0688538531    17.5715929661
Cu      3.6716454744     0.6829118137    17.5713989532
Cu      4.8981418913     2.8112417067    17.5722074693
Cu      6.1274353048     4.9410331682    17.5708265763
Cu      7.3554752500     7.0698228126    17.5713297733
Cu      6.1297077779     0.6833063606    17.5689100221
Cu      7.3567237656     2.8135682139    17.5698797004
Cu      8.5851063076     4.9421568820    17.5702368079
Cu      9.8152975701     7.0699596058    17.5700617325
Cu      8.5865082080     0.6855771971    17.5667967496
Cu      9.8144914881     2.8135456562    17.5749499312
Cu     11.0427692018     4.9416447797    17.5690866435
Cu     12.2728600100     7.0692517198    17.5719744219
O       7.2288202015     4.2734569284    22.3446828621
O       8.3044696405     5.3171068409    20.0014702420
O       8.8891638945     4.8479579810    24.7349733808
C       8.5251333110     4.9000290628    22.3715153937
C       9.1804211035     4.7744357207    20.9993344800
C       9.4189460410     4.3898719266    23.4895992517
H       8.3072385962     5.9614198807    22.5605187870
H       9.4153356173     3.7172718747    20.7683620669
H      10.1139922737     5.3503076003    20.9408546493
H      10.4461642949     4.7683945991    23.3275539960
H       9.4595638267     3.2836247445    23.4537018323
H       7.3561498138     3.3073831923    22.3295378714
H       7.4071380143     4.9636379387    20.1831718691
H       9.4432595602     4.5017937719    25.4528614775
O       2.4447775074     1.3898406800    19.0162048647
H       2.5328987835     1.2730973609    19.9764139723
80
Step 2 | NEB Image 2 | Cartesian Angstrom
Ni      1.2286107177     0.7093338166    11.2499223124
Ni      2.4572415707     2.8374299951    11.2498414132
Ni      3.6858883893     4.9655542152    11.2497782348
Ni      4.9145562704     7.0936811861    11.2497806262
Ni      3.6859142415     0.7093100840    11.2498582368
Ni      4.9145638403     2.8374139458    11.2497507309
Ni      6.1432319541     4.9655534322    11.2496982542
Ni      7.3719063006     7.0936852979    11.2497445178
Ni      6.1432408105     0.7092914532    11.2498079378
Ni      7.3719142561     2.8374054508    11.2497150503
Ni      8.6005913264     4.9655485871    11.2497068998
Ni      9.8292500373     7.0936711976    11.2497861412
Ni      8.6005788442     0.7092905716    11.2498050349
Ni      9.8292595783     2.8374109447    11.2497600171
Ni     11.0579223986     4.9655428107    11.2497911947
Ni     12.2865601864     7.0936504461    11.2498644137
Ni     14.7391914719     8.5053866796    13.3010794293
Ni     11.0533184229     2.1205364945    13.3003824617
Ni     12.2819133686     4.2489716617    13.3002541981
Ni     13.5103360965     6.3773885151    13.3007448396
Ni      7.3672697656     8.5049551471    13.3007198294
Ni      3.6812467992     2.1206695838    13.3002317067
Ni      4.9097663948     4.2493426953    13.3001325049
Ni      6.1381494540     6.3776631052    13.3003689375
Ni      9.8242074579     8.5048626468    13.3007173134
Ni      6.1383172703     2.1206011256    13.3000930657
Ni      7.3669403627     4.2490158544    13.2999043371
Ni      8.5955082180     6.3768920862    13.3002428040
Ni     12.2817734457     8.5052483051    13.3004015188
Ni      8.5959707055     2.1204314137    13.3003912691
Ni      9.8246623282     4.2486884721    13.3000510138
Ni     11.0530393568     6.3770428857    13.3002238170
Cu      2.4475086416     1.4020665473    15.3758033696
Cu      3.6757835254     3.5308027595    15.3744518773
Cu      4.9033751006     5.6605502967    15.3746631996
Cu      6.1327916218     7.7888065210    15.3769823705
Cu      4.9045467601     1.4018293878    15.3761957778
Cu      6.1324164073     3.5309098755    15.3742452513
Cu      7.3612582254     5.6606372063    15.3745562735
Cu      8.5909363069     7.7876923914    15.3770981429
Cu      7.3623860000     1.4028218538    15.3743957090
Cu      8.5911454112     3.5316512132    15.3751593589
Cu      9.8198854774     5.6601151633    15.3747791019
Cu     11.0493106574     7.7878940845    15.3769501811
Cu      9.8201460915     1.4035650235    15.3762026012
Cu     11.0486454529     3.5313094130    15.3758714850
Cu     12.2770681552     5.6597187424    15.3764011485
Cu     13.5056754886     7.7884388749    15.3770109449
Cu      1.2130817849     0.6828291594    17.5688500177
Cu      2.4398746113     2.8218864060    17.5448071017
Cu      3.6639907558     4.9425848818    17.5591450603
Cu      4.8962767209     7.0734914419    17.5665309860
Cu      3.6723470557     0.6801003283    17.5683644105
Cu      4.8945802511     2.8042697736    17.5521789281
Cu      6.1245892088     4.9497678938    17.5351120769
Cu      7.3551029385     7.0763441255    17.5627224819
Cu      6.1297840866     0.6796950582    17.5653743692
Cu      7.3610241238     2.8062362765    17.5526245362
Cu      8.5930220581     4.9440240518    17.5417736663
Cu      9.8174481856     7.0730496904    17.5650952380
Cu      8.5878292472     0.6824267424    17.5632638499
Cu      9.8185021084     2.8103516067    17.5675494862
Cu     11.0462435328     4.9418856299    17.5645291508
Cu     12.2739021200     7.0698588091    17.5708996122
O       6.4953035974     3.7261221331    21.9085476090
O       7.8951865602     5.2128569042    20.0214533509
O       7.4113501541     4.1749547720    24.6801071514
C       7.6295005969     4.5136020248    22.3150443629
C       8.5940669567     4.6713813338    21.1486284602
C       8.3025613515     4.0085213200    23.5716824430
H       7.1897359621     5.5138980457    22.5386938384
H       9.0390402194     3.6819690625    20.8805538340
H       9.4109023389     5.3588680462    21.3763513026
H       9.2391341527     4.5725924998    23.7258450673
H       8.5751550676     2.9372845386    23.4378834299
H       6.7950139422     2.8098604348    21.7828208858
H       7.0407299253     4.7380519647    19.9689989489
H       7.8488350312     3.8842064082    25.4781428295
O       2.4503121428     1.4162118574    18.9987774167
H       2.5361001336     1.4043650774    19.9629382645
80
Step 3 | NEB Image 3 | Cartesian Angstrom
Ni      1.2285996347     0.7093241116    11.2498966664
Ni      2.4572266629     2.8374247830    11.2497840109
Ni      3.6858799785     4.9655661537    11.2497023522
Ni      4.9145570204     7.0937049789    11.2497176093
Ni      3.6859074405     0.7092933512    11.2498091685
Ni      4.9145648264     2.8374076679    11.2496680059
Ni      6.1432436434     4.9655665494    11.2496139730
Ni      7.3719214356     7.0937073408    11.2496844145
Ni      6.1432481301     0.7092728942    11.2497478166
Ni      7.3719334755     2.8374004185    11.2496375059
Ni      8.6006157482     4.9655586232    11.2496399750
Ni      9.8292715006     7.0936868073    11.2497442149
Ni      8.6005970757     0.7092757261    11.2497543252
Ni      9.8292857433     2.8374075579    11.2497064130
Ni     11.0579478232     4.9655490671    11.2497514922
Ni     12.2865784167     7.0936591140    11.2498425429
Ni     14.7392070622     8.5053939692    13.3010707701
Ni     11.0533831855     2.1205235345    13.3003000786
Ni     12.2819685752     4.2489784733    13.3002016902
Ni     13.5103680918     6.3773991705    13.3007223402
Ni      7.3673003619     8.5050189145    13.3006207569
Ni      3.6812118934     2.1206222992    13.3000311369
Ni      4.9097794720     4.2493767198    13.2998543190
Ni      6.1381840142     6.3777388004    13.3001758034
Ni      9.8242487182     8.5049042854    13.3006547238
Ni      6.1383589812     2.1205605851    13.2998600708
Ni      7.3670101790     4.2490419759    13.2996749596
Ni      8.5955710857     6.3769473018    13.3000944654
Ni     12.2818033981     8.5052671493    13.3003758244
Ni      8.5960437085     2.1204044779    13.3002281081
Ni      9.8247449028     4.2487005738    13.2999116795
Ni     11.0530991582     6.3770710284    13.3001528932
Cu      2.4473326724     1.4018587115    15.3756034206
Cu      3.6754908314     3.5308405345    15.3731683022
Cu      4.9034849331     5.6609554604    15.3737900677
Cu      6.1328625259     7.7890643521    15.3766406354
Cu      4.9045264766     1.4013971480    15.3753425419
Cu      6.1328046777     3.5310445357    15.3730858643
Cu      7.3614458676     5.6609142254    15.3738596478
Cu      8.5910846140     7.7878896326    15.3768435529
Cu      7.3626335384     1.4026251572    15.3738165967
Cu      8.5914748156     3.5316199719    15.3744864368
Cu      9.8202148441     5.6602750652    15.3743564449
Cu     11.0494257503     7.7879682641    15.3768715561
Cu      9.8203673556     1.4034705437    15.3759163205
Cu     11.0488847019     3.5313130383    15.3756707778
Cu     12.2771899524     5.6597539412    15.3763450391
Cu     13.5057189722     7.7884572452    15.3769996443
Cu      1.2138353041     0.6834294880    17.5698445218
Cu      2.4373267499     2.8186398124    17.5396326179
Cu      3.6599194531     4.9472178216    17.5501400103
Cu      4.8965897188     7.0751810609    17.5650499356
Cu      3.6706313788     0.6799129766    17.5688695175
Cu      4.8937512300     2.7982657007    17.5315116501
Cu      6.1304357413     4.9536511357    17.5345905430
Cu      7.3556704249     7.0778229688    17.5612661354
Cu      6.1304401194     0.6777524201    17.5631198272
Cu      7.3638159436     2.8072154056    17.5494311959
Cu      8.5983952342     4.9464758388    17.5322856711
Cu      9.8182428131     7.0735418253    17.5648162207
Cu      8.5888041356     0.6816085871    17.5619886261
Cu      9.8201857744     2.8100233253    17.5662975009
Cu     11.0470166299     4.9420971824    17.5646273036
Cu     12.2740378878     7.0698881437    17.5709758860
O       5.7981610262     3.2949253993    21.8593521850
O       7.2169474309     4.3240424398    19.8595086846
O       6.3956640673     4.2144710632    24.5773583122
C       6.8100955851     4.2560092415    22.2186185465
C       7.8772329247     4.3014584051    21.1243334946
C       7.4026017707     4.0059487438    23.5889861619
H       6.2687463716     5.2224147426    22.2295281043
H       8.5459039874     3.4183220213    21.1886934620
H       8.4948844488     5.2044381213    21.1910213497
H       8.2616577772     4.6869202288    23.7341958370
H       7.7933454572     2.9666879406    23.6231791170
H       6.1681911086     2.4012863450    21.9836028140
H       6.4066054513     3.7722996604    19.9646527322
H       6.7603328233     4.0155678831    25.4408535588
O       3.6139078585     2.0870010510    19.0003996184
H       3.3106057254     2.0056089300    19.9232850405
80
Step 4 | NEB Image 4 | Cartesian Angstrom
Ni      1.2286022868     0.7093262165    11.2499012073
Ni      2.4572306155     2.8374263166    11.2497946264
Ni      3.6858835984     4.9655646790    11.2497173014
Ni      4.9145590184     7.0937007514    11.2497312177
Ni      3.6859097580     0.7092969845    11.2498176953
Ni      4.9145666701     2.8374100426    11.2496837428
Ni      6.1432438880     4.9655651883    11.2496320322
Ni      7.3719204220     7.0937033515    11.2496987078
Ni      6.1432484794     0.7092772552    11.2497586659
Ni      7.3719321336     2.8374029014    11.2496534507
Ni      8.6006129775     4.9655577393    11.2496556621
Ni      9.8292684771     7.0936839118    11.2497553353
Ni      8.6005954054     0.7092796187    11.2497644527
Ni      9.8292824161     2.8374094899    11.2497187336
Ni     11.0579438890     4.9655485327    11.2497620582
Ni     12.2865751535     7.0936574004    11.2498493159
Ni     14.7392033233     8.5053919089    13.3010751178
Ni     11.0533739891     2.1205293109    13.3003209788
Ni     12.2819587002     4.2489789362    13.3002188229
Ni     13.5103612094     6.3773970193    13.3007319644
Ni      7.3672987035     8.5050055859    13.3006457962
Ni      3.6812209232     2.1206325471    13.3000649183
Ni      4.9097856084     4.2493752162    13.2999084653
Ni      6.1381848486     6.3777256064    13.3002206669
Ni      9.8242428599     8.5048949170    13.3006736490
Ni      6.1383585597     2.1205729280    13.2999015688
Ni      7.3670043483     4.2490424325    13.2997257987
Ni      8.5955637642     6.3769378991    13.3001322252
Ni     12.2817975462     8.5052622987    13.3003859645
Ni      8.5960365879     2.1204142062    13.3002614192
Ni      9.8247338612     4.2487017719    13.2999462802
Ni     11.0530892933     6.3770659730    13.3001750439
Cu      2.4473605552     1.4018960504    15.3756496899
Cu      3.6755486031     3.5308437639    15.3733714388
Cu      4.9035195288     5.6608874567    15.3739889815
Cu      6.1328699295     7.7890088596    15.3767261991
Cu      4.9045436946     1.4014693677    15.3754566448
Cu      6.1327848894     3.5310703797    15.3733238611
Cu      7.3614270941     5.6608689025    15.3740446736
Cu      8.5910694447     7.7878471645    15.3769196134
Cu      7.3626190980     1.4026772453    15.3739107665
Cu      8.5914415531     3.5316493945    15.3746327269
Cu      9.8201697999     5.6602530699    15.3744712197
Cu     11.0494041382     7.7879482146    15.3769105795
Cu      9.8203444044     1.4035014702    15.3759798088
Cu     11.0488473453     3.5313238087    15.3757378619
Cu     12.2771632458     5.6597474080    15.3763807223
Cu     13.5057072012     7.7884507919    15.3770123260
Cu      1.2137587860     0.6833860496    17.5697157843
Cu      2.4375875346     2.8181671474    17.5413146359
Cu      3.6609210425     4.9467801651    17.5513963459
Cu      4.8966914902     7.0748094924    17.5653890797
Cu      3.6707508690     0.6799690771    17.5687908286
Cu      4.8947212891     2.7996357383    17.5339424867
Cu      6.1295695884     4.9526962947    17.5365548803
Cu      7.3557025582     7.0774857116    17.5617144799
Cu      6.1304614508     0.6779883632    17.5632761979
Cu      7.3634495409     2.8074784262    17.5500836292
Cu      8.5980622733     4.9465077160    17.5341199668
Cu      9.8181120042     7.0733731733    17.5650877970
Cu      8.5887670382     0.6817582128    17.5621726470
Cu      9.8199972839     2.8101906068    17.5667040894
Cu     11.0468237178     4.9420810476    17.5648491051
Cu     12.2739842139     7.0698600551    17.5710230519
O       6.0545917493     2.8752770869    21.1498158158
O       7.4209033070     4.2506145280    19.0788186182
O       6.1950484558     4.2067120339    23.7743606495
C       6.7607717604     4.1048622181    21.4450892948
C       7.8817923521     4.3472588557    20.4360957098
C       7.2964238502     4.0536423207    22.8722415749
H       6.0198597782     4.9235011204    21.3846238889
H       8.6847126595     3.5993134651    20.5890483905
H       8.3168845147     5.3433545224    20.6105552881
H       8.0387848119     4.8607380487    23.0200809047
H       7.8034025932     3.0836189912    23.0238511760
H       6.5200799236     2.4345012960    20.4059855732
H       4.5288764925     2.9517578792    20.4200794541
H       6.5110733258     4.0430937705    24.6789018166
O       3.6501333637     2.8791736388    19.9418891112
H       3.3489909243     1.9591845845    20.0871798096
80
Step 5 | NEB Image 5 | Cartesian Angstrom
Ni      1.2286497034     0.7093615225    11.2499999440
Ni      2.4572989609     2.8374461750    11.2499999440
Ni      3.6859482184     4.9655308275    11.2499999440
Ni      4.9145974759     7.0936154800    11.2499999440
Ni      3.6859497034     0.7093615225    11.2499999440
Ni      4.9145989609     2.8374461750    11.2499999440
Ni      6.1432482184     4.9655308275    11.2499999440
Ni      7.3718974759     7.0936154800    11.2499999440
Ni      6.1432497034     0.7093615225    11.2499999440
Ni      7.3718989609     2.8374461750    11.2499999440
Ni      8.6005482184     4.9655308275    11.2499999440
Ni      9.8291974759     7.0936154800    11.2499999440
Ni      8.6005497034     0.7093615225    11.2499999440
Ni      9.8291989609     2.8374461750    11.2499999440
Ni     11.0578482184     4.9655308275    11.2499999440
Ni     12.2864974759     7.0936154800    11.2499999440
Ni     14.7391156794     8.5053429999    13.3011712910
Ni     11.0531329642     2.1206495503    13.3008022026
Ni     12.2817169557     4.2489790177    13.3006008466
Ni     13.5101985270     6.3773433856    13.3009432678
Ni      7.3672569131     8.5047181091    13.3011774747
Ni      3.6813641840     2.1207833643    13.3007249066
Ni      4.9098915592     4.2493198517    13.3009123494
Ni      6.1382080000     6.3774560890    13.3011137055
Ni      9.8241033938     8.5046823573    13.3010831736
Ni      6.1383369699     2.1207818321    13.3007716707
Ni      7.3668809566     4.2490234521    13.3008056810
Ni      8.5953896076     6.3767159412    13.3009509974
Ni     12.2816608204     8.5051500252    13.3006066438
Ni      8.5958457422     2.1206092019    13.3010364095
Ni      9.8244550440     4.2487038138    13.3007276120
Ni     11.0528529688     6.3769410074    13.3006611374
Cu      2.4478274055     1.4024593708    15.3768195742
Cu      3.6763308468     3.5307009057    15.3768060474
Cu      4.9041378398     5.6597275336    15.3773448005
Cu      6.1330260451     7.7878910103    15.3784795057
Cu      4.9046987540     1.4026027186    15.3777977550
Cu      6.1325026510     3.5313493756    15.3777258697
Cu      7.3610720952     5.6598451741    15.3779276123
Cu      8.5906751295     7.7868954923    15.3785351588
Cu      7.3621786280     1.4037477983    15.3762151195
Cu      8.5904727564     3.5321453644    15.3780682910
Cu      9.8190628915     5.6596863338    15.3769316534
Cu     11.0489115080     7.7874997832    15.3777154348
Cu      9.8196453802     1.4041813317    15.3774700200
Cu     11.0479045662     3.5315147704    15.3771971651
Cu     12.2765483193     5.6595852924    15.3771299176
Cu     13.5054403579     7.7883030926    15.3772814178
Cu      1.2140125591     0.6836803076    17.5697065574
Cu      2.4431555374     2.8116125893    17.5665702724
Cu      3.6705110760     4.9384343512    17.5687388115
Cu      4.8988742539     7.0688538531    17.5715929661
Cu      3.6716454744     0.6829118137    17.5713989532
Cu      4.8981418913     2.8112417067    17.5722074693
Cu      6.1274353048     4.9410331682    17.5708265763
Cu      7.3554752500     7.0698228126    17.5713297733
Cu      6.1297077779     0.6833063606    17.5689100221
Cu      7.3567237656     2.8135682139    17.5698797004
Cu      8.5851063076     4.9421568820    17.5702368079
Cu      9.8152975701     7.0699596058    17.5700617325
Cu      8.5865082080     0.6855771971    17.5667967496
Cu      9.8144914881     2.8135456562    17.5749499312
Cu     11.0427692018     4.9416447797    17.5690866435
Cu     12.2728600100     7.0692517198    17.5719744219
O       5.4816243728     2.5651691502    20.6539118200
O       7.3508896973     4.2099530947    19.0383354809
O       4.4981563510     3.9587391709    22.9072956728
C       5.9290713561     3.8945947838    20.9960208007
C       7.3297021271     4.1881915565    20.4688911028
C       5.8721709119     4.0116672750    22.5089584937
H       5.2340507257     4.6323215466    20.5533350446
H       8.0432145389     3.4244560240    20.8191443760
H       7.6571223136     5.1738780612    20.8354754738
H       6.3359933253     4.9675285031    22.8148914030
H       6.4497260984     3.1808581747    22.9509168945
H       5.8597578631     2.3152772777    19.7784701378
H       3.6583776659     2.5435355524    20.3168147116
H       4.4610770249     3.8064239805    23.8648388416
O       2.7103082747     2.5416543255    20.0177020144
H       2.4292112216     1.6097423068    20.0822731560
