80
Step 1 | NEB Image 1 | Cartesian Angstrom
Ni      1.2286497034     0.7093615225    11.2499999440
Ni      2.4572989609     2.8374461750    11.2499999440
Ni      3.6859482184     4.9655308275    11.2499999440
Ni      4.9145974759     7.0936154800    11.2499999440
Ni      3.6859497034     0.7093615225    11.2499999440
Ni      4.9145989609     2.8374461750    11.2499999440
Ni      6.1432482184     4.9655308275    11.2499999440
Ni      7.3718974759     7.0936154800    11.2499999440
Ni      6.1432497034     0.7093615225    11.2499999440
Ni      7.3718989609     2.8374461750    11.2499999440
Ni      8.6005482184     4.9655308275    11.2499999440
Ni      9.8291974759     7.0936154800    11.2499999440
Ni      8.6005497034     0.7093615225    11.2499999440
Ni      9.8291989609     2.8374461750    11.2499999440
Ni     11.0578482184     4.9655308275    11.2499999440
Ni     12.2864974759     7.0936154800    11.2499999440
Ni     14.7391156794     8.5053429999    13.3011712910
Ni     11.0531329642     2.1206495503    13.3008022026
Ni     12.2817169557     4.2489790177    13.3006008466
Ni     13.5101985270     6.3773433856    13.3009432678
Ni      7.3672569131     8.5047181091    13.3011774747
Ni      3.6813641840     2.1207833643    13.3007249066
Ni      4.9098915592     4.2493198517    13.3009123494
Ni      6.1382080000     6.3774560890    13.3011137055
Ni      9.8241033938     8.5046823573    13.3010831736
Ni      6.1383369699     2.1207818321    13.3007716707
Ni      7.3668809566     4.2490234521    13.3008056810
Ni      8.5953896076     6.3767159412    13.3009509974
Ni     12.2816608204     8.5051500252    13.3006066438
Ni      8.5958457422     2.1206092019    13.3010364095
Ni      9.8244550440     4.2487038138    13.3007276120
Ni     11.0528529688     6.3769410074    13.3006611374
Cu      2.4478274055     1.4024593708    15.3768195742
Cu      3.6763308468     3.5307009057    15.3768060474
Cu      4.9041378398     5.6597275336    15.3773448005
Cu      6.1330260451     7.7878910103    15.3784795057
Cu      4.9046987540     1.4026027186    15.3777977550
Cu      6.1325026510     3.5313493756    15.3777258697
Cu      7.3610720952     5.6598451741    15.3779276123
Cu      8.5906751295     7.7868954923    15.3785351588
Cu      7.3621786280     1.4037477983    15.3762151195
Cu      8.5904727564     3.5321453644    15.3780682910
Cu      9.8190628915     5.6596863338    15.3769316534
Cu     11.0489115080     7.7874997832    15.3777154348
Cu      9.8196453802     1.4041813317    15.3774700200
Cu     11.0479045662     3.5315147704    15.3771971651
Cu     12.2765483193     5.6595852924    15.3771299176
Cu     13.5054403579     7.7883030926    15.3772814178
Cu      1.2140125591     0.6836803076    17.5697065574
Cu      2.4431555374     2.8116125893    17.5665702724
Cu      3.6705110760     4.9384343512    17.5687388115
Cu      4.8988742539     7.0688538531    17.5715929661
Cu      3.6716454744     0.6829118137    17.5713989532
Cu      4.8981418913     2.8112417067    17.5722074693
Cu      6.1274353048     4.9410331682    17.5708265763
Cu      7.3554752500     7.0698228126    17.5713297733
Cu      6.1297077779     0.6833063606    17.5689100221
Cu      7.3567237656     2.8135682139    17.5698797004
Cu      8.5851063076     4.9421568820    17.5702368079
Cu      9.8152975701     7.0699596058    17.5700617325
Cu      8.5865082080     0.6855771971    17.5667967496
Cu      9.8144914881     2.8135456562    17.5749499312
Cu     11.0427692018     4.9416447797    17.5690866435
Cu     12.2728600100     7.0692517198    17.5719744219
O       7.2288202015     4.2734569284    22.3446828621
O       8.3044696405     5.3171068409    20.0014702420
O       8.8891638945     4.8479579810    24.7349733808
C       8.5251333110     4.9000290628    22.3715153937
C       9.1804211035     4.7744357207    20.9993344800
C       9.4189460410     4.3898719266    23.4895992517
H       8.3072385962     5.9614198807    22.5605187870
H       9.4153356173     3.7172718747    20.7683620669
H      10.1139922737     5.3503076003    20.9408546493
H      10.4461642949     4.7683945991    23.3275539960
H       9.4595638267     3.2836247445    23.4537018323
H       7.3561498138     3.3073831923    22.3295378714
H       7.4071380143     4.9636379387    20.1831718691
H       9.4432595602     4.5017937719    25.4528614775
O       2.4447775074     1.3898406800    19.0162048647
H       2.5328987835     1.2730973609    19.9764139723
80
Step 2 | NEB Image 2 | Cartesian Angstrom
Ni      1.2286130863     0.7093358870    11.2499277668
Ni      2.4572447629     2.8374311137    11.2498536292
Ni      3.6858902132     4.9655516867    11.2497943988
Ni      4.9145561460     7.0936761255    11.2497940692
Ni      3.6859157063     0.7093136539    11.2498686701
Ni      4.9145636638     2.8374153018    11.2497683431
Ni      6.1432295061     4.9655506582    11.2497162311
Ni      7.3719031090     7.0936806083    11.2497573609
Ni      6.1432392809     0.7092954180    11.2498207279
Ni      7.3719102024     2.8374065472    11.2497315792
Ni      8.6005861578     4.9655464673    11.2497211967
Ni      9.8292454852     7.0936678755    11.2497951191
Ni      8.6005749923     0.7092937498    11.2498158389
Ni      9.8292540349     2.8374116869    11.2497714643
Ni     11.0579170005     4.9655414894    11.2497996970
Ni     12.2865563085     7.0936485996    11.2498691130
Ni     14.7391881400     8.5053851165    13.3010813173
Ni     11.0533046863     2.1205393082    13.3004000871
Ni     12.2819016253     4.2489702404    13.3002654947
Ni     13.5103292716     6.3773862445    13.3007497177
Ni      7.3672633202     8.5049415513    13.3007410239
Ni      3.6812542700     2.1206796714    13.3002743362
Ni      4.9097637525     4.2493355332    13.3001917510
Ni      6.1381422180     6.3776470094    13.3004101895
Ni      9.8241987063     8.5048537581    13.3007307542
Ni      6.1383085137     2.1206098329    13.3001426239
Ni      7.3669256214     4.2490103824    13.2999532902
Ni      8.5954949097     6.3768803489    13.3002745424
Ni     12.2817670663     8.5052442723    13.3004070756
Ni      8.5959552744     2.1204372242    13.3004260436
Ni      9.8246448248     4.2486859533    13.3000808113
Ni     11.0530266499     6.3770368990    13.3002390592
Cu      2.4475460135     1.4021107595    15.3758460743
Cu      3.6758458745     3.5307948885    15.3747244758
Cu      4.9033526303     5.6604641864    15.3748496299
Cu      6.1327768701     7.7887515225    15.3770554644
Cu      4.9045512983     1.4019212472    15.3763766389
Cu      6.1323346342     3.5308820531    15.3744923725
Cu      7.3612185547     5.6605783502    15.3747054496
Cu      8.5909049469     7.7876503172    15.3771528000
Cu      7.3623338362     1.4028639721    15.3745187392
Cu      8.5910757646     3.5316582509    15.3753029252
Cu      9.8198156448     5.6600812587    15.3748696515
Cu     11.0492861587     7.7878781938    15.3769673165
Cu      9.8200992992     1.4035853515    15.3762636991
Cu     11.0485946508     3.5313088298    15.3759146913
Cu     12.2770421663     5.6597112512    15.3764135058
Cu     13.5056661733     7.7884349152    15.3770135241
Cu      1.2129224599     0.6827025136    17.5686392819
Cu      2.4404133679     2.8225596655    17.5459202335
Cu      3.6648612758     4.9416058276    17.5610547248
Cu      4.8962127381     7.0731308957    17.5668472471
Cu      3.6727089197     0.6801405523    17.5682571592
Cu      4.8947701188     2.8055517942    17.5565543067
Cu      6.1233485276     4.9489375926    17.5352538054
Cu      7.3549844257     7.0760283584    17.5630353579
Cu      6.1296468217     0.6801064483    17.5658498778
Cu      7.3604324540     2.8060352130    17.5533051401
Cu      8.5918894475     4.9435102650    17.5437941496
Cu      9.8172793440     7.0729436799    17.5651582367
Cu      8.5876241343     0.6826008291    17.5635343819
Cu      9.8181458238     2.8104232231    17.5678188063
Cu     11.0460781855     4.9418409870    17.5645122113
Cu     12.2738727567     7.0698521934    17.5708843885
O       6.5210929571     3.7441646521    21.8144358775
O       7.7793473505     5.0012852087    19.7660358650
O       7.5221146229     4.5248875075    24.4798313543
C       7.6527705749     4.5847933409    22.1027970187
C       8.5753050997     4.6115603958    20.8918334127
C       8.3726803800     4.2131867570    23.3877702613
H       7.2169507575     5.5843201283    22.2294230079
H       9.0366907963     3.6218436807    20.7063687672
H       9.3747423580     5.3555610677    20.9809757811
H       9.3216140959     4.7876520435    23.4311580653
H       8.6375317467     3.1346522413    23.3639849286
H       6.8316530229     2.8198323265    21.7291384409
H       6.9319397912     4.4998150595    19.8403685996
H       7.9572933510     4.2518915336    25.3075369562
O       2.4368052140     1.4097748288    18.9864837601
H       2.5111726128     1.3715494168    19.9823586012
80
Step 3 | NEB Image 3 | Cartesian Angstrom
Ni      1.2286018287     0.7093260955    11.2499022041
Ni      2.4572295027     2.8374257320    11.2497962751
Ni      3.6858811795     4.9655633913    11.2497183003
Ni      4.9145562433     7.0936998457    11.2497305087
Ni      3.6859085875     0.7092967706    11.2498198101
Ni      4.9145640308     2.8374086588    11.2496855538
Ni      6.1432404512     4.9655634395    11.2496312660
Ni      7.3719176865     7.0937026061    11.2496963382
Ni      6.1432460746     0.7092765912    11.2497607393
Ni      7.3719287304     2.8374010455    11.2496536103
Ni      8.6006100265     4.9655561983    11.2496533179
Ni      9.8292666418     7.0936834748    11.2497522005
Ni      8.6005926893     0.7092785667    11.2497649431
Ni      9.8292797167     2.8374079046    11.2497171706
Ni     11.0579421695     4.9655475507    11.2497590441
Ni     12.2865744905     7.0936572940    11.2498464279
Ni     14.7392039784     8.5053926173    13.3010718272
Ni     11.0533685460     2.1205253276    13.3003160445
Ni     12.2819566836     4.2489765207    13.3002107658
Ni     13.5103615346     6.3773969461    13.3007255699
Ni      7.3672926701     8.5050057339    13.3006399846
Ni      3.6812186078     2.1206319676    13.3000749450
Ni      4.9097742082     4.2493680679    13.2999129745
Ni      6.1381745442     6.3777223957    13.3002144263
Ni      9.8242393913     8.5048958708    13.3006659741
Ni      6.1383479642     2.1205678477    13.2999103100
Ni      7.3669932183     4.2490348685    13.2997215359
Ni      8.5955564110     6.3769352714    13.3001231768
Ni     12.2817970890     8.5052635174    13.3003797584
Ni      8.5960262692     2.1204088623    13.3002620621
Ni      9.8247260395     4.2486969961    13.2999388984
Ni     11.0530860366     6.3770649726    13.3001654378
Cu      2.4473716140     1.4019034329    15.3756434575
Cu      3.6755523145     3.5308295145    15.3734524267
Cu      4.9034456147     5.6608668969    15.3739658045
Cu      6.1328414538     7.7890115209    15.3767071908
Cu      4.9045269222     1.4014917248    15.3755374515
Cu      6.1327067052     3.5310011138    15.3733267603
Cu      7.3614011788     5.6608533340    15.3739922591
Cu      8.5910493889     7.7878492213    15.3768895803
Cu      7.3625716036     1.4026626456    15.3739440578
Cu      8.5913964531     3.5316198201    15.3746239016
Cu      9.8201398931     5.6602387145    15.3744361765
Cu     11.0494012550     7.7879542433    15.3768812860
Cu      9.8203148944     1.4034868452    15.3759744405
Cu     11.0488315970     3.5313089607    15.3757050077
Cu     12.2771651376     5.6597464277    15.3763497207
Cu     13.5057107586     7.7884542026    15.3769990007
Cu      1.2136561722     0.6832817144    17.5696161124
Cu      2.4379318521     2.8196432635    17.5405288194
Cu      3.6607175035     4.9461069745    17.5521820454
Cu      4.8964767516     7.0748371328    17.5653475278
Cu      3.6710550436     0.6799468111    17.5687573496
Cu      4.8936925482     2.7994735124    17.5363289332
Cu      6.1291245224     4.9528898092    17.5341626880
Cu      7.3555096032     7.0775254212    17.5615256031
Cu      6.1302587704     0.6782030724    17.5636767455
Cu      7.3631761868     2.8068779968    17.5500955963
Cu      8.5970564837     4.9458118978    17.5342898102
Cu      9.8180683779     7.0734590950    17.5648123235
Cu      8.5885545070     0.6817838727    17.5622760393
Cu      9.8197905791     2.8100626951    17.5665144503
Cu     11.0468658742     4.9420453466    17.5645370556
Cu     12.2740171280     7.0698884195    17.5709419002
O       6.0398591656     3.5170284082    21.1555533098
O       7.4284503940     4.3708204307    19.3503182749
O       6.4797335143     4.3183234713    23.8828201908
C       7.0820482163     4.4201775986    21.6259896102
C       8.1852119977     4.4510680241    20.5686083330
C       7.5811175087     4.0854095333    22.9946905742
H       6.5774811571     5.3964730428    21.6183847319
H       8.8839705423     3.5977511714    20.6068079155
H       8.7675810293     5.3873548561    20.5507019447
H       8.4359149559     4.7396351104    23.2122828917
H       7.9175225789     3.0406427979    23.0134180427
H       6.4026114982     2.6067585203    21.0498078137
H       6.5500758172     3.9738367325    19.6758131395
H       6.8200867654     4.1692341483    24.8293510546
O       3.0460541063     1.7624182680    19.1460437187
H       2.3460243323     1.3613460794    19.6971877471
80
Step 4 | NEB Image 4 | Cartesian Angstrom
Ni      1.2286094372     0.7093317813    11.2499126411
Ni      2.4572414676     2.8374305967    11.2498216660
Ni      3.6858941726     4.9655614035    11.2497559802
Ni      4.9145655086     7.0936900964    11.2497671624
Ni      3.6859163558     0.7093065926    11.2498390554
Ni      4.9145726945     2.8374168870    11.2497241148
Ni      6.1432460889     4.9655624194    11.2496796534
Ni      7.3719190106     7.0936932475    11.2497371987
Ni      6.1432504855     0.7092889722    11.2497861243
Ni      7.3719301663     2.8374102435    11.2496951165
Ni      8.6006070646     4.9655561251    11.2496977903
Ni      9.8292613960     7.0936765305    11.2497858684
Ni      8.6005922665     0.7092902858    11.2497907405
Ni      9.8292749323     2.8374152669    11.2497516946
Ni     11.0579343713     4.9655475797    11.2497910851
Ni     12.2865669128     7.0936529632    11.2498683569
Ni     14.7391932385     8.5053861943    13.3010879929
Ni     11.0533523874     2.1205462404    13.3003779294
Ni     12.2819337661     4.2489812444    13.3002673291
Ni     13.5103430460     6.3773914212    13.3007600609
Ni      7.3672971020     8.5049706288    13.3007139797
Ni      3.6812456114     2.1206596359    13.3001487945
Ni      4.9098068476     4.2493745256    13.3000481557
Ni      6.1381917114     6.3776925265    13.3003409388
Ni      9.8242290994     8.5048699605    13.3007266739
Ni      6.1383622674     2.1206075446    13.3000062283
Ni      7.3669941387     4.2490470620    13.2998608148
Ni      8.5955479375     6.3769144791    13.3002351765
Ni     12.2817824354     8.5052490480    13.3004153259
Ni      8.5960226337     2.1204420980    13.3003483252
Ni      9.8247085094     4.2487070768    13.3000402052
Ni     11.0530649490     6.3770531938    13.3002373891
Cu      2.4474285226     1.4019904399    15.3757736378
Cu      3.6756981458     3.5308586871    15.3738664137
Cu      4.9036436495     5.6607187798    15.3745201976
Cu      6.1329022389     7.7888623894    15.3769588081
Cu      4.9045963812     1.4016482650    15.3757186400
Cu      6.1327685886     3.5311694809    15.3739455444
Cu      7.3613897178     5.6607573306    15.3745528105
Cu      8.5910388426     7.7877350626    15.3771323517
Cu      7.3626028620     1.4028202240    15.3741421575
Cu      8.5913749597     3.5317398414    15.3750196748
Cu      9.8200654674     5.6602020111    15.3747875747
Cu     11.0493488737     7.7878929941    15.3770260307
Cu      9.8202977243     1.4035890663    15.3761484386
Cu     11.0487567077     3.5313587439    15.3759283838
Cu     12.2770924773     5.6597307514    15.3764882056
Cu     13.5056747734     7.7884323506    15.3770515727
Cu      1.2136050768     0.6833197142    17.5694240459
Cu      2.4381138510     2.8162596427    17.5460744159
Cu      3.6636352991     4.9459401770    17.5543282911
Cu      4.8970553956     7.0738242948    17.5662957170
Cu      3.6709255482     0.6801260398    17.5686000470
Cu      4.8977276858     2.8032957171    17.5392220945
Cu      6.1275043549     4.9501089617    17.5427830442
Cu      7.3558742827     7.0765848499    17.5629738606
Cu      6.1306093153     0.6785085001    17.5635036609
Cu      7.3626145297     2.8084395504    17.5517860579
Cu      8.5976473588     4.9469070910    17.5388444516
Cu      9.8177893962     7.0728926838    17.5659237735
Cu      8.5887664268     0.6821382346    17.5626074106
Cu      9.8195977287     2.8106865734    17.5678545126
Cu     11.0462995948     4.9420550218    17.5655713941
Cu     12.2738287683     7.0697736496    17.5711833632
O       5.9288459189     3.0392183536    20.9888050373
O       7.4850102249     4.2760122821    19.0591702563
O       5.9565012308     4.2764389198    23.6107855587
C       6.7077221628     4.2021289240    21.3488725947
C       7.9097806425     4.3486613257    20.4250263528
C       7.1239499424     4.0904479109    22.8067485396
H       6.0499251947     5.0863285801    21.2304197324
H       8.6370480004     3.5340951782    20.6135540680
H       8.4237334060     5.3047551429    20.6117165526
H       7.8858026504     4.8611222746    23.0317079902
H       7.5724847399     3.0979602358    22.9656421446
H       6.4214905145     2.5868040030    20.2232939433
H       4.4292943640     2.9004787772    20.2422427573
H       6.2042845555     4.0974864761    24.5564450386
O       3.5537944667     2.6960069880    19.7713499934
H       3.2178014555     1.8176064185    20.0526375761
80
Step 5 | NEB Image 5 | Cartesian Angstrom
Ni      1.2286497034     0.7093615225    11.2499999440
Ni      2.4572989609     2.8374461750    11.2499999440
Ni      3.6859482184     4.9655308275    11.2499999440
Ni      4.9145974759     7.0936154800    11.2499999440
Ni      3.6859497034     0.7093615225    11.2499999440
Ni      4.9145989609     2.8374461750    11.2499999440
Ni      6.1432482184     4.9655308275    11.2499999440
Ni      7.3718974759     7.0936154800    11.2499999440
Ni      6.1432497034     0.7093615225    11.2499999440
Ni      7.3718989609     2.8374461750    11.2499999440
Ni      8.6005482184     4.9655308275    11.2499999440
Ni      9.8291974759     7.0936154800    11.2499999440
Ni      8.6005497034     0.7093615225    11.2499999440
Ni      9.8291989609     2.8374461750    11.2499999440
Ni     11.0578482184     4.9655308275    11.2499999440
Ni     12.2864974759     7.0936154800    11.2499999440
Ni     14.7391156794     8.5053429999    13.3011712910
Ni     11.0531329642     2.1206495503    13.3008022026
Ni     12.2817169557     4.2489790177    13.3006008466
Ni     13.5101985270     6.3773433856    13.3009432678
Ni      7.3672569131     8.5047181091    13.3011774747
Ni      3.6813641840     2.1207833643    13.3007249066
Ni      4.9098915592     4.2493198517    13.3009123494
Ni      6.1382080000     6.3774560890    13.3011137055
Ni      9.8241033938     8.5046823573    13.3010831736
Ni      6.1383369699     2.1207818321    13.3007716707
Ni      7.3668809566     4.2490234521    13.3008056810
Ni      8.5953896076     6.3767159412    13.3009509974
Ni     12.2816608204     8.5051500252    13.3006066438
Ni      8.5958457422     2.1206092019    13.3010364095
Ni      9.8244550440     4.2487038138    13.3007276120
Ni     11.0528529688     6.3769410074    13.3006611374
Cu      2.4478274055     1.4024593708    15.3768195742
Cu      3.6763308468     3.5307009057    15.3768060474
Cu      4.9041378398     5.6597275336    15.3773448005
Cu      6.1330260451     7.7878910103    15.3784795057
Cu      4.9046987540     1.4026027186    15.3777977550
Cu      6.1325026510     3.5313493756    15.3777258697
Cu      7.3610720952     5.6598451741    15.3779276123
Cu      8.5906751295     7.7868954923    15.3785351588
Cu      7.3621786280     1.4037477983    15.3762151195
Cu      8.5904727564     3.5321453644    15.3780682910
Cu      9.8190628915     5.6596863338    15.3769316534
Cu     11.0489115080     7.7874997832    15.3777154348
Cu      9.8196453802     1.4041813317    15.3774700200
Cu     11.0479045662     3.5315147704    15.3771971651
Cu     12.2765483193     5.6595852924    15.3771299176
Cu     13.5054403579     7.7883030926    15.3772814178
Cu      1.2140125591     0.6836803076    17.5697065574
Cu      2.4431555374     2.8116125893    17.5665702724
Cu      3.6705110760     4.9384343512    17.5687388115
Cu      4.8988742539     7.0688538531    17.5715929661
Cu      3.6716454744     0.6829118137    17.5713989532
Cu      4.8981418913     2.8112417067    17.5722074693
Cu      6.1274353048     4.9410331682    17.5708265763
Cu      7.3554752500     7.0698228126    17.5713297733
Cu      6.1297077779     0.6833063606    17.5689100221
Cu      7.3567237656     2.8135682139    17.5698797004
Cu      8.5851063076     4.9421568820    17.5702368079
Cu      9.8152975701     7.0699596058    17.5700617325
Cu      8.5865082080     0.6855771971    17.5667967496
Cu      9.8144914881     2.8135456562    17.5749499312
Cu     11.0427692018     4.9416447797    17.5690866435
Cu     12.2728600100     7.0692517198    17.5719744219
O       5.4816243728     2.5651691502    20.6539118200
O       7.3508896973     4.2099530947    19.0383354809
O       4.4981563510     3.9587391709    22.9072956728
C       5.9290713561     3.8945947838    20.9960208007
C       7.3297021271     4.1881915565    20.4688911028
C       5.8721709119     4.0116672750    22.5089584937
H       5.2340507257     4.6323215466    20.5533350446
H       8.0432145389     3.4244560240    20.8191443760
H       7.6571223136     5.1738780612    20.8354754738
H       6.3359933253     4.9675285031    22.8148914030
H       6.4497260984     3.1808581747    22.9509168945
H       5.8597578631     2.3152772777    19.7784701378
H       3.6583776659     2.5435355524    20.3168147116
H       4.4610770249     3.8064239805    23.8648388416
O       2.7103082747     2.5416543255    20.0177020144
H       2.4292112216     1.6097423068    20.0822731560
