80
Step 1 | NEB Image 1 | Cartesian Angstrom
Ni      1.2286497034     0.7093615225    11.2499999440
Ni      2.4572989609     2.8374461750    11.2499999440
Ni      3.6859482184     4.9655308275    11.2499999440
Ni      4.9145974759     7.0936154800    11.2499999440
Ni      3.6859497034     0.7093615225    11.2499999440
Ni      4.9145989609     2.8374461750    11.2499999440
Ni      6.1432482184     4.9655308275    11.2499999440
Ni      7.3718974759     7.0936154800    11.2499999440
Ni      6.1432497034     0.7093615225    11.2499999440
Ni      7.3718989609     2.8374461750    11.2499999440
Ni      8.6005482184     4.9655308275    11.2499999440
Ni      9.8291974759     7.0936154800    11.2499999440
Ni      8.6005497034     0.7093615225    11.2499999440
Ni      9.8291989609     2.8374461750    11.2499999440
Ni     11.0578482184     4.9655308275    11.2499999440
Ni     12.2864974759     7.0936154800    11.2499999440
Ni     14.7391156794     8.5053429999    13.3011712910
Ni     11.0531329642     2.1206495503    13.3008022026
Ni     12.2817169557     4.2489790177    13.3006008466
Ni     13.5101985270     6.3773433856    13.3009432678
Ni      7.3672569131     8.5047181091    13.3011774747
Ni      3.6813641840     2.1207833643    13.3007249066
Ni      4.9098915592     4.2493198517    13.3009123494
Ni      6.1382080000     6.3774560890    13.3011137055
Ni      9.8241033938     8.5046823573    13.3010831736
Ni      6.1383369699     2.1207818321    13.3007716707
Ni      7.3668809566     4.2490234521    13.3008056810
Ni      8.5953896076     6.3767159412    13.3009509974
Ni     12.2816608204     8.5051500252    13.3006066438
Ni      8.5958457422     2.1206092019    13.3010364095
Ni      9.8244550440     4.2487038138    13.3007276120
Ni     11.0528529688     6.3769410074    13.3006611374
Cu      2.4478274055     1.4024593708    15.3768195742
Cu      3.6763308468     3.5307009057    15.3768060474
Cu      4.9041378398     5.6597275336    15.3773448005
Cu      6.1330260451     7.7878910103    15.3784795057
Cu      4.9046987540     1.4026027186    15.3777977550
Cu      6.1325026510     3.5313493756    15.3777258697
Cu      7.3610720952     5.6598451741    15.3779276123
Cu      8.5906751295     7.7868954923    15.3785351588
Cu      7.3621786280     1.4037477983    15.3762151195
Cu      8.5904727564     3.5321453644    15.3780682910
Cu      9.8190628915     5.6596863338    15.3769316534
Cu     11.0489115080     7.7874997832    15.3777154348
Cu      9.8196453802     1.4041813317    15.3774700200
Cu     11.0479045662     3.5315147704    15.3771971651
Cu     12.2765483193     5.6595852924    15.3771299176
Cu     13.5054403579     7.7883030926    15.3772814178
Cu      1.2140125591     0.6836803076    17.5697065574
Cu      2.4431555374     2.8116125893    17.5665702724
Cu      3.6705110760     4.9384343512    17.5687388115
Cu      4.8988742539     7.0688538531    17.5715929661
Cu      3.6716454744     0.6829118137    17.5713989532
Cu      4.8981418913     2.8112417067    17.5722074693
Cu      6.1274353048     4.9410331682    17.5708265763
Cu      7.3554752500     7.0698228126    17.5713297733
Cu      6.1297077779     0.6833063606    17.5689100221
Cu      7.3567237656     2.8135682139    17.5698797004
Cu      8.5851063076     4.9421568820    17.5702368079
Cu      9.8152975701     7.0699596058    17.5700617325
Cu      8.5865082080     0.6855771971    17.5667967496
Cu      9.8144914881     2.8135456562    17.5749499312
Cu     11.0427692018     4.9416447797    17.5690866435
Cu     12.2728600100     7.0692517198    17.5719744219
O       7.2288202015     4.2734569284    22.3446828621
O       8.3044696405     5.3171068409    20.0014702420
O       8.8891638945     4.8479579810    24.7349733808
C       8.5251333110     4.9000290628    22.3715153937
C       9.1804211035     4.7744357207    20.9993344800
C       9.4189460410     4.3898719266    23.4895992517
H       8.3072385962     5.9614198807    22.5605187870
H       9.4153356173     3.7172718747    20.7683620669
H      10.1139922737     5.3503076003    20.9408546493
H      10.4461642949     4.7683945991    23.3275539960
H       9.4595638267     3.2836247445    23.4537018323
H       7.3561498138     3.3073831923    22.3295378714
H       7.4071380143     4.9636379387    20.1831718691
H       9.4432595602     4.5017937719    25.4528614775
O       2.4447775074     1.3898406800    19.0162048647
H       2.5328987835     1.2730973609    19.9764139723
80
Step 2 | NEB Image 2 | Cartesian Angstrom
Ni      1.2286128339     0.7093356665    11.2499271862
Ni      2.4572444226     2.8374309944    11.2498523286
Ni      3.6858900182     4.9655519556    11.2497926776
Ni      4.9145561584     7.0936766642    11.2497926373
Ni      3.6859155499     0.7093132736    11.2498675596
Ni      4.9145636818     2.8374151569    11.2497664680
Ni      6.1432297658     4.9655509531    11.2497143163
Ni      7.3719034481     7.0936811075    11.2497559924
Ni      6.1432394431     0.7092949956    11.2498193664
Ni      7.3719106331     2.8374064299    11.2497298189
Ni      8.6005867074     4.9655466926    11.2497196734
Ni      9.8292459694     7.0936682292    11.2497941620
Ni      8.6005754018     0.7092934110    11.2498146884
Ni      9.8292546244     2.8374116074    11.2497702447
Ni     11.0579175749     4.9655416299    11.2497987906
Ni     12.2865567213     7.0936487963    11.2498686116
Ni     14.7391884950     8.5053852832    13.3010811152
Ni     11.0533061476     2.1205390073    13.3003982085
Ni     12.2819028754     4.2489703911    13.3002642892
Ni     13.5103299985     6.3773864863    13.3007491963
Ni      7.3672640048     8.5049429993    13.3007387649
Ni      3.6812534736     2.1206785969    13.3002697991
Ni      4.9097640305     4.2493362939    13.3001854426
Ni      6.1381429856     6.3776487227    13.3004057943
Ni      9.8241996373     8.5048547050    13.3007293205
Ni      6.1383094431     2.1206089040    13.3001373485
Ni      7.3669271880     4.2490109630    13.2999480754
Ni      8.5954963249     6.3768815981    13.3002711595
Ni     12.2817677456     8.5052447022    13.3004064819
Ni      8.5959569148     2.1204366037    13.3004223402
Ni      9.8246466866     4.2486862201    13.3000776356
Ni     11.0530280022     6.3770375362    13.3002374331
Cu      2.4475420366     1.4021060531    15.3758415243
Cu      3.6758392354     3.5307957226    15.3746954679
Cu      4.9033550014     5.6604733511    15.3748297680
Cu      6.1327784327     7.7887573807    15.3770476741
Cu      4.9045508100     1.4019114707    15.3763574011
Cu      6.1323433198     3.5308849955    15.3744660548
Cu      7.3612227719     5.6605846138    15.3746895466
Cu      8.5909082808     7.7876547988    15.3771469700
Cu      7.3623393775     1.4028594821    15.3745056463
Cu      8.5910831686     3.5316574926    15.3752876326
Cu      9.8198230732     5.6600848653    15.3748599974
Cu     11.0492887670     7.7878798880    15.3769654828
Cu      9.8201042738     1.4035831822    15.3762571905
Cu     11.0486000566     3.5313088875    15.3759100800
Cu     12.2770449348     5.6597120487    15.3764121805
Cu     13.5056671664     7.7884353379    15.3770132454
Cu      1.2129393975     0.6827159704    17.5686616958
Cu      2.4403560925     2.8224884032    17.5458014494
Cu      3.6647685038     4.9417098970    17.5608515781
Cu      4.8962194883     7.0731693025    17.5668135526
Cu      3.6726704715     0.6801362618    17.5682685716
Cu      4.8947495907     2.8054152093    17.5560890366
Cu      6.1234805286     4.9490260782    17.5352379973
Cu      7.3549969899     7.0760619997    17.5630019799
Cu      6.1296613801     0.6800626989    17.5657993552
Cu      7.3604953858     2.8060564473    17.5532326587
Cu      8.5920097715     4.9435647762    17.5435790168
Cu      9.8172973127     7.0729549957    17.5651514451
Cu      8.5876459156     0.6825822964    17.5635056008
Cu      9.8181837068     2.8104155577    17.5677900668
Cu     11.0460958077     4.9418457309    17.5645139223
Cu     12.2738758937     7.0698529064    17.5708859856
O       6.5389342784     3.7483003171    21.8789827265
O       7.8480272250     5.0981495793    19.8735046753
O       7.5239394841     4.4092475570    24.5808084865
C       7.6738190790     4.5724561437    22.2051639719
C       8.6057814015     4.6447206169    21.0014253421
C       8.3890354195     4.1471727694    23.4714416077
H       7.2389889910     5.5713624711    22.3689903935
H       9.0572562449     3.6565524502    20.7852220030
H       9.4166803493     5.3701009372    21.1438485571
H       9.3300120132     4.7211365702    23.5529576499
H       8.6516114690     3.0737756950    23.4091516942
H       6.8412845645     2.8241575748    21.7989422827
H       6.9946573931     4.6054552912    19.8992049706
H       7.9910696081     4.1613012316    25.4027010817
O       2.4604401106     1.4223788133    18.9958160799
H       2.5184414852     1.3867684446    19.9657366523
80
Step 3 | NEB Image 3 | Cartesian Angstrom
Ni      1.2286009322     0.7093252808    11.2498999111
Ni      2.4572283497     2.8374253497    11.2497912048
Ni      3.6858807193     4.9655645462    11.2497117231
Ni      4.9145566022     7.0937019709    11.2497252101
Ni      3.6859081320     0.7092953664    11.2498154010
Ni      4.9145643954     2.8374082705    11.2496783068
Ni      6.1432418133     4.9655647439    11.2496241601
Ni      7.3719192679     7.0937045650    11.2496914646
Ni      6.1432469544     0.7092750791    11.2497553920
Ni      7.3719307311     2.8374008136    11.2496469806
Ni      8.6006124227     4.9655572179    11.2496478599
Ni      9.8292686672     7.0936848524    11.2497489583
Ni      8.6005945327     0.7092774125    11.2497605666
Ni      9.8292822348     2.8374077842    11.2497127655
Ni     11.0579445204     4.9655481886    11.2497559787
Ni     12.2865761156     7.0936580445    11.2498448698
Ni     14.7392052383     8.5053931637    13.3010714385
Ni     11.0533746473     2.1205246458    13.3003095435
Ni     12.2819616058     4.2489773583    13.3002071443
Ni     13.5103642285     6.3773978625    13.3007243308
Ni      7.3672959204     8.5050111560    13.3006321536
Ni      3.6812158772     2.1206279969    13.3000567754
Ni      4.9097765349     4.2493717291    13.2998887724
Ni      6.1381785865     6.3777291920    13.3001986195
Ni      9.8242432784     8.5048993203    13.3006614523
Ni      6.1383526472     2.1205649304    13.2998895118
Ni      7.3670003549     4.2490378999    13.2997024282
Ni      8.5955625536     6.3769402593    13.3001114885
Ni     12.2817996918     8.5052649949    13.3003782268
Ni      8.5960335913     2.1204071332    13.3002480799
Ni      9.8247339125     4.2486985357    13.2999278009
Ni     11.0530914824     6.3770674789    13.3001604105
Cu      2.4473554325     1.4018849246    15.3756270687
Cu      3.6755269599     3.5308342502    15.3733343600
Cu      4.9034628361     5.6609036332    15.3738938093
Cu      6.1328505265     7.7890332252    15.3766800687
Cu      4.9045269749     1.4014524886    15.3754561022
Cu      6.1327481248     3.5310199584    15.3732275828
Cu      7.3614199345     5.6608786120    15.3739384230
Cu      8.5910641675     7.7878658229    15.3768710613
Cu      7.3625977604     1.4026474234    15.3738911347
Cu      8.5914293367     3.5316202989    15.3745674545
Cu      9.8201711589     5.6602538761    15.3744038576
Cu     11.0494113762     7.7879599285    15.3768776942
Cu      9.8203368994     1.4034803425    15.3759505977
Cu     11.0488536731     3.5313108478    15.3756913835
Cu     12.2771753231     5.6597495336    15.3763482305
Cu     13.5057140887     7.7884554067    15.3769994531
Cu      1.2137313354     0.6833439969    17.5697115136
Cu      2.4376779855     2.8192095301    17.5401710654
Cu      3.6603919448     4.9465736016    17.5513306199
Cu      4.8965262644     7.0749782814    17.5652256437
Cu      3.6708764095     0.6799332005    17.5688039817
Cu      4.8937311799     2.7989787418    17.5343128671
Cu      6.1296703976     4.9532003959    17.5343724407
Cu      7.3555785029     7.0776473129    17.5614214825
Cu      6.1303362547     0.6780145915    17.5634419166
Cu      7.3634433160     2.8070253042    17.5498220052
Cu      8.5976215827     4.9460949268    17.5334626500
Cu      9.8181407779     7.0734919317    17.5648178053
Cu      8.5886602293     0.6817113757    17.5621563038
Cu      9.8199561249     2.8100482938    17.5664278381
Cu     11.0469273216     4.9420671813    17.5645785885
Cu     12.2740252080     7.0698879067    17.5709570289
O       5.9437186951     3.4583582070    21.4264700188
O       7.4474286442     4.3287245270    19.5674644605
O       6.4373201373     4.2709099777    24.1982753401
C       6.9671939748     4.3712044644    21.8794250858
C       8.0951848261     4.4076923832    20.8445181944
C       7.4874958712     4.0479126530    23.2594943286
H       6.4580363422     5.3423737813    21.8904411447
H       8.7987558401     3.5646195120    20.9502595184
H       8.6630662929     5.3484366444    20.8791950389
H       8.3614775354     4.6966391428    23.4593678143
H       7.8389243763     2.9985356175    23.2741139282
H       6.2680373801     2.5393973983    21.4919680445
H       6.5781623848     3.8733898183    19.7578944842
H       6.7722923000     4.0587647087    25.0930363997
O       3.1584690678     1.8323530481    19.1403870846
H       2.4775319727     1.4566969848    19.7318658572
80
Step 4 | NEB Image 4 | Cartesian Angstrom
Ni      1.2286065565     0.7093296158    11.2499085951
Ni      2.4572369604     2.8374287719    11.2498118681
Ni      3.6858893484     4.9655622379    11.2497415244
Ni      4.9145621296     7.0936938743    11.2497531979
Ni      3.6859134555     0.7093028520    11.2498315787
Ni      4.9145695375     2.8374138234    11.2497092751
Ni      6.1432441344     4.9655629108    11.2496612087
Ni      7.3719186637     7.0936968668    11.2497217233
Ni      6.1432489398     0.7092842799    11.2497763040
Ni      7.3719298155     2.8374068367    11.2496792474
Ni      8.6006083679     4.9655562427    11.2496809333
Ni      9.8292635071     7.0936792094    11.2497731859
Ni      8.6005925859     0.7092858690    11.2497808546
Ni      9.8292769173     2.8374125459    11.2497385936
Ni     11.0579374510     4.9655476257    11.2497790172
Ni     12.2865698468     7.0936546242    11.2498601455
Ni     14.7391973042     8.5053886074    13.3010820071
Ni     11.0533588781     2.1205384810    13.3003545695
Ni     12.2819426403     4.2489795798    13.3002461841
Ni     13.5103500918     6.3773935366    13.3007472533
Ni      7.3672957592     8.5049840341    13.3006860434
Ni      3.6812354277     2.1206490973    13.3001199933
Ni      4.9097950384     4.2493724735    13.2999962399
Ni      6.1381857506     6.3777041264    13.3002929602
Ni      9.8242332336     8.5048798056    13.3007039261
Ni      6.1383574179     2.1205926714    13.2999690691
Ni      7.3669944339     4.2490428424    13.2998078431
Ni      8.5955516027     6.3769225767    13.3001929065
Ni     12.2817880612     8.5052545061    13.3004020960
Ni      8.5960246226     2.1204297090    13.3003153260
Ni      9.8247156624     4.2487035025    13.3000019242
Ni     11.0530731960     6.3770577527    13.3002104543
Cu      2.4474061346     1.4019567648    15.3757242572
Cu      3.6756422069     3.5308483682    15.3737035190
Cu      4.9035722749     5.6607765714    15.3743097070
Cu      6.1328806675     7.7889192190    15.3768637680
Cu      4.9045708153     1.4015871504    15.3756447099
Cu      6.1327494867     3.5311091725    15.3737089339
Cu      7.3613956034     5.6607949191    15.3743416661
Cu      8.5910440381     7.7877785639    15.3770413325
Cu      7.3625936784     1.4027608607    15.3740645272
Cu      8.5913857938     3.5316956993    15.3748689599
Cu      9.8200956443     5.6602168701    15.3746553396
Cu     11.0493690566     7.7879160475    15.3769724253
Cu      9.8203060003     1.4035508569    15.3760822646
Cu     11.0487862388     3.5313405843    15.3758449397
Cu     12.2771201314     5.6597367984    15.3764370914
Cu     13.5056883168     7.7884405022    15.3770322590
Cu      1.2136305648     0.6833112583    17.5695032291
Cu      2.4380242955     2.8174667546    17.5440010755
Cu      3.6625322178     4.9460430387    17.5534625283
Cu      4.8968467725     7.0742097012    17.5659358219
Cu      3.6709573501     0.6800588493    17.5686620993
Cu      4.8962456222     2.8018446532    17.5379778913
Cu      6.1281493010     4.9511602967    17.5396281809
Cu      7.3557461509     7.0769419412    17.5624314485
Cu      6.1304871496     0.6783793146    17.5635465172
Cu      7.3628450309     2.8078777673    17.5511394244
Cu      8.5974800394     4.9465290519    17.5370942177
Cu      9.8178985328     7.0731041198    17.5655150913
Cu      8.5886978034     0.6820013389    17.5624747818
Cu      9.8196834324     2.8104556193    17.5673534871
Cu     11.0465135242     4.9420533999    17.5651943026
Cu     12.2738988289     7.0698158554    17.5710958151
O       6.0196551683     2.9551718249    21.0480859971
O       7.4603943753     4.2572270116    19.0452164985
O       6.1422443356     4.2825312078    23.6890809315
C       6.7563545693     4.1612979526    21.3756552025
C       7.9153546568     4.3535500868    20.4043296241
C       7.2562167691     4.0841142100    22.8128736136
H       6.0604273364     5.0125221246    21.2927222789
H       8.6883246695     3.5820209898    20.5706353560
H       8.3807141281     5.3382409841    20.5693708708
H       8.0276214863     4.8606980510    22.9763141265
H       7.7206440884     3.0947059001    22.9709772690
H       6.4461756955     2.5542531596    20.2648874375
H       4.3944800741     2.9388898100    20.3975558725
H       6.4291915288     4.0995391144    24.6002270669
O       3.5068032915     2.7977062784    19.9634538975
H       3.3095776175     1.8519229641    20.0997982465
80
Step 5 | NEB Image 5 | Cartesian Angstrom
Ni      1.2286497034     0.7093615225    11.2499999440
Ni      2.4572989609     2.8374461750    11.2499999440
Ni      3.6859482184     4.9655308275    11.2499999440
Ni      4.9145974759     7.0936154800    11.2499999440
Ni      3.6859497034     0.7093615225    11.2499999440
Ni      4.9145989609     2.8374461750    11.2499999440
Ni      6.1432482184     4.9655308275    11.2499999440
Ni      7.3718974759     7.0936154800    11.2499999440
Ni      6.1432497034     0.7093615225    11.2499999440
Ni      7.3718989609     2.8374461750    11.2499999440
Ni      8.6005482184     4.9655308275    11.2499999440
Ni      9.8291974759     7.0936154800    11.2499999440
Ni      8.6005497034     0.7093615225    11.2499999440
Ni      9.8291989609     2.8374461750    11.2499999440
Ni     11.0578482184     4.9655308275    11.2499999440
Ni     12.2864974759     7.0936154800    11.2499999440
Ni     14.7391156794     8.5053429999    13.3011712910
Ni     11.0531329642     2.1206495503    13.3008022026
Ni     12.2817169557     4.2489790177    13.3006008466
Ni     13.5101985270     6.3773433856    13.3009432678
Ni      7.3672569131     8.5047181091    13.3011774747
Ni      3.6813641840     2.1207833643    13.3007249066
Ni      4.9098915592     4.2493198517    13.3009123494
Ni      6.1382080000     6.3774560890    13.3011137055
Ni      9.8241033938     8.5046823573    13.3010831736
Ni      6.1383369699     2.1207818321    13.3007716707
Ni      7.3668809566     4.2490234521    13.3008056810
Ni      8.5953896076     6.3767159412    13.3009509974
Ni     12.2816608204     8.5051500252    13.3006066438
Ni      8.5958457422     2.1206092019    13.3010364095
Ni      9.8244550440     4.2487038138    13.3007276120
Ni     11.0528529688     6.3769410074    13.3006611374
Cu      2.4478274055     1.4024593708    15.3768195742
Cu      3.6763308468     3.5307009057    15.3768060474
Cu      4.9041378398     5.6597275336    15.3773448005
Cu      6.1330260451     7.7878910103    15.3784795057
Cu      4.9046987540     1.4026027186    15.3777977550
Cu      6.1325026510     3.5313493756    15.3777258697
Cu      7.3610720952     5.6598451741    15.3779276123
Cu      8.5906751295     7.7868954923    15.3785351588
Cu      7.3621786280     1.4037477983    15.3762151195
Cu      8.5904727564     3.5321453644    15.3780682910
Cu      9.8190628915     5.6596863338    15.3769316534
Cu     11.0489115080     7.7874997832    15.3777154348
Cu      9.8196453802     1.4041813317    15.3774700200
Cu     11.0479045662     3.5315147704    15.3771971651
Cu     12.2765483193     5.6595852924    15.3771299176
Cu     13.5054403579     7.7883030926    15.3772814178
Cu      1.2140125591     0.6836803076    17.5697065574
Cu      2.4431555374     2.8116125893    17.5665702724
Cu      3.6705110760     4.9384343512    17.5687388115
Cu      4.8988742539     7.0688538531    17.5715929661
Cu      3.6716454744     0.6829118137    17.5713989532
Cu      4.8981418913     2.8112417067    17.5722074693
Cu      6.1274353048     4.9410331682    17.5708265763
Cu      7.3554752500     7.0698228126    17.5713297733
Cu      6.1297077779     0.6833063606    17.5689100221
Cu      7.3567237656     2.8135682139    17.5698797004
Cu      8.5851063076     4.9421568820    17.5702368079
Cu      9.8152975701     7.0699596058    17.5700617325
Cu      8.5865082080     0.6855771971    17.5667967496
Cu      9.8144914881     2.8135456562    17.5749499312
Cu     11.0427692018     4.9416447797    17.5690866435
Cu     12.2728600100     7.0692517198    17.5719744219
O       5.4816243728     2.5651691502    20.6539118200
O       7.3508896973     4.2099530947    19.0383354809
O       4.4981563510     3.9587391709    22.9072956728
C       5.9290713561     3.8945947838    20.9960208007
C       7.3297021271     4.1881915565    20.4688911028
C       5.8721709119     4.0116672750    22.5089584937
H       5.2340507257     4.6323215466    20.5533350446
H       8.0432145389     3.4244560240    20.8191443760
H       7.6571223136     5.1738780612    20.8354754738
H       6.3359933253     4.9675285031    22.8148914030
H       6.4497260984     3.1808581747    22.9509168945
H       5.8597578631     2.3152772777    19.7784701378
H       3.6583776659     2.5435355524    20.3168147116
H       4.4610770249     3.8064239805    23.8648388416
O       2.7103082747     2.5416543255    20.0177020144
H       2.4292112216     1.6097423068    20.0822731560
