80
Step 1 | NEB Image 1 | Cartesian Angstrom
Ni      1.2286497034     0.7093615225    11.2499999440
Ni      2.4572989609     2.8374461750    11.2499999440
Ni      3.6859482184     4.9655308275    11.2499999440
Ni      4.9145974759     7.0936154800    11.2499999440
Ni      3.6859497034     0.7093615225    11.2499999440
Ni      4.9145989609     2.8374461750    11.2499999440
Ni      6.1432482184     4.9655308275    11.2499999440
Ni      7.3718974759     7.0936154800    11.2499999440
Ni      6.1432497034     0.7093615225    11.2499999440
Ni      7.3718989609     2.8374461750    11.2499999440
Ni      8.6005482184     4.9655308275    11.2499999440
Ni      9.8291974759     7.0936154800    11.2499999440
Ni      8.6005497034     0.7093615225    11.2499999440
Ni      9.8291989609     2.8374461750    11.2499999440
Ni     11.0578482184     4.9655308275    11.2499999440
Ni     12.2864974759     7.0936154800    11.2499999440
Ni     14.7391156794     8.5053429999    13.3011712910
Ni     11.0531329642     2.1206495503    13.3008022026
Ni     12.2817169557     4.2489790177    13.3006008466
Ni     13.5101985270     6.3773433856    13.3009432678
Ni      7.3672569131     8.5047181091    13.3011774747
Ni      3.6813641840     2.1207833643    13.3007249066
Ni      4.9098915592     4.2493198517    13.3009123494
Ni      6.1382080000     6.3774560890    13.3011137055
Ni      9.8241033938     8.5046823573    13.3010831736
Ni      6.1383369699     2.1207818321    13.3007716707
Ni      7.3668809566     4.2490234521    13.3008056810
Ni      8.5953896076     6.3767159412    13.3009509974
Ni     12.2816608204     8.5051500252    13.3006066438
Ni      8.5958457422     2.1206092019    13.3010364095
Ni      9.8244550440     4.2487038138    13.3007276120
Ni     11.0528529688     6.3769410074    13.3006611374
Cu      2.4478274055     1.4024593708    15.3768195742
Cu      3.6763308468     3.5307009057    15.3768060474
Cu      4.9041378398     5.6597275336    15.3773448005
Cu      6.1330260451     7.7878910103    15.3784795057
Cu      4.9046987540     1.4026027186    15.3777977550
Cu      6.1325026510     3.5313493756    15.3777258697
Cu      7.3610720952     5.6598451741    15.3779276123
Cu      8.5906751295     7.7868954923    15.3785351588
Cu      7.3621786280     1.4037477983    15.3762151195
Cu      8.5904727564     3.5321453644    15.3780682910
Cu      9.8190628915     5.6596863338    15.3769316534
Cu     11.0489115080     7.7874997832    15.3777154348
Cu      9.8196453802     1.4041813317    15.3774700200
Cu     11.0479045662     3.5315147704    15.3771971651
Cu     12.2765483193     5.6595852924    15.3771299176
Cu     13.5054403579     7.7883030926    15.3772814178
Cu      1.2140125591     0.6836803076    17.5697065574
Cu      2.4431555374     2.8116125893    17.5665702724
Cu      3.6705110760     4.9384343512    17.5687388115
Cu      4.8988742539     7.0688538531    17.5715929661
Cu      3.6716454744     0.6829118137    17.5713989532
Cu      4.8981418913     2.8112417067    17.5722074693
Cu      6.1274353048     4.9410331682    17.5708265763
Cu      7.3554752500     7.0698228126    17.5713297733
Cu      6.1297077779     0.6833063606    17.5689100221
Cu      7.3567237656     2.8135682139    17.5698797004
Cu      8.5851063076     4.9421568820    17.5702368079
Cu      9.8152975701     7.0699596058    17.5700617325
Cu      8.5865082080     0.6855771971    17.5667967496
Cu      9.8144914881     2.8135456562    17.5749499312
Cu     11.0427692018     4.9416447797    17.5690866435
Cu     12.2728600100     7.0692517198    17.5719744219
O       7.2288202015     4.2734569284    22.3446828621
O       8.3044696405     5.3171068409    20.0014702420
O       8.8891638945     4.8479579810    24.7349733808
C       8.5251333110     4.9000290628    22.3715153937
C       9.1804211035     4.7744357207    20.9993344800
C       9.4189460410     4.3898719266    23.4895992517
H       8.3072385962     5.9614198807    22.5605187870
H       9.4153356173     3.7172718747    20.7683620669
H      10.1139922737     5.3503076003    20.9408546493
H      10.4461642949     4.7683945991    23.3275539960
H       9.4595638267     3.2836247445    23.4537018323
H       7.3561498138     3.3073831923    22.3295378714
H       7.4071380143     4.9636379387    20.1831718691
H       9.4432595602     4.5017937719    25.4528614775
O       2.4447775074     1.3898406800    19.0162048647
H       2.5328987835     1.2730973609    19.9764139723
80
Step 2 | NEB Image 2 | Cartesian Angstrom
Ni      1.2286121620     0.7093350799    11.2499256443
Ni      2.4572435158     2.8374306761    11.2498488738
Ni      3.6858894955     4.9655526683    11.2497881032
Ni      4.9145561865     7.0936780948    11.2497888290
Ni      3.6859151321     0.7093122622    11.2498646107
Ni      4.9145637250     2.8374147694    11.2497614856
Ni      6.1432304501     4.9655517341    11.2497092240
Ni      7.3719043448     7.0936824335    11.2497523496
Ni      6.1432398700     0.7092938712    11.2498157501
Ni      7.3719117722     2.8374061147    11.2497251390
Ni      8.6005881634     4.9655472889    11.2497156190
Ni      9.8292472537     7.0936691688    11.2497916118
Ni      8.6005764855     0.7092925084    11.2498116304
Ni      9.8292561872     2.8374113932    11.2497669993
Ni     11.0579190990     4.9655420015    11.2497963753
Ni     12.2865578177     7.0936493188    11.2498672735
Ni     14.7391894402     8.5053857276    13.3010805722
Ni     11.0533100233     2.1205382004    13.3003932050
Ni     12.2819061954     4.2489707873    13.3002610697
Ni     13.5103319319     6.3773871291    13.3007477986
Ni      7.3672658144     8.5049468495    13.3007327485
Ni      3.6812513523     2.1206757390    13.3002577539
Ni      4.9097647494     4.2493383035    13.3001686780
Ni      6.1381450080     6.3776532721    13.3003940973
Ni      9.8242021065     8.5048572244    13.3007254948
Ni      6.1383118954     2.1206064254    13.3001233381
Ni      7.3669313335     4.2490124930    13.2999342029
Ni      8.5955000743     6.3768849149    13.3002621492
Ni     12.2817695508     8.5052458473    13.3004048925
Ni      8.5959612577     2.1204349447    13.3004124952
Ni      9.8246516228     4.2486869210    13.3000691792
Ni     11.0530315919     6.3770392289    13.3002330924
Cu      2.4475314829     1.4020935530    15.3758294160
Cu      3.6758215901     3.5307979146    15.3746184873
Cu      4.9033611739     5.6604976812    15.3747769187
Cu      6.1327825365     7.7887729609    15.3770269280
Cu      4.9045494818     1.4018855173    15.3763063963
Cu      6.1323662736     3.5308926956    15.3743960874
Cu      7.3612339384     5.6606012394    15.3746471711
Cu      8.5909171091     7.7876667178    15.3771314161
Cu      7.3623540260     1.4028475184    15.3744708947
Cu      8.5911027737     3.5316554237    15.3752469577
Cu      9.8198427700     5.6600944288    15.3748342673
Cu     11.0492956966     7.7878844031    15.3769605554
Cu      9.8201174476     1.4035773885    15.3762398762
Cu     11.0486144012     3.5313090144    15.3758977611
Cu     12.2770522986     5.6597141674    15.3764086017
Cu     13.5056698133     7.7884364679    15.3770124808
Cu      1.2129842480     0.6827515630    17.5687211113
Cu      2.4402044239     2.8223015600    17.5454842337
Cu      3.6645214838     4.9419853943    17.5603128586
Cu      4.8962370533     7.0732714658    17.5667238932
Cu      3.6725687886     0.6801248147    17.5682988548
Cu      4.8946931816     2.8050517751    17.5548562431
Cu      6.1238306950     4.9492616841    17.5351917121
Cu      7.3550300516     7.0761515145    17.5629129001
Cu      6.1296997267     0.6799467620    17.5656657405
Cu      7.3606622199     2.8061118360    17.5530399697
Cu      8.5923278943     4.9437084702    17.5430073337
Cu      9.8173450097     7.0729852347    17.5651328978
Cu      8.5877034487     0.6825330680    17.5634292629
Cu      9.8182840606     2.8103949498    17.5677133184
Cu     11.0461427359     4.9418582801    17.5645179162
Cu     12.2738842929     7.0698548527    17.5708900876
O       6.5170815819     3.7304731044    21.8711450549
O       7.8445287069     5.0989107267    19.8909266758
O       7.4546709020     4.3768157620    24.5499534333
C       7.6471339615     4.5556418360    22.2217277567
C       8.5937976025     4.6479798284    21.0234866858
C       8.3569082791     4.1160153639    23.4910838769
H       7.2090545197     5.5606564248    22.3882080956
H       9.0512141068     3.6577390024    20.8081125486
H       9.3955837319     5.3705669060    21.1815525074
H       9.2874979567     4.6954298123    23.5841246841
H       8.6167048873     3.0528230264    23.4118398014
H       6.8165198573     2.8213705268    21.7940657755
H       6.9940896069     4.6051296817    19.9042125762
H       7.9607066575     4.1028610821    25.4508107436
O       2.4495454057     1.4156101198    19.0002962677
H       2.5233766548     1.3959308943    19.9580589720
80
Step 3 | NEB Image 3 | Cartesian Angstrom
Ni      1.2286001710     0.7093245983    11.2498980328
Ni      2.4572273540     2.8374250127    11.2497870338
Ni      3.6858802593     4.9655654674    11.2497062764
Ni      4.9145568131     7.0937037124    11.2497207743
Ni      3.6859077154     0.7092941900    11.2498117955
Ni      4.9145646154     2.8374079032    11.2496723279
Ni      6.1432428388     4.9655657750    11.2496182172
Ni      7.3719204984     7.0937061731    11.2496873300
Ni      6.1432476109     0.7092737986    11.2497510038
Ni      7.3719322896     2.8374005616    11.2496414635
Ni      8.6006143251     4.9655580184    11.2496432394
Ni      9.8292702960     7.0936859860    11.2497461584
Ni      8.6005959820     0.7092764178    11.2497569368
Ni      9.8292842467     2.8374076337    11.2497090468
Ni     11.0579464240     4.9655486888    11.2497533298
Ni     12.2865774481     7.0936586662    11.2498434804
Ni     14.7392063084     8.5053936412    13.3010710104
Ni     11.0533795566     2.1205239515    13.3003039721
Ni     12.2819656417     4.2489779794    13.3002038724
Ni     13.5103664827     6.3773986235    13.3007230960
Ni      7.3672984365     8.5050156771    13.3006254467
Ni      3.6812135294     2.1206246712    13.3000419592
Ni      4.9097781115     4.2493745520    13.2998687566
Ni      6.1381816267     6.3777347510    13.3001852558
Ni      9.8242464062     8.5049022237    13.3006574426
Ni      6.1383562119     2.1205623395    13.2998724655
Ni      7.3670059463     4.2490401851    13.2996863777
Ni      8.5955674369     6.3769443305    13.3001014661
Ni     12.2818018453     8.5052662642    13.3003767543
Ni      8.5960393630     2.1204055236    13.3002364540
Ni      9.8247402222     4.2486996666    13.2999183233
Ni     11.0530959151     6.3770695347    13.3001559186
Cu      2.4473423051     1.4018697426    15.3756132204
Cu      3.6755059590     3.5308377430    15.3732385862
Cu      4.9034748369     5.6609335801    15.3738331074
Cu      6.1328571807     7.7890513878    15.3766568752
Cu      4.9045264871     1.4014205163    15.3753909057
Cu      6.1327801457     3.5310334587    15.3731450667
Cu      7.3614347351     5.6608991732    15.3738919195
Cu      8.5910758413     7.7878797162    15.3768546841
Cu      7.3626180415     1.4026342815    15.3738481088
Cu      8.5914552967     3.5316197601    15.3745201582
Cu      9.8201962531     5.6602660496    15.3743758272
Cu     11.0494197151     7.7879648550    15.3768737738
Cu      9.8203542924     1.4034744625    15.3759305682
Cu     11.0488715618     3.5313119489    15.3756789938
Cu     12.2771838669     5.6597520895    15.3763460064
Cu     13.5057169752     7.7884565178    15.3769994075
Cu      1.2137906880     0.6833925661    17.5697878162
Cu      2.4374774482     2.8188950589    17.5398481672
Cu      3.6601143238     4.9469409271    17.5506463508
Cu      4.8965606970     7.0750967249    17.5651228053
Cu      3.6707372632     0.6799211580    17.5688417616
Cu      4.8937307422     2.7985614887    17.5327092823
Cu      6.1301109639     4.9534652286    17.5344713082
Cu      7.3556297743     7.0777500992    17.5613287691
Cu      6.1303943681     0.6778644071    17.5632590191
Cu      7.3636571498     2.8071289652    17.5495945019
Cu      8.5980603839     4.9463086103    17.5327790669
Cu      9.8181996990     7.0735220065    17.5648136377
Cu      8.5887415507     0.6816518041    17.5620598503
Cu      9.8200874598     2.8100322432    17.5663496838
Cu     11.0469798397     4.9420842363    17.5646032894
Cu     12.2740329816     7.0698883788    17.5709670572
O       5.8853559621     3.4178031551    21.4852576927
O       7.4042163957     4.2813876340    19.6134803203
O       6.3546155346     4.2549616907    24.2489666672
C       6.8891869610     4.3569712954    21.9327460470
C       8.0320521615     4.3605295437    20.8960993645
C       7.4302769333     4.0214267819    23.3157533364
H       6.3868745391     5.3025983914    21.9341843916
H       8.7399967195     3.5489822885    21.0220294882
H       8.5934880121     5.3330749685    20.9273664776
H       8.2840854954     4.6894674929    23.5168292401
H       7.7757314485     2.9919987691    23.3402550682
H       6.2125290090     2.4995632709    21.5727391979
H       6.5337608909     3.8201554066    19.7921731975
H       6.6932237666     4.0330141380    25.1499830331
O       3.2338934305     1.8687439304    19.1291257834
H       2.5816248889     1.5252023480    19.7429386267
80
Step 4 | NEB Image 4 | Cartesian Angstrom
Ni      1.2286059871     0.7093291743    11.2499076973
Ni      2.4572360931     2.8374284287    11.2498097397
Ni      3.6858884934     4.9655624877    11.2497384698
Ni      4.9145615953     7.0936947111    11.2497503472
Ni      3.6859129246     0.7093020898    11.2498299034
Ni      4.9145690410     2.8374132713    11.2497060925
Ni      6.1432439348     4.9655631171    11.2496574332
Ni      7.3719187552     7.0936976612    11.2497186587
Ni      6.1432487632     0.7092833475    11.2497741456
Ni      7.3719299461     2.8374062418    11.2496759501
Ni      8.6006088142     4.9655563591    11.2496775810
Ni      9.8292640541     7.0936797905    11.2497707456
Ni      8.6005928143     0.7092850168    11.2497787772
Ni      9.8292774898     2.8374120768    11.2497359727
Ni     11.0579381918     4.9655476939    11.2497766970
Ni     12.2865704943     7.0936549747    11.2498586168
Ni     14.7391981074     8.5053890650    13.3010809636
Ni     11.0533605479     2.1205371113    13.3003500246
Ni     12.2819445992     4.2489793792    13.3002422846
Ni     13.5103515320     6.3773939792    13.3007449818
Ni      7.3672958414     8.5049868026    13.3006806028
Ni      3.6812334562     2.1206469486    13.3001134274
Ni      4.9097932728     4.2493724754    13.2999852147
Ni      6.1381851312     6.3777067214    13.3002833928
Ni      9.8242342973     8.5048817883    13.3006996717
Ni      6.1383570461     2.1205898935    13.2999608484
Ni      7.3669951599     4.2490424200    13.2997971231
Ni      8.5955528012     6.3769244113    13.3001846896
Ni     12.2817892540     8.5052555640    13.3003997258
Ni      8.5960256510     2.1204274615    13.3003084509
Ni      9.8247176115     4.2487030472    13.2999944341
Ni     11.0530750991     6.3770587570    13.3002054478
Cu      2.4474008357     1.4019493471    15.3757143989
Cu      3.6756303958     3.5308470816    15.3736649331
Cu      4.9035619029     5.6607897727    15.3742674823
Cu      6.1328778994     7.7889308339    15.3768452133
Cu      4.9045665204     1.4015731533    15.3756245663
Cu      6.1327501994     3.5311008154    15.3736597402
Cu      7.3613983707     5.6608036366    15.3743010525
Cu      8.5910463125     7.7877874536    15.3770242693
Cu      7.3625946128     1.4027494340    15.3740464552
Cu      8.5913907324     3.5316883206    15.3748382622
Cu      9.8201036827     5.6602208061    15.3746300366
Cu     11.0493734102     7.7879204635    15.3769630692
Cu      9.8203094777     1.4035438144    15.3760688755
Cu     11.0487932977     3.5313377090    15.3758296144
Cu     12.2771257477     5.6597381098    15.3764283535
Cu     13.5056909102     7.7884419873    15.3770290536
Cu      1.2136419749     0.6833157388    17.5695255879
Cu      2.4379851741     2.8176286677    17.5436184645
Cu      3.6623158417     4.9461045617    17.5532362284
Cu      4.8968163775     7.0742878979    17.5658637416
Cu      3.6709457693     0.6800462590    17.5686769551
Cu      4.8960000216     2.8015537149    17.5375775679
Cu      6.1283095052     4.9513665510    17.5391174571
Cu      7.3557311307     7.0770135507    17.5623303550
Cu      6.1304739465     0.6783397248    17.5635314699
Cu      7.3629091142     2.8077972441    17.5510047413
Cu      8.5975054542     4.9464922943    17.5367214621
Cu      9.8179237495     7.0731427923    17.5654468763
Cu      8.5886962814     0.6819714443    17.5624411280
Cu      9.8197135356     2.8104154114    17.5672610134
Cu     11.0465553275     4.9420551964    17.5651348174
Cu     12.2739113778     7.0698229052    17.5710825245
O       6.0425666289     2.9158325167    21.0440189461
O       7.4490783788     4.2520770661    19.0451338857
O       6.1565537568     4.2628588641    23.7120312858
C       6.7543550881     4.1432220612    21.3771484250
C       7.9082811298     4.3520832980    20.3988494335
C       7.2672659903     4.0767370054    22.8043575344
H       6.0468997810     4.9805732776    21.2901270077
H       8.6953938763     3.5932631759    20.5626310409
H       8.3564675768     5.3454256295    20.5650592116
H       8.0257619790     4.8640762010    22.9600528697
H       7.7414159648     3.0948961792    22.9671152140
H       6.4233289776     2.5579283137    20.2497254830
H       4.4024227656     2.9353452144    20.4220845481
H       6.4441863652     4.0985096325    24.5836909791
O       3.5111194767     2.8348511926    20.0142254390
H       3.2843852382     1.8436140487    20.1088238796
80
Step 5 | NEB Image 5 | Cartesian Angstrom
Ni      1.2286497034     0.7093615225    11.2499999440
Ni      2.4572989609     2.8374461750    11.2499999440
Ni      3.6859482184     4.9655308275    11.2499999440
Ni      4.9145974759     7.0936154800    11.2499999440
Ni      3.6859497034     0.7093615225    11.2499999440
Ni      4.9145989609     2.8374461750    11.2499999440
Ni      6.1432482184     4.9655308275    11.2499999440
Ni      7.3718974759     7.0936154800    11.2499999440
Ni      6.1432497034     0.7093615225    11.2499999440
Ni      7.3718989609     2.8374461750    11.2499999440
Ni      8.6005482184     4.9655308275    11.2499999440
Ni      9.8291974759     7.0936154800    11.2499999440
Ni      8.6005497034     0.7093615225    11.2499999440
Ni      9.8291989609     2.8374461750    11.2499999440
Ni     11.0578482184     4.9655308275    11.2499999440
Ni     12.2864974759     7.0936154800    11.2499999440
Ni     14.7391156794     8.5053429999    13.3011712910
Ni     11.0531329642     2.1206495503    13.3008022026
Ni     12.2817169557     4.2489790177    13.3006008466
Ni     13.5101985270     6.3773433856    13.3009432678
Ni      7.3672569131     8.5047181091    13.3011774747
Ni      3.6813641840     2.1207833643    13.3007249066
Ni      4.9098915592     4.2493198517    13.3009123494
Ni      6.1382080000     6.3774560890    13.3011137055
Ni      9.8241033938     8.5046823573    13.3010831736
Ni      6.1383369699     2.1207818321    13.3007716707
Ni      7.3668809566     4.2490234521    13.3008056810
Ni      8.5953896076     6.3767159412    13.3009509974
Ni     12.2816608204     8.5051500252    13.3006066438
Ni      8.5958457422     2.1206092019    13.3010364095
Ni      9.8244550440     4.2487038138    13.3007276120
Ni     11.0528529688     6.3769410074    13.3006611374
Cu      2.4478274055     1.4024593708    15.3768195742
Cu      3.6763308468     3.5307009057    15.3768060474
Cu      4.9041378398     5.6597275336    15.3773448005
Cu      6.1330260451     7.7878910103    15.3784795057
Cu      4.9046987540     1.4026027186    15.3777977550
Cu      6.1325026510     3.5313493756    15.3777258697
Cu      7.3610720952     5.6598451741    15.3779276123
Cu      8.5906751295     7.7868954923    15.3785351588
Cu      7.3621786280     1.4037477983    15.3762151195
Cu      8.5904727564     3.5321453644    15.3780682910
Cu      9.8190628915     5.6596863338    15.3769316534
Cu     11.0489115080     7.7874997832    15.3777154348
Cu      9.8196453802     1.4041813317    15.3774700200
Cu     11.0479045662     3.5315147704    15.3771971651
Cu     12.2765483193     5.6595852924    15.3771299176
Cu     13.5054403579     7.7883030926    15.3772814178
Cu      1.2140125591     0.6836803076    17.5697065574
Cu      2.4431555374     2.8116125893    17.5665702724
Cu      3.6705110760     4.9384343512    17.5687388115
Cu      4.8988742539     7.0688538531    17.5715929661
Cu      3.6716454744     0.6829118137    17.5713989532
Cu      4.8981418913     2.8112417067    17.5722074693
Cu      6.1274353048     4.9410331682    17.5708265763
Cu      7.3554752500     7.0698228126    17.5713297733
Cu      6.1297077779     0.6833063606    17.5689100221
Cu      7.3567237656     2.8135682139    17.5698797004
Cu      8.5851063076     4.9421568820    17.5702368079
Cu      9.8152975701     7.0699596058    17.5700617325
Cu      8.5865082080     0.6855771971    17.5667967496
Cu      9.8144914881     2.8135456562    17.5749499312
Cu     11.0427692018     4.9416447797    17.5690866435
Cu     12.2728600100     7.0692517198    17.5719744219
O       5.4816243728     2.5651691502    20.6539118200
O       7.3508896973     4.2099530947    19.0383354809
O       4.4981563510     3.9587391709    22.9072956728
C       5.9290713561     3.8945947838    20.9960208007
C       7.3297021271     4.1881915565    20.4688911028
C       5.8721709119     4.0116672750    22.5089584937
H       5.2340507257     4.6323215466    20.5533350446
H       8.0432145389     3.4244560240    20.8191443760
H       7.6571223136     5.1738780612    20.8354754738
H       6.3359933253     4.9675285031    22.8148914030
H       6.4497260984     3.1808581747    22.9509168945
H       5.8597578631     2.3152772777    19.7784701378
H       3.6583776659     2.5435355524    20.3168147116
H       4.4610770249     3.8064239805    23.8648388416
O       2.7103082747     2.5416543255    20.0177020144
H       2.4292112216     1.6097423068    20.0822731560
