80
Step 1 | NEB Image 1 | Cartesian Angstrom
Ni      1.2286497034     0.7093615225    11.2499999440
Ni      2.4572989609     2.8374461750    11.2499999440
Ni      3.6859482184     4.9655308275    11.2499999440
Ni      4.9145974759     7.0936154800    11.2499999440
Ni      3.6859497034     0.7093615225    11.2499999440
Ni      4.9145989609     2.8374461750    11.2499999440
Ni      6.1432482184     4.9655308275    11.2499999440
Ni      7.3718974759     7.0936154800    11.2499999440
Ni      6.1432497034     0.7093615225    11.2499999440
Ni      7.3718989609     2.8374461750    11.2499999440
Ni      8.6005482184     4.9655308275    11.2499999440
Ni      9.8291974759     7.0936154800    11.2499999440
Ni      8.6005497034     0.7093615225    11.2499999440
Ni      9.8291989609     2.8374461750    11.2499999440
Ni     11.0578482184     4.9655308275    11.2499999440
Ni     12.2864974759     7.0936154800    11.2499999440
Ni     14.7391156794     8.5053429999    13.3011712910
Ni     11.0531329642     2.1206495503    13.3008022026
Ni     12.2817169557     4.2489790177    13.3006008466
Ni     13.5101985270     6.3773433856    13.3009432678
Ni      7.3672569131     8.5047181091    13.3011774747
Ni      3.6813641840     2.1207833643    13.3007249066
Ni      4.9098915592     4.2493198517    13.3009123494
Ni      6.1382080000     6.3774560890    13.3011137055
Ni      9.8241033938     8.5046823573    13.3010831736
Ni      6.1383369699     2.1207818321    13.3007716707
Ni      7.3668809566     4.2490234521    13.3008056810
Ni      8.5953896076     6.3767159412    13.3009509974
Ni     12.2816608204     8.5051500252    13.3006066438
Ni      8.5958457422     2.1206092019    13.3010364095
Ni      9.8244550440     4.2487038138    13.3007276120
Ni     11.0528529688     6.3769410074    13.3006611374
Cu      2.4478274055     1.4024593708    15.3768195742
Cu      3.6763308468     3.5307009057    15.3768060474
Cu      4.9041378398     5.6597275336    15.3773448005
Cu      6.1330260451     7.7878910103    15.3784795057
Cu      4.9046987540     1.4026027186    15.3777977550
Cu      6.1325026510     3.5313493756    15.3777258697
Cu      7.3610720952     5.6598451741    15.3779276123
Cu      8.5906751295     7.7868954923    15.3785351588
Cu      7.3621786280     1.4037477983    15.3762151195
Cu      8.5904727564     3.5321453644    15.3780682910
Cu      9.8190628915     5.6596863338    15.3769316534
Cu     11.0489115080     7.7874997832    15.3777154348
Cu      9.8196453802     1.4041813317    15.3774700200
Cu     11.0479045662     3.5315147704    15.3771971651
Cu     12.2765483193     5.6595852924    15.3771299176
Cu     13.5054403579     7.7883030926    15.3772814178
Cu      1.2140125591     0.6836803076    17.5697065574
Cu      2.4431555374     2.8116125893    17.5665702724
Cu      3.6705110760     4.9384343512    17.5687388115
Cu      4.8988742539     7.0688538531    17.5715929661
Cu      3.6716454744     0.6829118137    17.5713989532
Cu      4.8981418913     2.8112417067    17.5722074693
Cu      6.1274353048     4.9410331682    17.5708265763
Cu      7.3554752500     7.0698228126    17.5713297733
Cu      6.1297077779     0.6833063606    17.5689100221
Cu      7.3567237656     2.8135682139    17.5698797004
Cu      8.5851063076     4.9421568820    17.5702368079
Cu      9.8152975701     7.0699596058    17.5700617325
Cu      8.5865082080     0.6855771971    17.5667967496
Cu      9.8144914881     2.8135456562    17.5749499312
Cu     11.0427692018     4.9416447797    17.5690866435
Cu     12.2728600100     7.0692517198    17.5719744219
O       7.2288202015     4.2734569284    22.3446828621
O       8.3044696405     5.3171068409    20.0014702420
O       8.8891638945     4.8479579810    24.7349733808
C       8.5251333110     4.9000290628    22.3715153937
C       9.1804211035     4.7744357207    20.9993344800
C       9.4189460410     4.3898719266    23.4895992517
H       8.3072385962     5.9614198807    22.5605187870
H       9.4153356173     3.7172718747    20.7683620669
H      10.1139922737     5.3503076003    20.9408546493
H      10.4461642949     4.7683945991    23.3275539960
H       9.4595638267     3.2836247445    23.4537018323
H       7.3561498138     3.3073831923    22.3295378714
H       7.4071380143     4.9636379387    20.1831718691
H       9.4432595602     4.5017937719    25.4528614775
O       2.4447775074     1.3898406800    19.0162048647
H       2.5328987835     1.2730973609    19.9764139723
80
Step 2 | NEB Image 2 | Cartesian Angstrom
Ni      1.2286130020     0.7093358135    11.2499275738
Ni      2.4572446490     2.8374310736    11.2498531965
Ni      3.6858901471     4.9655517757    11.2497938256
Ni      4.9145561489     7.0936763046    11.2497935917
Ni      3.6859156537     0.7093135271    11.2498683010
Ni      4.9145636686     2.8374152529    11.2497677190
Ni      6.1432295911     4.9655507557    11.2497155926
Ni      7.3719032208     7.0936807743    11.2497569038
Ni      6.1432393339     0.7092952770    11.2498202751
Ni      7.3719103444     2.8374065073    11.2497309926
Ni      8.6005863397     4.9655465417    11.2497206880
Ni      9.8292456458     7.0936679932    11.2497947988
Ni      8.6005751276     0.7092936364    11.2498154557
Ni      9.8292542302     2.8374116597    11.2497710572
Ni     11.0579171912     4.9655415358    11.2497993936
Ni     12.2865564458     7.0936486651    11.2498689446
Ni     14.7391882586     8.5053851724    13.3010812485
Ni     11.0533051709     2.1205392062    13.3003994589
Ni     12.2819020411     4.2489702896    13.3002650894
Ni     13.5103295140     6.3773863251    13.3007495412
Ni      7.3672635457     8.5049420339    13.3007402685
Ni      3.6812540036     2.1206793130    13.3002728285
Ni      4.9097638402     4.2493357836    13.3001896506
Ni      6.1381424693     6.3776475790    13.3004087220
Ni      9.8241990150     8.5048540741    13.3007302731
Ni      6.1383088188     2.1206095211    13.3001408696
Ni      7.3669261386     4.2490105726    13.2999515504
Ni      8.5954953781     6.3768807640    13.3002734110
Ni     12.2817672925     8.5052444161    13.3004068750
Ni      8.5959558166     2.1204370150    13.3004248097
Ni      9.8246454419     4.2486860401    13.3000797497
Ni     11.0530270991     6.3770371109    13.3002385131
Cu      2.4475446930     1.4021091943    15.3758445552
Cu      3.6758436635     3.5307951602    15.3747148440
Cu      4.9033533881     5.6604672317    15.3748430004
Cu      6.1327773783     7.7887534760    15.3770528598
Cu      4.9045511282     1.4019179989    15.3763702630
Cu      6.1323374945     3.5308830033    15.3744836030
Cu      7.3612199488     5.6605804308    15.3747001267
Cu      8.5909060492     7.7876518117    15.3771508439
Cu      7.3623356621     1.4028624693    15.3745143904
Cu      8.5910782123     3.5316579852    15.3752978248
Cu      9.8198181073     5.6600824543    15.3748664188
Cu     11.0492870267     7.7878787611    15.3769666925
Cu      9.8201009441     1.4035846221    15.3762615276
Cu     11.0485964455     3.5313088425    15.3759131401
Cu     12.2770430898     5.6597115166    15.3764130505
Cu     13.5056665058     7.7884350575    15.3770134254
Cu      1.2129280596     0.6827069525    17.5686467080
Cu      2.4403944311     2.8225365639    17.5458803022
Cu      3.6648302688     4.9416402150    17.5609873678
Cu      4.8962148935     7.0731437075    17.5668359997
Cu      3.6726962397     0.6801391127    17.5682609479
Cu      4.8947628262     2.8055062041    17.5564002954
Cu      6.1233923237     4.9489671666    17.5352474877
Cu      7.3549885283     7.0760395873    17.5630241513
Cu      6.1296515846     0.6800919624    17.5658332161
Cu      7.3604533070     2.8060420263    17.5532809898
Cu      8.5919291060     4.9435281264    17.5437225279
Cu      9.8172853132     7.0729474887    17.5651558524
Cu      8.5876313000     0.6825946641    17.5635248356
Cu      9.8181583582     2.8104206124    17.5678091452
Cu     11.0460840769     4.9418425523    17.5645126446
Cu     12.2738738166     7.0698524435    17.5708848851
O       6.5113472258     3.7417232444    21.7929337868
O       7.7595063379     4.9704828123    19.7390528388
O       7.5062685211     4.5440222653    24.4597717409
C       7.6464134447     4.5835266683    22.0798977277
C       8.5645016732     4.6019649847    20.8662435069
C       8.3678228378     4.2212106707    23.3581863164
H       7.2075025957     5.5883512788    22.1948926673
H       9.0325259508     3.6137731969    20.6908793215
H       9.3600280819     5.3536978243    20.9401749473
H       9.3088165269     4.7981904667    23.4056639203
H       8.6260557582     3.1474042951    23.3495593368
H       6.8235430108     2.8214561196    21.7021758923
H       6.9102373374     4.4715323829    19.8357603117
H       7.9322273967     4.2620864635    25.2794224312
O       2.4464506761     1.4149404967    18.9961559986
H       2.5055507108     1.3673046277    19.9698952644
80
Step 3 | NEB Image 3 | Cartesian Angstrom
Ni      1.2286019744     0.7093262455    11.2499027052
Ni      2.4572296592     2.8374257711    11.2497973504
Ni      3.6858811249     4.9655630923    11.2497196277
Ni      4.9145560097     7.0936993822    11.2497314884
Ni      3.6859086061     0.7092970287    11.2498207856
Ni      4.9145638042     2.8374086517    11.2496870585
Ni      6.1432399850     4.9655630843    11.2496325908
Ni      7.3719172196     7.0937021841    11.2496971376
Ni      6.1432457625     0.7092768435    11.2497618933
Ni      7.3719281431     2.8374009803    11.2496548982
Ni      8.6006093896     4.9655559104    11.2496542315
Ni      9.8292661426     7.0936831833    11.2497526400
Ni      8.6005921729     0.7092787270    11.2497658160
Ni      9.8292790712     2.8374078339    11.2497179275
Ni     11.0579416143     4.9655473695    11.2497594566
Ni     12.2865741378     7.0936571430    11.2498465573
Ni     14.7392037742     8.5053925539    13.3010717073
Ni     11.0533670472     2.1205252232    13.3003170058
Ni     12.2819556150     4.2489762161    13.3002109869
Ni     13.5103610344     6.3773967651    13.3007254301
Ni      7.3672916859     8.5050046971    13.3006411505
Ni      3.6812189972     2.1206326990    13.3000790425
Ni      4.9097730843     4.2493669385    13.2999179085
Ni      6.1381731544     6.3777208949    13.3002171047
Ni      9.8242384362     8.5048952621    13.3006663915
Ni      6.1383464336     2.1205681093    13.2999148382
Ni      7.3669911830     4.2490338360    13.2997249680
Ni      8.5955547910     6.3769341539    13.3001248948
Ni     12.2817965600     8.5052633047    13.3003796861
Ni      8.5960242461     2.1204088792    13.3002647964
Ni      9.8247240581     4.2486964164    13.2999406012
Ni     11.0530847936     6.3770644301    13.3001658383
Cu      2.4473753892     1.4019074391    15.3756462486
Cu      3.6755574235     3.5308277574    15.3734799903
Cu      4.9034379161     5.6608585953    15.3739783146
Cu      6.1328380178     7.7890074933    15.3767112950
Cu      4.9045259186     1.4015006149    15.3755579242
Cu      6.1326940875     3.5309933775    15.3733460565
Cu      7.3613960272     5.6608475376    15.3739995359
Cu      8.5910453513     7.7878461419    15.3768913726
Cu      7.3625637467     1.4026647162    15.3739562348
Cu      8.5913874409     3.5316179761    15.3746342636
Cu      9.8201320928     5.6602349406    15.3744403330
Cu     11.0493991326     7.7879535041    15.3768802436
Cu      9.8203089033     1.4034872329    15.3759787201
Cu     11.0488264073     3.5313077174    15.3757056890
Cu     12.2771632856     5.6597457708    15.3763481719
Cu     13.5057103271     7.7884541724    15.3769981242
Cu      1.2136356008     0.6832635248    17.5695918128
Cu      2.4380011987     2.8198143282    17.5405512631
Cu      3.6607682261     4.9459771225    17.5523927621
Cu      4.8964544855     7.0748115520    17.5653685698
Cu      3.6711075055     0.6799481168    17.5687463746
Cu      4.8936241684     2.7995593112    17.5368590380
Cu      6.1289929003     4.9528413800    17.5339805562
Cu      7.3554848888     7.0775042687    17.5615344940
Cu      6.1302318246     0.6782521342    17.5637457515
Cu      7.3631084857     2.8068140290    17.5501490620
Cu      8.5968879441     4.9457161090    17.5344593719
Cu      9.8180518330     7.0734578521    17.5647949507
Cu      8.5885215326     0.6817993722    17.5623052518
Cu      9.8197464140     2.8100578961    17.5665199199
Cu     11.0468565220     4.9420390217    17.5645105647
Cu     12.2740175193     7.0698901984    17.5709341764
O       6.1000762776     3.5288784102    21.0040295523
O       7.5471825736     4.4902143856    19.2918176921
O       6.5340551830     4.3438253158    23.8792680265
C       7.1685385233     4.4787166440    21.5781925846
C       8.2519701923     4.4917037182    20.5136140699
C       7.5961108965     4.1108081263    22.9666442895
H       6.6057171760     5.4223261994    21.5777358364
H       8.9046289415     3.5953846696    20.6005906730
H       8.8959821617     5.3792318371    20.6429965932
H       8.4688893681     4.7631172715    23.1765345695
H       7.9619518411     3.0635854589    23.0053480583
H       6.4645439932     2.6019263623    20.9353607631
H       6.1842792150     3.8427087563    19.9830728082
H       6.8608763312     4.1949821424    24.7872239934
O       3.0236990997     1.7471087305    19.1738959032
H       2.3065172784     1.3309052779    19.6937211902
80
Step 4 | NEB Image 4 | Cartesian Angstrom
Ni      1.2286104399     0.7093325291    11.2499140053
Ni      2.4572430472     2.8374312399    11.2498249902
Ni      3.6858958964     4.9655611514    11.2497609234
Ni      4.9145667452     7.0936888219    11.2497719827
Ni      3.6859173846     0.7093078844    11.2498415690
Ni      4.9145738511     2.8374179776    11.2497291681
Ni      6.1432468535     4.9655622975    11.2496860156
Ni      7.3719192036     7.0936920232    11.2497425833
Ni      6.1432510817     0.7092906034    11.2497894448
Ni      7.3719303787     2.8374114649    11.2497005682
Ni      8.6006066961     4.9655561262    11.2497036492
Ni      9.8292607196     7.0936756212    11.2497903134
Ni      8.6005922299     0.7092918327    11.2497941263
Ni      9.8292743226     2.8374162452    11.2497562411
Ni     11.0579333588     4.9655475904    11.2497953155
Ni     12.2865659219     7.0936523950    11.2498712579
Ni     14.7391918230     8.5053853455    13.3010901395
Ni     11.0533503025     2.1205490156    13.3003860938
Ni     12.2819307694     4.2489818818    13.3002748162
Ni     13.5103406148     6.3773906959    13.3007646367
Ni      7.3672977263     8.5049660159    13.3007237413
Ni      3.6812491751     2.1206632749    13.3001584265
Ni      4.9098112150     4.2493754238    13.3000658836
Ni      6.1381940385     6.3776886249    13.3003576028
Ni      9.8242277715     8.5048665499    13.3007347018
Ni      6.1383642203     2.1206127952    13.3000187686
Ni      7.3669943371     4.2490487166    13.2998791422
Ni      8.5955468755     6.3769117658    13.3002499534
Ni     12.2817805134     8.5052471386    13.3004200418
Ni      8.5960222280     2.1204465016    13.3003596534
Ni      9.8247062609     4.2487084344    13.3000535658
Ni     11.0530622013     6.3770516533    13.3002469086
Cu      2.4474359218     1.4020018190    15.3757907836
Cu      3.6757172784     3.5308626189    15.3739202366
Cu      4.9036701813     5.6606994643    15.3745931922
Cu      6.1329104230     7.7888427788    15.3769919966
Cu      4.9046056233     1.4016686746    15.3757418804
Cu      6.1327772634     3.5311920828    15.3740268166
Cu      7.3613883927     5.6607448266    15.3746268180
Cu      8.5910375968     7.7877200507    15.3771644550
Cu      7.3626072996     1.4028410275    15.3741679507
Cu      8.5913724504     3.5317558152    15.3750717308
Cu      9.8200558982     5.6601972893    15.3748339836
Cu     11.0493420122     7.7878849055    15.3770452506
Cu      9.8202956743     1.4036025975    15.3761713349
Cu     11.0487469789     3.5313653876    15.3759579586
Cu     12.2770829184     5.6597286988    15.3765066150
Cu     13.5056700210     7.7884294560    15.3770585722
Cu      1.2135990793     0.6833254335    17.5693995078
Cu      2.4381353614     2.8158048342    17.5468084422
Cu      3.6640200415     4.9459229556    17.5546047775
Cu      4.8971329111     7.0736910412    17.5664205744
Cu      3.6709064160     0.6801497411    17.5685796147
Cu      4.8982649692     2.8037989878    17.5395855508
Cu      6.1272946079     4.9497422807    17.5439322103
Cu      7.3559235370     7.0764610061    17.5631654410
Cu      6.1306567804     0.6785471292    17.5634781306
Cu      7.3625426473     2.8086488831    17.5520080580
Cu      8.5977319941     4.9470558207    17.5394416316
Cu      9.8177530492     7.0728176730    17.5660717094
Cu      8.5887957488     0.6821846098    17.5626502237
Cu      9.8195738337     2.8107694265    17.5680318842
Cu     11.0462249064     4.9420565417    17.5657094544
Cu     12.2738037932     7.0697583741    17.5712156509
O       5.9107818315     3.0295225027    20.9519717256
O       7.4940407981     4.2853157215    19.0635124525
O       5.8888180359     4.2614535049    23.6001087799
C       6.6684673680     4.2074082153    21.3368028806
C       7.8922346085     4.3418157626    20.4363754891
C       7.0624205098     4.0917441740    22.8018140343
H       6.0178286064     5.0874254320    21.2054609255
H       8.6001588400     3.5159018271    20.6361676570
H       8.4159640588     5.2889258308    20.6459467028
H       7.8175241288     4.8648684220    23.0396485616
H       7.5172187005     3.0983842073    22.9614297091
H       6.3919958984     2.6009123195    20.2144705245
H       4.4203681838     2.8727437967    20.2405366403
H       6.1235660884     4.0905911797    24.5305254626
O       3.5949767068     2.6638397315    19.6958279167
H       3.1733481511     1.8446666165    20.0305212148
80
Step 5 | NEB Image 5 | Cartesian Angstrom
Ni      1.2286497034     0.7093615225    11.2499999440
Ni      2.4572989609     2.8374461750    11.2499999440
Ni      3.6859482184     4.9655308275    11.2499999440
Ni      4.9145974759     7.0936154800    11.2499999440
Ni      3.6859497034     0.7093615225    11.2499999440
Ni      4.9145989609     2.8374461750    11.2499999440
Ni      6.1432482184     4.9655308275    11.2499999440
Ni      7.3718974759     7.0936154800    11.2499999440
Ni      6.1432497034     0.7093615225    11.2499999440
Ni      7.3718989609     2.8374461750    11.2499999440
Ni      8.6005482184     4.9655308275    11.2499999440
Ni      9.8291974759     7.0936154800    11.2499999440
Ni      8.6005497034     0.7093615225    11.2499999440
Ni      9.8291989609     2.8374461750    11.2499999440
Ni     11.0578482184     4.9655308275    11.2499999440
Ni     12.2864974759     7.0936154800    11.2499999440
Ni     14.7391156794     8.5053429999    13.3011712910
Ni     11.0531329642     2.1206495503    13.3008022026
Ni     12.2817169557     4.2489790177    13.3006008466
Ni     13.5101985270     6.3773433856    13.3009432678
Ni      7.3672569131     8.5047181091    13.3011774747
Ni      3.6813641840     2.1207833643    13.3007249066
Ni      4.9098915592     4.2493198517    13.3009123494
Ni      6.1382080000     6.3774560890    13.3011137055
Ni      9.8241033938     8.5046823573    13.3010831736
Ni      6.1383369699     2.1207818321    13.3007716707
Ni      7.3668809566     4.2490234521    13.3008056810
Ni      8.5953896076     6.3767159412    13.3009509974
Ni     12.2816608204     8.5051500252    13.3006066438
Ni      8.5958457422     2.1206092019    13.3010364095
Ni      9.8244550440     4.2487038138    13.3007276120
Ni     11.0528529688     6.3769410074    13.3006611374
Cu      2.4478274055     1.4024593708    15.3768195742
Cu      3.6763308468     3.5307009057    15.3768060474
Cu      4.9041378398     5.6597275336    15.3773448005
Cu      6.1330260451     7.7878910103    15.3784795057
Cu      4.9046987540     1.4026027186    15.3777977550
Cu      6.1325026510     3.5313493756    15.3777258697
Cu      7.3610720952     5.6598451741    15.3779276123
Cu      8.5906751295     7.7868954923    15.3785351588
Cu      7.3621786280     1.4037477983    15.3762151195
Cu      8.5904727564     3.5321453644    15.3780682910
Cu      9.8190628915     5.6596863338    15.3769316534
Cu     11.0489115080     7.7874997832    15.3777154348
Cu      9.8196453802     1.4041813317    15.3774700200
Cu     11.0479045662     3.5315147704    15.3771971651
Cu     12.2765483193     5.6595852924    15.3771299176
Cu     13.5054403579     7.7883030926    15.3772814178
Cu      1.2140125591     0.6836803076    17.5697065574
Cu      2.4431555374     2.8116125893    17.5665702724
Cu      3.6705110760     4.9384343512    17.5687388115
Cu      4.8988742539     7.0688538531    17.5715929661
Cu      3.6716454744     0.6829118137    17.5713989532
Cu      4.8981418913     2.8112417067    17.5722074693
Cu      6.1274353048     4.9410331682    17.5708265763
Cu      7.3554752500     7.0698228126    17.5713297733
Cu      6.1297077779     0.6833063606    17.5689100221
Cu      7.3567237656     2.8135682139    17.5698797004
Cu      8.5851063076     4.9421568820    17.5702368079
Cu      9.8152975701     7.0699596058    17.5700617325
Cu      8.5865082080     0.6855771971    17.5667967496
Cu      9.8144914881     2.8135456562    17.5749499312
Cu     11.0427692018     4.9416447797    17.5690866435
Cu     12.2728600100     7.0692517198    17.5719744219
O       5.4816243728     2.5651691502    20.6539118200
O       7.3508896973     4.2099530947    19.0383354809
O       4.4981563510     3.9587391709    22.9072956728
C       5.9290713561     3.8945947838    20.9960208007
C       7.3297021271     4.1881915565    20.4688911028
C       5.8721709119     4.0116672750    22.5089584937
H       5.2340507257     4.6323215466    20.5533350446
H       8.0432145389     3.4244560240    20.8191443760
H       7.6571223136     5.1738780612    20.8354754738
H       6.3359933253     4.9675285031    22.8148914030
H       6.4497260984     3.1808581747    22.9509168945
H       5.8597578631     2.3152772777    19.7784701378
H       3.6583776659     2.5435355524    20.3168147116
H       4.4610770249     3.8064239805    23.8648388416
O       2.7103082747     2.5416543255    20.0177020144
H       2.4292112216     1.6097423068    20.0822731560
