80
Step 1 | NEB Image 1 | Cartesian Angstrom
Ni      1.2286497034     0.7093615225    11.2499999440
Ni      2.4572989609     2.8374461750    11.2499999440
Ni      3.6859482184     4.9655308275    11.2499999440
Ni      4.9145974759     7.0936154800    11.2499999440
Ni      3.6859497034     0.7093615225    11.2499999440
Ni      4.9145989609     2.8374461750    11.2499999440
Ni      6.1432482184     4.9655308275    11.2499999440
Ni      7.3718974759     7.0936154800    11.2499999440
Ni      6.1432497034     0.7093615225    11.2499999440
Ni      7.3718989609     2.8374461750    11.2499999440
Ni      8.6005482184     4.9655308275    11.2499999440
Ni      9.8291974759     7.0936154800    11.2499999440
Ni      8.6005497034     0.7093615225    11.2499999440
Ni      9.8291989609     2.8374461750    11.2499999440
Ni     11.0578482184     4.9655308275    11.2499999440
Ni     12.2864974759     7.0936154800    11.2499999440
Ni     14.7391156794     8.5053429999    13.3011712910
Ni     11.0531329642     2.1206495503    13.3008022026
Ni     12.2817169557     4.2489790177    13.3006008466
Ni     13.5101985270     6.3773433856    13.3009432678
Ni      7.3672569131     8.5047181091    13.3011774747
Ni      3.6813641840     2.1207833643    13.3007249066
Ni      4.9098915592     4.2493198517    13.3009123494
Ni      6.1382080000     6.3774560890    13.3011137055
Ni      9.8241033938     8.5046823573    13.3010831736
Ni      6.1383369699     2.1207818321    13.3007716707
Ni      7.3668809566     4.2490234521    13.3008056810
Ni      8.5953896076     6.3767159412    13.3009509974
Ni     12.2816608204     8.5051500252    13.3006066438
Ni      8.5958457422     2.1206092019    13.3010364095
Ni      9.8244550440     4.2487038138    13.3007276120
Ni     11.0528529688     6.3769410074    13.3006611374
Cu      2.4478274055     1.4024593708    15.3768195742
Cu      3.6763308468     3.5307009057    15.3768060474
Cu      4.9041378398     5.6597275336    15.3773448005
Cu      6.1330260451     7.7878910103    15.3784795057
Cu      4.9046987540     1.4026027186    15.3777977550
Cu      6.1325026510     3.5313493756    15.3777258697
Cu      7.3610720952     5.6598451741    15.3779276123
Cu      8.5906751295     7.7868954923    15.3785351588
Cu      7.3621786280     1.4037477983    15.3762151195
Cu      8.5904727564     3.5321453644    15.3780682910
Cu      9.8190628915     5.6596863338    15.3769316534
Cu     11.0489115080     7.7874997832    15.3777154348
Cu      9.8196453802     1.4041813317    15.3774700200
Cu     11.0479045662     3.5315147704    15.3771971651
Cu     12.2765483193     5.6595852924    15.3771299176
Cu     13.5054403579     7.7883030926    15.3772814178
Cu      1.2140125591     0.6836803076    17.5697065574
Cu      2.4431555374     2.8116125893    17.5665702724
Cu      3.6705110760     4.9384343512    17.5687388115
Cu      4.8988742539     7.0688538531    17.5715929661
Cu      3.6716454744     0.6829118137    17.5713989532
Cu      4.8981418913     2.8112417067    17.5722074693
Cu      6.1274353048     4.9410331682    17.5708265763
Cu      7.3554752500     7.0698228126    17.5713297733
Cu      6.1297077779     0.6833063606    17.5689100221
Cu      7.3567237656     2.8135682139    17.5698797004
Cu      8.5851063076     4.9421568820    17.5702368079
Cu      9.8152975701     7.0699596058    17.5700617325
Cu      8.5865082080     0.6855771971    17.5667967496
Cu      9.8144914881     2.8135456562    17.5749499312
Cu     11.0427692018     4.9416447797    17.5690866435
Cu     12.2728600100     7.0692517198    17.5719744219
O       7.2288202015     4.2734569284    22.3446828621
O       8.3044696405     5.3171068409    20.0014702420
O       8.8891638945     4.8479579810    24.7349733808
C       8.5251333110     4.9000290628    22.3715153937
C       9.1804211035     4.7744357207    20.9993344800
C       9.4189460410     4.3898719266    23.4895992517
H       8.3072385962     5.9614198807    22.5605187870
H       9.4153356173     3.7172718747    20.7683620669
H      10.1139922737     5.3503076003    20.9408546493
H      10.4461642949     4.7683945991    23.3275539960
H       9.4595638267     3.2836247445    23.4537018323
H       7.3561498138     3.3073831923    22.3295378714
H       7.4071380143     4.9636379387    20.1831718691
H       9.4432595602     4.5017937719    25.4528614775
O       2.4447775074     1.3898406800    19.0162048647
H       2.5328987835     1.2730973609    19.9764139723
80
Step 2 | NEB Image 2 | Cartesian Angstrom
Ni      1.2286111968     0.7093342362    11.2499234218
Ni      2.4572422148     2.8374302202    11.2498438961
Ni      3.6858887519     4.9655536984    11.2497815166
Ni      4.9145562368     7.0936801568    11.2497833509
Ni      3.6859145351     0.7093108075    11.2498603595
Ni      4.9145637965     2.8374142166    11.2497543090
Ni      6.1432314471     4.9655528642    11.2497018984
Ni      7.3719056449     7.0936843444    11.2497471158
Ni      6.1432404930     0.7092922554    11.2498105385
Ni      7.3719134235     2.8374056675    11.2497184036
Ni      8.6005902690     4.9655481524    11.2497097927
Ni      9.8292491084     7.0936705224    11.2497879528
Ni      8.6005780547     0.7092912131    11.2498072279
Ni      9.8292584456     2.8374110905    11.2497623344
Ni     11.0579212984     4.9655425397    11.2497929102
Ni     12.2865593978     7.0936500712    11.2498653582
Ni     14.7391907980     8.5053863647    13.3010798023
Ni     11.0533156200     2.1205370532    13.3003860220
Ni     12.2819109804     4.2489713661    13.3002564652
Ni     13.5103347131     6.3773880543    13.3007458098
Ni      7.3672684399     8.5049523897    13.3007241110
Ni      3.6812483076     2.1206716283    13.3002403842
Ni      4.9097658243     4.2493412209    13.3001445363
Ni      6.1381479550     6.3776598305    13.3003772863
Ni      9.8242056722     8.5048608467    13.3007200165
Ni      6.1383154620     2.1206028764    13.3001031448
Ni      7.3669373388     4.2490147216    13.2999142541
Ni      8.5955054962     6.3768896974    13.3002492146
Ni     12.2817721503     8.5052474908    13.3004026271
Ni      8.5959675441     2.1204325762    13.3003983249
Ni      9.8246587541     4.2486879467    13.3000570357
Ni     11.0530367694     6.3770416683    13.3002268797
Cu      2.4475162558     1.4020755379    15.3758120131
Cu      3.6757961838     3.5308011197    15.3745074178
Cu      4.9033703187     5.6605327674    15.3747009458
Cu      6.1327885432     7.7887953729    15.3769971396
Cu      4.9045476298     1.4018480887    15.3762327093
Cu      6.1323995833     3.5309040220    15.3742953873
Cu      7.3612500999     5.6606252205    15.3745863744
Cu      8.5909298850     7.7876838631    15.3771091389
Cu      7.3623752749     1.4028303531    15.3744207659
Cu      8.5911311471     3.5316525512    15.3751884538
Cu      9.8198712216     5.6601082424    15.3747973633
Cu     11.0493056793     7.7878908794    15.3769535682
Cu      9.8201365105     1.4035691026    15.3762149783
Cu     11.0486351002     3.5313092497    15.3758801496
Cu     12.2770628893     5.6597172199    15.3764035612
Cu     13.5056736098     7.7884380820    15.3770114277
Cu      1.2130491558     0.6828031540    17.5688069691
Cu      2.4399849382     2.8220274442    17.5450305146
Cu      3.6641667198     4.9423842467    17.5595348057
Cu      4.8962630919     7.0734183907    17.5665950121
Cu      3.6724213792     0.6801084201    17.5683425537
Cu      4.8946156489     2.8045293335    17.5530736793
Cu      6.1243361950     4.9496000576    17.5351335802
Cu      7.3550783144     7.0762801940    17.5627853751
Cu      6.1297556293     0.6797791569    17.5654720369
Cu      7.3609032787     2.8061936732    17.5527626294
Cu      8.5927892675     4.9439177253    17.5421840254
Cu      9.8174138048     7.0730284470    17.5651071826
Cu      8.5877869974     0.6824621327    17.5633190391
Cu      9.8184292118     2.8103657463    17.5676035420
Cu     11.0462101206     4.9418764662    17.5645247695
Cu     12.2738962635     7.0698575531    17.5708962784
O       6.4881591761     3.7215987805    21.8783911041
O       7.8513092742     5.1212231582    19.9342319650
O       7.4125040075     4.2887687516    24.6225812382
C       7.6130356140     4.5388436782    22.2537177379
C       8.5753167676     4.6446312614    21.0736079446
C       8.3005388577     4.0737914557    23.5242752188
H       7.1741347517     5.5306315056    22.4374483147
H       9.0392515569     3.6639279272    20.8502152907
H       9.3772635755     5.3703716751    21.2606941606
H       9.2366068272     4.6501161575    23.6467725830
H       8.5735789351     3.0046503242    23.4284540384
H       6.7906579672     2.7999314413    21.7916800921
H       6.9999476696     4.6256667870    19.9221162090
H       7.8640470829     4.0280983876    25.4421646200
O       2.4514286674     1.4175054048    18.9968560245
H       2.5342983146     1.4093890469    19.9631723262
80
Step 3 | NEB Image 3 | Cartesian Angstrom
Ni      1.2285991490     0.7093236832    11.2498955203
Ni      2.4572260148     2.8374245585    11.2497814519
Ni      3.6858796322     4.9655666960    11.2496989821
Ni      4.9145570834     7.0937060419    11.2497148271
Ni      3.6859071519     0.7092926127    11.2498069734
Ni      4.9145648985     2.8374074049    11.2496643242
Ni      6.1432441979     4.9655671489    11.2496102500
Ni      7.3719221351     7.0937083246    11.2496817792
Ni      6.1432484800     0.7092720797    11.2497451327
Ni      7.3719343629     2.8374002156    11.2496340713
Ni      8.6006168611     4.9655590841    11.2496370374
Ni      9.8292724705     7.0936875031    11.2497423925
Ni      8.6005979120     0.7092750802    11.2497520750
Ni      9.8292869307     2.8374074250    11.2497040567
Ni     11.0579489672     4.9655493547    11.2497497670
Ni     12.2865792309     7.0936594989    11.2498416057
Ni     14.7392077454     8.5053942843    13.3010704221
Ni     11.0533861111     2.1205230035    13.3002964845
Ni     12.2819710410     4.2489788009    13.3001994522
Ni     13.5103695047     6.3773996430    13.3007214129
Ni      7.3673017813     8.5050217360    13.3006164334
Ni      3.6812103730     2.1206202121    13.3000221497
Ni      4.9097801735     4.2493783030    13.2998419550
Ni      6.1381856550     6.3777421860    13.3001673203
Ni      9.8242505822     8.5049061186    13.3006520354
Ni      6.1383609417     2.1205588450    13.2998496619
Ni      7.3670133895     4.2490432137    13.2996648507
Ni      8.5955739479     6.3769497745    13.3000879956
Ni     12.2818047290     8.5052679704    13.3003747536
Ni      8.5960470514     2.1204033429    13.3002208779
Ni      9.8247486425     4.2487011608    13.2999055904
Ni     11.0531018406     6.3770722851    13.3001498566
Cu      2.4473247632     1.4018494311    15.3755946357
Cu      3.6754778337     3.5308423601    15.3731106066
Cu      4.9034905901     5.6609736184    15.3737516625
Cu      6.1328659710     7.7890757379    15.3766257109
Cu      4.9045257589     1.4013777720    15.3753038997
Cu      6.1328227073     3.5310512418    15.3730345060
Cu      7.3614544533     5.6609266566    15.3738293710
Cu      8.5910913953     7.7878983425    15.3768326048
Cu      7.3626450077     1.4026166062    15.3737906009
Cu      8.5914898835     3.5316189068    15.3744567408
Cu      9.8202297470     5.6602822985    15.3743381102
Cu     11.0494308766     7.7879714833    15.3768683902
Cu      9.8203774684     1.4034665182    15.3759037043
Cu     11.0488954630     3.5313133585    15.3756622455
Cu     12.2771953241     5.6597555100    15.3763428884
Cu     13.5057208591     7.7884580218    15.3769992873
Cu      1.2138697662     0.6834571867    17.5698896209
Cu      2.4372102523     2.8184802140    17.5394119868
Cu      3.6597414011     4.9474301630    17.5497329021
Cu      4.8966058841     7.0752555647    17.5649848149
Cu      3.6705521543     0.6799049217    17.5688922390
Cu      4.8937255879     2.7980016390    17.5305710360
Cu      6.1306993572     4.9538209699    17.5345931713
Cu      7.3556976224     7.0778880116    17.5612036922
Cu      6.1304713414     0.6776641095    17.5630157106
Cu      7.3639424786     2.8072652074    17.5492896952
Cu      8.5986439221     4.9465918619    17.5318638032
Cu      9.8182784610     7.0735626889    17.5648068298
Cu      8.5888495796     0.6815720908    17.5619310593
Cu      9.8202625339     2.8100101671    17.5662441130
Cu     11.0470504024     4.9421069318    17.5646350036
Cu     12.2740435445     7.0698891374    17.5709801352
O       5.7950116202     3.3553332289    21.6133365496
O       7.3124557721     4.2272982102    19.7077646656
O       6.2754043957     4.2258801580    24.3649192351
C       6.8021815232     4.2967984624    22.0364934660
C       7.9289331610     4.3304549380    20.9968045180
C       7.3286516485     4.0140199498    23.4258160145
H       6.2765968429     5.2626268492    22.0302394367
H       8.6410841381     3.4964327272    21.1347165619
H       8.4881664733     5.2752012934    21.0284382824
H       8.1884304560     4.6832238063    23.6192099421
H       7.7029013065     2.9716084111    23.4609337402
H       6.1299549629     2.4484497298    21.7374195886
H       6.4608568611     3.7445534089    19.8680975048
H       6.6017940577     4.0068741490    25.2523028869
O       3.3980108637     1.9622542251    19.0883001090
H       2.7853056194     1.6563389368    19.7853725381
80
Step 4 | NEB Image 4 | Cartesian Angstrom
Ni      1.2286045756     0.7093280605    11.2499053277
Ni      2.4572339780     2.8374276040    11.2498041820
Ni      3.6858865195     4.9655632318    11.2497306082
Ni      4.9145604677     7.0936969178    11.2497431479
Ni      3.6859116708     0.7093001670    11.2498254601
Ni      4.9145679985     2.8374119818    11.2496978367
Ni      6.1432437149     4.9655637890    11.2496478840
Ni      7.3719192177     7.0936997464    11.2497110543
Ni      6.1432485154     0.7092810289    11.2497684758
Ni      7.3719305641     2.8374048826    11.2496675411
Ni      8.6006101981     4.9655567847    11.2496692417
Ni      9.8292656010     7.0936813068    11.2497647950
Ni      8.6005936239     0.7092829351    11.2497734464
Ni      9.8292791741     2.8374110155    11.2497294305
Ni     11.0579402222     4.9655479499    11.2497710422
Ni     12.2865721985     7.0936558761    11.2498549667
Ni     14.7392000976     8.5053901708    13.3010785825
Ni     11.0533652566     2.1205339581    13.3003388662
Ni     12.2819497565     4.2489790712    13.3002330316
Ni     13.5103551721     6.3773951124    13.3007397346
Ni      7.3672965570     8.5049938393    13.3006672372
Ni      3.6812286304     2.1206415260    13.3000958676
Ni      4.9097897337     4.2493730799    13.2999567636
Ni      6.1381844186     6.3777135983    13.3002595557
Ni      9.8242372968     8.5048867568    13.3006894830
Ni      6.1383569884     2.1205832465    13.2999391830
Ni      7.3669979424     4.2490419792    13.2997701852
Ni      8.5955564701     6.3769293032    13.3001645265
Ni     12.2817923297     8.5052581557    13.3003942113
Ni      8.5960291355     2.1204221871    13.3002908913
Ni      9.8247232309     4.2487022888    13.2999759820
Ni     11.0530802183     6.3770613980    13.3001935061
Cu      2.4473864156     1.4019298403    15.3756898202
Cu      3.6756000107     3.5308450010    15.3735598883
Cu      4.9035416952     5.6608251115    15.3741619130
Cu      6.1328732404     7.7889601848    15.3767995633
Cu      4.9045569921     1.4015356374    15.3755664954
Cu      6.1327585746     3.5310853483    15.3735342378
Cu      7.3614075917     5.6608271397    15.3742020385
Cu      8.5910537866     7.7878099163    15.3769833424
Cu      7.3626009771     1.4027215639    15.3739976463
Cu      8.5914070915     3.5316720142    15.3747608390
Cu      9.8201266599     5.6602320325    15.3745685496
Cu     11.0493847377     7.7879312020    15.3769417044
Cu      9.8203208080     1.4035271095    15.3760352340
Cu     11.0488125928     3.5313316336    15.3757933492
Cu     12.2771398895     5.6597415311    15.3764087059
Cu     13.5056972152     7.7884454825    15.3770220100
Cu      1.2136796380     0.6833359019    17.5695908822
Cu      2.4378566703     2.8179170783    17.5427101814
Cu      3.6617819743     4.9463177008    17.5525940866
Cu      4.8967570030     7.0744846864    17.5656836942
Cu      3.6708907586     0.6800160692    17.5687175905
Cu      4.8954609838     2.8008265276    17.5363580035
Cu      6.1287547691     4.9518754867    17.5380177569
Cu      7.3557090764     7.0771925538    17.5620887947
Cu      6.1304573347     0.6782209035    17.5634595461
Cu      7.3630952227     2.8076425939    17.5506608012
Cu      8.5976545612     4.9464570860    17.5357580847
Cu      9.8179916179     7.0732340522    17.5652962993
Cu      8.5887102394     0.6818931724    17.5623467617
Cu      9.8198075300     2.8103237651    17.5670414655
Cu     11.0466582316     4.9420627664    17.5650095374
Cu     12.2739405687     7.0698384757    17.5710554929
O       6.0458993642     2.8972557950    21.0827898742
O       7.4396172081     4.2481056835    19.0562859734
O       6.1659255388     4.2321973439    23.7233936879
C       6.7501131169     4.1235034594    21.3985108169
C       7.8946296392     4.3530359712    20.4148487812
C       7.2706557375     4.0612915261    22.8296341968
H       6.0284606508     4.9545807374    21.3261157788
H       8.6917600380     3.6051284098    20.5776663148
H       8.3281424344     5.3515528320    20.5821549165
H       8.0231975713     4.8590299513    22.9796009276
H       7.7635748469     3.0854362474    22.9829965903
H       6.4383465138     2.5357439230    20.2615701177
H       4.4248304848     2.9226360894    20.4464474053
H       6.4772870717     4.0776619214    24.6308357542
O       3.5315974244     2.8270764365    20.0059272533
H       3.2791867674     1.8925402051    20.1231190620
80
Step 5 | NEB Image 5 | Cartesian Angstrom
Ni      1.2286497034     0.7093615225    11.2499999440
Ni      2.4572989609     2.8374461750    11.2499999440
Ni      3.6859482184     4.9655308275    11.2499999440
Ni      4.9145974759     7.0936154800    11.2499999440
Ni      3.6859497034     0.7093615225    11.2499999440
Ni      4.9145989609     2.8374461750    11.2499999440
Ni      6.1432482184     4.9655308275    11.2499999440
Ni      7.3718974759     7.0936154800    11.2499999440
Ni      6.1432497034     0.7093615225    11.2499999440
Ni      7.3718989609     2.8374461750    11.2499999440
Ni      8.6005482184     4.9655308275    11.2499999440
Ni      9.8291974759     7.0936154800    11.2499999440
Ni      8.6005497034     0.7093615225    11.2499999440
Ni      9.8291989609     2.8374461750    11.2499999440
Ni     11.0578482184     4.9655308275    11.2499999440
Ni     12.2864974759     7.0936154800    11.2499999440
Ni     14.7391156794     8.5053429999    13.3011712910
Ni     11.0531329642     2.1206495503    13.3008022026
Ni     12.2817169557     4.2489790177    13.3006008466
Ni     13.5101985270     6.3773433856    13.3009432678
Ni      7.3672569131     8.5047181091    13.3011774747
Ni      3.6813641840     2.1207833643    13.3007249066
Ni      4.9098915592     4.2493198517    13.3009123494
Ni      6.1382080000     6.3774560890    13.3011137055
Ni      9.8241033938     8.5046823573    13.3010831736
Ni      6.1383369699     2.1207818321    13.3007716707
Ni      7.3668809566     4.2490234521    13.3008056810
Ni      8.5953896076     6.3767159412    13.3009509974
Ni     12.2816608204     8.5051500252    13.3006066438
Ni      8.5958457422     2.1206092019    13.3010364095
Ni      9.8244550440     4.2487038138    13.3007276120
Ni     11.0528529688     6.3769410074    13.3006611374
Cu      2.4478274055     1.4024593708    15.3768195742
Cu      3.6763308468     3.5307009057    15.3768060474
Cu      4.9041378398     5.6597275336    15.3773448005
Cu      6.1330260451     7.7878910103    15.3784795057
Cu      4.9046987540     1.4026027186    15.3777977550
Cu      6.1325026510     3.5313493756    15.3777258697
Cu      7.3610720952     5.6598451741    15.3779276123
Cu      8.5906751295     7.7868954923    15.3785351588
Cu      7.3621786280     1.4037477983    15.3762151195
Cu      8.5904727564     3.5321453644    15.3780682910
Cu      9.8190628915     5.6596863338    15.3769316534
Cu     11.0489115080     7.7874997832    15.3777154348
Cu      9.8196453802     1.4041813317    15.3774700200
Cu     11.0479045662     3.5315147704    15.3771971651
Cu     12.2765483193     5.6595852924    15.3771299176
Cu     13.5054403579     7.7883030926    15.3772814178
Cu      1.2140125591     0.6836803076    17.5697065574
Cu      2.4431555374     2.8116125893    17.5665702724
Cu      3.6705110760     4.9384343512    17.5687388115
Cu      4.8988742539     7.0688538531    17.5715929661
Cu      3.6716454744     0.6829118137    17.5713989532
Cu      4.8981418913     2.8112417067    17.5722074693
Cu      6.1274353048     4.9410331682    17.5708265763
Cu      7.3554752500     7.0698228126    17.5713297733
Cu      6.1297077779     0.6833063606    17.5689100221
Cu      7.3567237656     2.8135682139    17.5698797004
Cu      8.5851063076     4.9421568820    17.5702368079
Cu      9.8152975701     7.0699596058    17.5700617325
Cu      8.5865082080     0.6855771971    17.5667967496
Cu      9.8144914881     2.8135456562    17.5749499312
Cu     11.0427692018     4.9416447797    17.5690866435
Cu     12.2728600100     7.0692517198    17.5719744219
O       5.4816243728     2.5651691502    20.6539118200
O       7.3508896973     4.2099530947    19.0383354809
O       4.4981563510     3.9587391709    22.9072956728
C       5.9290713561     3.8945947838    20.9960208007
C       7.3297021271     4.1881915565    20.4688911028
C       5.8721709119     4.0116672750    22.5089584937
H       5.2340507257     4.6323215466    20.5533350446
H       8.0432145389     3.4244560240    20.8191443760
H       7.6571223136     5.1738780612    20.8354754738
H       6.3359933253     4.9675285031    22.8148914030
H       6.4497260984     3.1808581747    22.9509168945
H       5.8597578631     2.3152772777    19.7784701378
H       3.6583776659     2.5435355524    20.3168147116
H       4.4610770249     3.8064239805    23.8648388416
O       2.7103082747     2.5416543255    20.0177020144
H       2.4292112216     1.6097423068    20.0822731560
