80
Step 1 | NEB Image 1 | Cartesian Angstrom
Ni      1.2286497034     0.7093615225    11.2499999440
Ni      2.4572989609     2.8374461750    11.2499999440
Ni      3.6859482184     4.9655308275    11.2499999440
Ni      4.9145974759     7.0936154800    11.2499999440
Ni      3.6859497034     0.7093615225    11.2499999440
Ni      4.9145989609     2.8374461750    11.2499999440
Ni      6.1432482184     4.9655308275    11.2499999440
Ni      7.3718974759     7.0936154800    11.2499999440
Ni      6.1432497034     0.7093615225    11.2499999440
Ni      7.3718989609     2.8374461750    11.2499999440
Ni      8.6005482184     4.9655308275    11.2499999440
Ni      9.8291974759     7.0936154800    11.2499999440
Ni      8.6005497034     0.7093615225    11.2499999440
Ni      9.8291989609     2.8374461750    11.2499999440
Ni     11.0578482184     4.9655308275    11.2499999440
Ni     12.2864974759     7.0936154800    11.2499999440
Ni     14.7391156794     8.5053429999    13.3011712910
Ni     11.0531329642     2.1206495503    13.3008022026
Ni     12.2817169557     4.2489790177    13.3006008466
Ni     13.5101985270     6.3773433856    13.3009432678
Ni      7.3672569131     8.5047181091    13.3011774747
Ni      3.6813641840     2.1207833643    13.3007249066
Ni      4.9098915592     4.2493198517    13.3009123494
Ni      6.1382080000     6.3774560890    13.3011137055
Ni      9.8241033938     8.5046823573    13.3010831736
Ni      6.1383369699     2.1207818321    13.3007716707
Ni      7.3668809566     4.2490234521    13.3008056810
Ni      8.5953896076     6.3767159412    13.3009509974
Ni     12.2816608204     8.5051500252    13.3006066438
Ni      8.5958457422     2.1206092019    13.3010364095
Ni      9.8244550440     4.2487038138    13.3007276120
Ni     11.0528529688     6.3769410074    13.3006611374
Cu      2.4478274055     1.4024593708    15.3768195742
Cu      3.6763308468     3.5307009057    15.3768060474
Cu      4.9041378398     5.6597275336    15.3773448005
Cu      6.1330260451     7.7878910103    15.3784795057
Cu      4.9046987540     1.4026027186    15.3777977550
Cu      6.1325026510     3.5313493756    15.3777258697
Cu      7.3610720952     5.6598451741    15.3779276123
Cu      8.5906751295     7.7868954923    15.3785351588
Cu      7.3621786280     1.4037477983    15.3762151195
Cu      8.5904727564     3.5321453644    15.3780682910
Cu      9.8190628915     5.6596863338    15.3769316534
Cu     11.0489115080     7.7874997832    15.3777154348
Cu      9.8196453802     1.4041813317    15.3774700200
Cu     11.0479045662     3.5315147704    15.3771971651
Cu     12.2765483193     5.6595852924    15.3771299176
Cu     13.5054403579     7.7883030926    15.3772814178
Cu      1.2140125591     0.6836803076    17.5697065574
Cu      2.4431555374     2.8116125893    17.5665702724
Cu      3.6705110760     4.9384343512    17.5687388115
Cu      4.8988742539     7.0688538531    17.5715929661
Cu      3.6716454744     0.6829118137    17.5713989532
Cu      4.8981418913     2.8112417067    17.5722074693
Cu      6.1274353048     4.9410331682    17.5708265763
Cu      7.3554752500     7.0698228126    17.5713297733
Cu      6.1297077779     0.6833063606    17.5689100221
Cu      7.3567237656     2.8135682139    17.5698797004
Cu      8.5851063076     4.9421568820    17.5702368079
Cu      9.8152975701     7.0699596058    17.5700617325
Cu      8.5865082080     0.6855771971    17.5667967496
Cu      9.8144914881     2.8135456562    17.5749499312
Cu     11.0427692018     4.9416447797    17.5690866435
Cu     12.2728600100     7.0692517198    17.5719744219
O       7.2288202015     4.2734569284    22.3446828621
O       8.3044696405     5.3171068409    20.0014702420
O       8.8891638945     4.8479579810    24.7349733808
C       8.5251333110     4.9000290628    22.3715153937
C       9.1804211035     4.7744357207    20.9993344800
C       9.4189460410     4.3898719266    23.4895992517
H       8.3072385962     5.9614198807    22.5605187870
H       9.4153356173     3.7172718747    20.7683620669
H      10.1139922737     5.3503076003    20.9408546493
H      10.4461642949     4.7683945991    23.3275539960
H       9.4595638267     3.2836247445    23.4537018323
H       7.3561498138     3.3073831923    22.3295378714
H       7.4071380143     4.9636379387    20.1831718691
H       9.4432595602     4.5017937719    25.4528614775
O       2.4447775074     1.3898406800    19.0162048647
H       2.5328987835     1.2730973609    19.9764139723
80
Step 2 | NEB Image 2 | Cartesian Angstrom
Ni      1.2286130677     0.7093358717    11.2499277306
Ni      2.4572447363     2.8374311037    11.2498535462
Ni      3.6858901923     4.9655517008    11.2497942852
Ni      4.9145561380     7.0936761592    11.2497939699
Ni      3.6859156920     0.7093136274    11.2498686015
Ni      4.9145636567     2.8374152876    11.2497682217
Ni      6.1432295128     4.9655506727    11.2497160988
Ni      7.3719031234     7.0936806398    11.2497572606
Ni      6.1432392843     0.7092953873    11.2498206422
Ni      7.3719102208     2.8374065334    11.2497314603
Ni      8.6005861858     4.9655464777    11.2497210860
Ni      9.8292455122     7.0936678981    11.2497950443
Ni      8.6005750115     0.7092937235    11.2498157624
Ni      9.8292540663     2.8374116765    11.2497713767
Ni     11.0579170340     4.9655414959    11.2497996260
Ni     12.2865563344     7.0936486126    11.2498690698
Ni     14.7391881661     8.5053851301    13.3010812932
Ni     11.0533047682     2.1205392752    13.3003999442
Ni     12.2819017037     4.2489702430    13.3002653874
Ni     13.5103293219     6.3773862607    13.3007496622
Ni      7.3672633475     8.5049416499    13.3007408523
Ni      3.6812542087     2.1206795967    13.3002740602
Ni      4.9097637353     4.2493355622    13.3001913374
Ni      6.1381422375     6.3776471155    13.3004098717
Ni      9.8241987585     8.5048538253    13.3007306328
Ni      6.1383085433     2.1206097538    13.3001422938
Ni      7.3669256924     4.2490103979    13.2999529231
Ni      8.5954949824     6.3768804253    13.3002742844
Ni     12.2817671109     8.5052443053    13.3004070157
Ni      8.5959553531     2.1204371652    13.3004257945
Ni      9.8246449264     4.2486859563    13.3000805726
Ni     11.0530267313     6.3770369390    13.3002389186
Cu      2.4475457787     1.4021104637    15.3758457461
Cu      3.6758454360     3.5307949001    15.3747227646
Cu      4.9033525575     5.6604647429    15.3748482097
Cu      6.1327768861     7.7887519282    15.3770548760
Cu      4.9045512122     1.4019206549    15.3763755896
Cu      6.1323349761     3.5308820337    15.3744905970
Cu      7.3612187588     5.6605787257    15.3747042055
Cu      8.5909051096     7.7876506276    15.3771523097
Cu      7.3623340619     1.4028636215    15.3745179565
Cu      8.5910761241     3.5316581060    15.3753018602
Cu      9.8198160541     5.6600814579    15.3748688861
Cu     11.0492863265     7.7878783278    15.3769670996
Cu      9.8200995433     1.4035851581    15.3762632407
Cu     11.0485949676     3.5313087868    15.3759142747
Cu     12.2770423601     5.6597113022    15.3764133180
Cu     13.5056662519     7.7884349546    15.3770134631
Cu      1.2129232842     0.6827030965    17.5686404869
Cu      2.4404105720     2.8225594979    17.5459096949
Cu      3.6648543413     4.9416107575    17.5610434317
Cu      4.8962125173     7.0731335876    17.5668448308
Cu      3.6727072736     0.6801401910    17.5682578274
Cu      4.8947654755     2.8055420192    17.5565302968
Cu      6.1233560726     4.9489442047    17.5352451733
Cu      7.3549846679     7.0760307652    17.5630324975
Cu      6.1296471684     0.6801041600    17.5658477176
Cu      7.3604358578     2.8060347555    17.5533002627
Cu      8.5918944285     4.9435117626    17.5437800973
Cu      9.8172804246     7.0729447188    17.5651569055
Cu      8.5876249397     0.6825996535    17.5635327569
Cu      9.8181477395     2.8104222991    17.5678162580
Cu     11.0460795138     4.9418411959    17.5645113412
Cu     12.2738730734     7.0698523314    17.5708842403
O       6.5055470313     3.7476865968    21.7505443687
O       7.7066600431     4.8787284111    19.6827401135
O       7.4970454388     4.5943898643    24.3934658017
C       7.6459685949     4.5953660297    22.0200803774
C       8.5521205464     4.5761703602    20.7998118891
C       8.3609061410     4.2526936205    23.3060647487
H       7.2138757748     5.6012924106    22.1129447043
H       9.0369407744     3.5918644425    20.6540047284
H       9.3345826385     5.3469112652    20.8234295981
H       9.3048946193     4.8288817484    23.3442911028
H       8.6196125251     3.1765838941    23.3127372334
H       6.8185720052     2.8395196028    21.6153968693
H       6.8445506352     4.4291401115    19.8731639216
H       7.8878724844     4.2838056340    25.2150081334
O       2.4595157057     1.4236966488    19.0020654100
H       2.4955446733     1.3523291482    19.9699230771
80
Step 3 | NEB Image 3 | Cartesian Angstrom
Ni      1.2286019303     0.7093261304    11.2499020419
Ni      2.4572297353     2.8374258511    11.2497960247
Ni      3.6858816566     4.9655636259    11.2497181973
Ni      4.9145567784     7.0936999924    11.2497307203
Ni      3.6859088217     0.7092968317    11.2498194598
Ni      4.9145645394     2.8374089335    11.2496853020
Ni      6.1432411012     4.9655637617    11.2496315138
Ni      7.3719181969     7.0937027239    11.2496968671
Ni      6.1432465304     0.7092767415    11.2497604101
Ni      7.3719293650     2.8374014099    11.2496536714
Ni      8.6006105675     4.9655564841    11.2496538500
Ni      9.8292669709     7.0936835407    11.2497528556
Ni      8.6005931923     0.7092787875    11.2497649084
Ni      9.8292802070     2.8374082148    11.2497175360
Ni     11.0579424715     4.9655477329    11.2497596732
Ni     12.2865745969     7.0936573043    11.2498470116
Ni     14.7392038334     8.5053924719    13.3010724730
Ni     11.0533695206     2.1205261123    13.3003170951
Ni     12.2819570077     4.2489769792    13.3002123841
Ni     13.5103614339     6.3773969476    13.3007268316
Ni      7.3672937991     8.5050056297    13.3006412244
Ni      3.6812190964     2.1206321356    13.3000732461
Ni      4.9097763945     4.2493694082    13.2999124332
Ni      6.1381764935     6.3777229261    13.3002158604
Ni      9.8242400123     8.5048956373    13.3006675306
Ni      6.1383499612     2.1205688769    13.2999088977
Ni      7.3669952853     4.2490362985    13.2997226310
Ni      8.5955577567     6.3769357135    13.3001251002
Ni     12.2817971418     8.5052632597    13.3003809875
Ni      8.5960281757     2.1204099263    13.3002621313
Ni      9.8247274524     4.2486979042    13.2999404892
Ni     11.0530865947     6.3770651325    13.3001673772
Cu      2.4473696865     1.4019022532    15.3756448981
Cu      3.6755519445     3.5308322219    15.3734383053
Cu      4.9034597604     5.6608703878    15.3739713154
Cu      6.1328468696     7.7890107015    15.3767112670
Cu      4.9045301856     1.4014879188    15.3755228553
Cu      6.1327213457     3.5310143324    15.3733275740
Cu      7.3614059618     5.6608560127    15.3740032078
Cu      8.5910530868     7.7878485904    15.3768956826
Cu      7.3625804834     1.4026656985    15.3739383140
Cu      8.5914047735     3.5316255691    15.3746264034
Cu      9.8201452791     5.6602412977    15.3744434455
Cu     11.0494016755     7.7879529911    15.3768870369
Cu      9.8203203319     1.4034897818    15.3759758165
Cu     11.0488343552     3.5313118241    15.3757115910
Cu     12.2771646279     5.6597465754    15.3763557748
Cu     13.5057100200     7.7884535221    15.3770015877
Cu      1.2136750984     0.6833011546    17.5696341849
Cu      2.4378683689     2.8193620113    17.5406867235
Cu      3.6607616388     4.9462315063    17.5520409635
Cu      4.8965178557     7.0748297925    17.5653573079
Cu      3.6709983277     0.6799513335    17.5687632174
Cu      4.8938922226     2.7995119584    17.5358924984
Cu      6.1292035561     4.9528478328    17.5346253366
Cu      7.3555461984     7.0775159996    17.5615638084
Cu      6.1302971391     0.6781639048    17.5636020544
Cu      7.3632256750     2.8069928043    17.5500970684
Cu      8.5972443770     4.9459433840    17.5342682476
Cu      9.8180758624     7.0734419169    17.5648658593
Cu      8.5885944004     0.6817798860    17.5622575809
Cu      9.8198285075     2.8100877890    17.5665525608
Cu     11.0468568161     4.9420519913    17.5645972089
Cu     12.2740106100     7.0698829064    17.5709574835
O       6.0714384546     3.4257905190    21.0822886555
O       7.6337525050     4.5819666966    19.2790806709
O       6.4760539788     4.3957604942    23.8953511151
C       7.1279973647     4.4671487652    21.5753378176
C       8.2315986579     4.4748589735    20.5359620573
C       7.5524325517     4.1655540552    22.9861855821
H       6.5249845215     5.3866624932    21.5318859868
H       8.8376785071     3.5448023929    20.6289001579
H       8.9154030089     5.3153431762    20.7728530707
H       8.3964053731     4.8566690192    23.1816000783
H       7.9524877662     3.1374639913    23.0740185245
H       6.5379557489     2.5698820369    20.8337070864
H       5.7497377934     3.7424387199    20.1673500735
H       6.7711198614     4.1804971921    24.7884005028
O       2.9974283245     1.8092459519    19.1968167430
H       2.3353995745     1.3481753689    19.7675322079
80
Step 4 | NEB Image 4 | Cartesian Angstrom
Ni      1.2286147529     0.7093357536    11.2499199321
Ni      2.4572498271     2.8374339957    11.2498394036
Ni      3.6859032512     4.9655600156    11.2497823036
Ni      4.9145719832     7.0936832858    11.2497927698
Ni      3.6859217836     0.7093134545    11.2498524993
Ni      4.9145787487     2.8374226362    11.2497510533
Ni      6.1432500295     4.9655617077    11.2497134583
Ni      7.3719199373     7.0936867098    11.2497657462
Ni      6.1432535684     0.7092976222    11.2498038576
Ni      7.3719311715     2.8374166706    11.2497241135
Ni      8.6006049971     4.9655560749    11.2497288611
Ni      9.8292577321     7.0936716793    11.2498093914
Ni      8.6005919727     0.7092984737    11.2498087630
Ni      9.8292715914     2.8374204113    11.2497758148
Ni     11.0579289244     4.9655476006    11.2498134715
Ni     12.2865616192     7.0936499377    11.2498836786
Ni     14.7391857350     8.5053817066    13.3010992884
Ni     11.0533411017     2.1205608528    13.3004211663
Ni     12.2819177566     4.2489845458    13.3003068501
Ni     13.5103301293     6.3773875615    13.3007841607
Ni      7.3673002018     8.5049461036    13.3007656777
Ni      3.6812644780     2.1206789659    13.3002003815
Ni      4.9098296568     4.2493790413    13.3001425936
Ni      6.1382037107     6.3776716612    13.3004293269
Ni      9.8242219113     8.5048518585    13.3007690846
Ni      6.1383722661     2.1206352807    13.3000732339
Ni      7.3669947880     4.2490555850    13.2999581206
Ni      8.5955420220     6.3768999546    13.3003134271
Ni     12.2817721983     8.5052389386    13.3004401778
Ni      8.5960200998     2.1204653203    13.3004085900
Ni      9.8246962669     4.2487141221    13.3001109846
Ni     11.0530502186     6.3770449654    13.3002876614
Cu      2.4474682737     1.4020512207    15.3758645883
Cu      3.6758000245     3.5308790759    15.3741555872
Cu      4.9037820436     5.6606153138    15.3749075221
Cu      6.1329447211     7.7887582013    15.3771346043
Cu      4.9046449166     1.4017576145    15.3758451756
Cu      6.1328118669     3.5312871459    15.3743778388
Cu      7.3613817259     5.6606902694    15.3749444543
Cu      8.5910314863     7.7876553076    15.3773019744
Cu      7.3626247273     1.4029303201    15.3742805350
Cu      8.5913599701     3.5318237080    15.3752961757
Cu      9.8200134893     5.6601763776    15.3750330893
Cu     11.0493122806     7.7878502005    15.3771271695
Cu      9.8202857460     1.4036604887    15.3762700005
Cu     11.0487043976     3.5313935321    15.3760844581
Cu     12.2770417142     5.6597198001    15.3765849721
Cu     13.5056496313     7.7884170823    15.3770883084
Cu      1.2135694397     0.6833463219    17.5692899216
Cu      2.4382408003     2.8138949182    17.5499491447
Cu      3.6656738524     4.9458240379    17.5558272509
Cu      4.8974597730     7.0731166882    17.5669581666
Cu      3.6708349040     0.6802512658    17.5684901713
Cu      4.9005473155     2.8059660864    17.5412419405
Cu      6.1263727279     4.9481660891    17.5488067957
Cu      7.3561291673     7.0759277233    17.5639857540
Cu      6.1308543307     0.6787217545    17.5633825087
Cu      7.3622223018     2.8095308329    17.5529670443
Cu      8.5980607384     4.9476726192    17.5420263251
Cu      9.8175945188     7.0724969269    17.5667004159
Cu      8.5889146015     0.6823857846    17.5628388540
Cu      9.8194631188     2.8111225024    17.5687908190
Cu     11.0459039554     4.9420618018    17.5662941858
Cu     12.2736971571     7.0696934524    17.5713521015
O       5.7396884142     2.9785712148    20.8466903602
O       7.4855287052     4.2890311919    19.1116946681
O       5.6378414167     4.2334425355    23.5455276287
C       6.5423868630     4.2212276730    21.3174789860
C       7.8101926023     4.3019799875    20.4748634127
C       6.8411727536     4.0962586001    22.7956515756
H       5.8806322377     5.0692523367    21.1089969646
H       8.4930610582     3.4635583693    20.7211147753
H       8.3380289246     5.2324770123    20.7611367889
H       7.5560538849     4.9102130851    23.0351230863
H       7.3540920185     3.1412315124    23.0051698886
H       6.2414717732     2.5253440713    20.1053221324
H       4.7883216224     3.0742987859    20.4247898170
H       5.8276090145     4.0283621592    24.4767899069
O       3.3243924163     2.4239537166    19.4562932390
H       2.7200077330     1.7529525941    19.8533235085
80
Step 5 | NEB Image 5 | Cartesian Angstrom
Ni      1.2286497034     0.7093615225    11.2499999440
Ni      2.4572989609     2.8374461750    11.2499999440
Ni      3.6859482184     4.9655308275    11.2499999440
Ni      4.9145974759     7.0936154800    11.2499999440
Ni      3.6859497034     0.7093615225    11.2499999440
Ni      4.9145989609     2.8374461750    11.2499999440
Ni      6.1432482184     4.9655308275    11.2499999440
Ni      7.3718974759     7.0936154800    11.2499999440
Ni      6.1432497034     0.7093615225    11.2499999440
Ni      7.3718989609     2.8374461750    11.2499999440
Ni      8.6005482184     4.9655308275    11.2499999440
Ni      9.8291974759     7.0936154800    11.2499999440
Ni      8.6005497034     0.7093615225    11.2499999440
Ni      9.8291989609     2.8374461750    11.2499999440
Ni     11.0578482184     4.9655308275    11.2499999440
Ni     12.2864974759     7.0936154800    11.2499999440
Ni     14.7391156794     8.5053429999    13.3011712910
Ni     11.0531329642     2.1206495503    13.3008022026
Ni     12.2817169557     4.2489790177    13.3006008466
Ni     13.5101985270     6.3773433856    13.3009432678
Ni      7.3672569131     8.5047181091    13.3011774747
Ni      3.6813641840     2.1207833643    13.3007249066
Ni      4.9098915592     4.2493198517    13.3009123494
Ni      6.1382080000     6.3774560890    13.3011137055
Ni      9.8241033938     8.5046823573    13.3010831736
Ni      6.1383369699     2.1207818321    13.3007716707
Ni      7.3668809566     4.2490234521    13.3008056810
Ni      8.5953896076     6.3767159412    13.3009509974
Ni     12.2816608204     8.5051500252    13.3006066438
Ni      8.5958457422     2.1206092019    13.3010364095
Ni      9.8244550440     4.2487038138    13.3007276120
Ni     11.0528529688     6.3769410074    13.3006611374
Cu      2.4478274055     1.4024593708    15.3768195742
Cu      3.6763308468     3.5307009057    15.3768060474
Cu      4.9041378398     5.6597275336    15.3773448005
Cu      6.1330260451     7.7878910103    15.3784795057
Cu      4.9046987540     1.4026027186    15.3777977550
Cu      6.1325026510     3.5313493756    15.3777258697
Cu      7.3610720952     5.6598451741    15.3779276123
Cu      8.5906751295     7.7868954923    15.3785351588
Cu      7.3621786280     1.4037477983    15.3762151195
Cu      8.5904727564     3.5321453644    15.3780682910
Cu      9.8190628915     5.6596863338    15.3769316534
Cu     11.0489115080     7.7874997832    15.3777154348
Cu      9.8196453802     1.4041813317    15.3774700200
Cu     11.0479045662     3.5315147704    15.3771971651
Cu     12.2765483193     5.6595852924    15.3771299176
Cu     13.5054403579     7.7883030926    15.3772814178
Cu      1.2140125591     0.6836803076    17.5697065574
Cu      2.4431555374     2.8116125893    17.5665702724
Cu      3.6705110760     4.9384343512    17.5687388115
Cu      4.8988742539     7.0688538531    17.5715929661
Cu      3.6716454744     0.6829118137    17.5713989532
Cu      4.8981418913     2.8112417067    17.5722074693
Cu      6.1274353048     4.9410331682    17.5708265763
Cu      7.3554752500     7.0698228126    17.5713297733
Cu      6.1297077779     0.6833063606    17.5689100221
Cu      7.3567237656     2.8135682139    17.5698797004
Cu      8.5851063076     4.9421568820    17.5702368079
Cu      9.8152975701     7.0699596058    17.5700617325
Cu      8.5865082080     0.6855771971    17.5667967496
Cu      9.8144914881     2.8135456562    17.5749499312
Cu     11.0427692018     4.9416447797    17.5690866435
Cu     12.2728600100     7.0692517198    17.5719744219
O       5.4816243728     2.5651691502    20.6539118200
O       7.3508896973     4.2099530947    19.0383354809
O       4.4981563510     3.9587391709    22.9072956728
C       5.9290713561     3.8945947838    20.9960208007
C       7.3297021271     4.1881915565    20.4688911028
C       5.8721709119     4.0116672750    22.5089584937
H       5.2340507257     4.6323215466    20.5533350446
H       8.0432145389     3.4244560240    20.8191443760
H       7.6571223136     5.1738780612    20.8354754738
H       6.3359933253     4.9675285031    22.8148914030
H       6.4497260984     3.1808581747    22.9509168945
H       5.8597578631     2.3152772777    19.7784701378
H       3.6583776659     2.5435355524    20.3168147116
H       4.4610770249     3.8064239805    23.8648388416
O       2.7103082747     2.5416543255    20.0177020144
H       2.4292112216     1.6097423068    20.0822731560
