80
Step 1 | NEB Image 1 | Cartesian Angstrom
Ni      1.2286497034     0.7093615225    11.2499999440
Ni      2.4572989609     2.8374461750    11.2499999440
Ni      3.6859482184     4.9655308275    11.2499999440
Ni      4.9145974759     7.0936154800    11.2499999440
Ni      3.6859497034     0.7093615225    11.2499999440
Ni      4.9145989609     2.8374461750    11.2499999440
Ni      6.1432482184     4.9655308275    11.2499999440
Ni      7.3718974759     7.0936154800    11.2499999440
Ni      6.1432497034     0.7093615225    11.2499999440
Ni      7.3718989609     2.8374461750    11.2499999440
Ni      8.6005482184     4.9655308275    11.2499999440
Ni      9.8291974759     7.0936154800    11.2499999440
Ni      8.6005497034     0.7093615225    11.2499999440
Ni      9.8291989609     2.8374461750    11.2499999440
Ni     11.0578482184     4.9655308275    11.2499999440
Ni     12.2864974759     7.0936154800    11.2499999440
Ni     14.7391156794     8.5053429999    13.3011712910
Ni     11.0531329642     2.1206495503    13.3008022026
Ni     12.2817169557     4.2489790177    13.3006008466
Ni     13.5101985270     6.3773433856    13.3009432678
Ni      7.3672569131     8.5047181091    13.3011774747
Ni      3.6813641840     2.1207833643    13.3007249066
Ni      4.9098915592     4.2493198517    13.3009123494
Ni      6.1382080000     6.3774560890    13.3011137055
Ni      9.8241033938     8.5046823573    13.3010831736
Ni      6.1383369699     2.1207818321    13.3007716707
Ni      7.3668809566     4.2490234521    13.3008056810
Ni      8.5953896076     6.3767159412    13.3009509974
Ni     12.2816608204     8.5051500252    13.3006066438
Ni      8.5958457422     2.1206092019    13.3010364095
Ni      9.8244550440     4.2487038138    13.3007276120
Ni     11.0528529688     6.3769410074    13.3006611374
Cu      2.4478274055     1.4024593708    15.3768195742
Cu      3.6763308468     3.5307009057    15.3768060474
Cu      4.9041378398     5.6597275336    15.3773448005
Cu      6.1330260451     7.7878910103    15.3784795057
Cu      4.9046987540     1.4026027186    15.3777977550
Cu      6.1325026510     3.5313493756    15.3777258697
Cu      7.3610720952     5.6598451741    15.3779276123
Cu      8.5906751295     7.7868954923    15.3785351588
Cu      7.3621786280     1.4037477983    15.3762151195
Cu      8.5904727564     3.5321453644    15.3780682910
Cu      9.8190628915     5.6596863338    15.3769316534
Cu     11.0489115080     7.7874997832    15.3777154348
Cu      9.8196453802     1.4041813317    15.3774700200
Cu     11.0479045662     3.5315147704    15.3771971651
Cu     12.2765483193     5.6595852924    15.3771299176
Cu     13.5054403579     7.7883030926    15.3772814178
Cu      1.2140125591     0.6836803076    17.5697065574
Cu      2.4431555374     2.8116125893    17.5665702724
Cu      3.6705110760     4.9384343512    17.5687388115
Cu      4.8988742539     7.0688538531    17.5715929661
Cu      3.6716454744     0.6829118137    17.5713989532
Cu      4.8981418913     2.8112417067    17.5722074693
Cu      6.1274353048     4.9410331682    17.5708265763
Cu      7.3554752500     7.0698228126    17.5713297733
Cu      6.1297077779     0.6833063606    17.5689100221
Cu      7.3567237656     2.8135682139    17.5698797004
Cu      8.5851063076     4.9421568820    17.5702368079
Cu      9.8152975701     7.0699596058    17.5700617325
Cu      8.5865082080     0.6855771971    17.5667967496
Cu      9.8144914881     2.8135456562    17.5749499312
Cu     11.0427692018     4.9416447797    17.5690866435
Cu     12.2728600100     7.0692517198    17.5719744219
O       7.2288202015     4.2734569284    22.3446828621
O       8.3044696405     5.3171068409    20.0014702420
O       8.8891638945     4.8479579810    24.7349733808
C       8.5251333110     4.9000290628    22.3715153937
C       9.1804211035     4.7744357207    20.9993344800
C       9.4189460410     4.3898719266    23.4895992517
H       8.3072385962     5.9614198807    22.5605187870
H       9.4153356173     3.7172718747    20.7683620669
H      10.1139922737     5.3503076003    20.9408546493
H      10.4461642949     4.7683945991    23.3275539960
H       9.4595638267     3.2836247445    23.4537018323
H       7.3561498138     3.3073831923    22.3295378714
H       7.4071380143     4.9636379387    20.1831718691
H       9.4432595602     4.5017937719    25.4528614775
O       2.4447775074     1.3898406800    19.0162048647
H       2.5328987835     1.2730973609    19.9764139723
80
Step 2 | NEB Image 2 | Cartesian Angstrom
Ni      1.2286108960     0.7093339727    11.2499227251
Ni      2.4572418103     2.8374300788    11.2498423369
Ni      3.6858885243     4.9655540230    11.2497794558
Ni      4.9145562580     7.0936808032    11.2497816399
Ni      3.6859143507     0.7093103532    11.2498590264
Ni      4.9145638241     2.8374140466    11.2497520620
Ni      6.1432317656     4.9655532209    11.2496996100
Ni      7.3719060567     7.0936849432    11.2497454844
Ni      6.1432406925     0.7092917516    11.2498089053
Ni      7.3719139465     2.8374055315    11.2497162978
Ni      8.6005909331     4.9655484254    11.2497079761
Ni      9.8292496917     7.0936709465    11.2497868153
Ni      8.6005785506     0.7092908103    11.2498058507
Ni      9.8292591570     2.8374109990    11.2497608792
Ni     11.0579219893     4.9655427099    11.2497918330
Ni     12.2865598930     7.0936503066    11.2498647651
Ni     14.7391912212     8.5053865624    13.3010795681
Ni     11.0533173803     2.1205367024    13.3003837864
Ni     12.2819124801     4.2489715518    13.3002550417
Ni     13.5103355818     6.3773883437    13.3007452007
Ni      7.3672692726     8.5049541213    13.3007214224
Ni      3.6812473604     2.1206703444    13.3002349348
Ni      4.9097661828     4.2493421469    13.3001369808
Ni      6.1381488966     6.3776618870    13.3003720437
Ni      9.8242067936     8.5048619771    13.3007183192
Ni      6.1383165979     2.1206017771    13.3000968152
Ni      7.3669392380     4.2490154332    13.2999080266
Ni      8.5955072056     6.3768911975    13.3002451892
Ni     12.2817729638     8.5052480021    13.3004019313
Ni      8.5959695296     2.1204318463    13.3003938941
Ni      9.8246609987     4.2486882768    13.3000532543
Ni     11.0530383943     6.3770424328    13.3002249567
Cu      2.4475114740     1.4020698919    15.3758065854
Cu      3.6757882346     3.5308021498    15.3744725379
Cu      4.9033733236     5.6605437758    15.3746772430
Cu      6.1327904772     7.7888023734    15.3769878656
Cu      4.9045470841     1.4018363445    15.3762095153
Cu      6.1324101503     3.5309076997    15.3742639034
Cu      7.3612552031     5.6606327476    15.3745674734
Cu      8.5909339183     7.7876892185    15.3771022346
Cu      7.3623820112     1.4028250162    15.3744050301
Cu      8.5911401057     3.5316517118    15.3751701833
Cu      9.8198801746     5.6601125889    15.3747858967
Cu     11.0493088055     7.7878928919    15.3769514420
Cu      9.8201425278     1.4035665415    15.3762072060
Cu     11.0486416018     3.5313093527    15.3758747094
Cu     12.2770661961     5.6597181760    15.3764020470
Cu     13.5056747895     7.7884385798    15.3770111248
Cu      1.2130696486     0.6828194874    17.5688340049
Cu      2.4399156472     2.8219388372    17.5448902393
Cu      3.6640562254     4.9425102572    17.5592900369
Cu      4.8962716562     7.0734642638    17.5665548068
Cu      3.6723746982     0.6801033393    17.5683562800
Cu      4.8945934477     2.8043663424    17.5525117400
Cu      6.1244950916     4.9497054482    17.5351201407
Cu      7.3550937827     7.0763203399    17.5627458852
Cu      6.1297735050     0.6797263399    17.5654106939
Cu      7.3609791729     2.8062204428    17.5526759109
Cu      8.5929354795     4.9439845136    17.5419263283
Cu      9.8174353961     7.0730417849    17.5650996891
Cu      8.5878135346     0.6824399080    17.5632843792
Cu      9.8184749941     2.8103568705    17.5675696017
Cu     11.0462311013     4.9418822217    17.5645275291
Cu     12.2738999403     7.0698583411    17.5708983741
O       6.4812113556     3.7223893727    21.8873791580
O       7.8583993273     5.1403998650    19.9594928625
O       7.3887427521     4.2596584497    24.6244223205
C       7.6021735119     4.5340679337    22.2687783885
C       8.5735154894     4.6438698838    21.0949509349
C       8.2899171018     4.0502380121    23.5436859663
H       7.1681308236     5.5187659305    22.4636400437
H       9.0318287054     3.6678527986    20.8638435259
H       9.3770430890     5.3654378003    21.2952356298
H       9.2239358451     4.6294479515    23.6729445919
H       8.5632449711     2.9855853707    23.4355806527
H       6.7859526616     2.7907873253    21.7903666418
H       7.0041447145     4.6479903683    19.9344610946
H       7.8508053801     3.9818862972    25.4676464828
O       2.4597970879     1.4222291215    18.9968111277
H       2.5401518488     1.4135986131    19.9618967861
80
Step 3 | NEB Image 3 | Cartesian Angstrom
Ni      1.2285991076     0.7093236464    11.2498954206
Ni      2.4572259602     2.8374245397    11.2497812299
Ni      3.6858796048     4.9655667440    11.2496986908
Ni      4.9145570917     7.0937061344    11.2497145882
Ni      3.6859071283     0.7092925493    11.2498067823
Ni      4.9145649073     2.8374073836    11.2496640052
Ni      6.1432442491     4.9655672023    11.2496099302
Ni      7.3719221981     7.0937084101    11.2496815546
Ni      6.1432485125     0.7092720103    11.2497448994
Ni      7.3719344428     2.8374002000    11.2496337753
Ni      8.6006169600     4.9655591253    11.2496367868
Ni      9.8292725559     7.0936875634    11.2497422387
Ni      8.6005979867     0.7092750256    11.2497518807
Ni      9.8292870357     2.8374074152    11.2497038554
Ni     11.0579490675     4.9655493804    11.2497496214
Ni     12.2865793016     7.0936595321    11.2498415279
Ni     14.7392078036     8.5053943107    13.3010703955
Ni     11.0533863685     2.1205229618    13.3002961799
Ni     12.2819712554     4.2489788315    13.3001992676
Ni     13.5103696261     6.3773996838    13.3007213394
Ni      7.3673019096     8.5050219788    13.3006160669
Ni      3.6812102444     2.1206200329    13.3000213656
Ni      4.9097802454     4.2493784465    13.2998408857
Ni      6.1381858067     6.3777424809    13.3001665960
Ni      9.8242507462     8.5049062755    13.3006518116
Ni      6.1383611212     2.1205587002    13.2998487567
Ni      7.3670136772     4.2490433279    13.2996639844
Ni      8.5955742018     6.3769499901    13.3000874475
Ni     12.2818048441     8.5052680399    13.3003746676
Ni      8.5960473496     2.1204032505    13.3002202546
Ni      9.8247489725     4.2487012162    13.2999050734
Ni     11.0531020749     6.3770723943    13.3001496047
Cu      2.4473240709     1.4018486244    15.3755938853
Cu      3.6754767105     3.5308425316    15.3731055562
Cu      4.9034911517     5.6609752029    15.3737483782
Cu      6.1328662964     7.7890767158    15.3766244446
Cu      4.9045257140     1.4013760808    15.3753004904
Cu      6.1328243387     3.5310518890    15.3730300799
Cu      7.3614552187     5.6609277429    15.3738268161
Cu      8.5910919995     7.7878990906    15.3768316921
Cu      7.3626460433     1.4026158845    15.3737883286
Cu      8.5914912265     3.5316188448    15.3744541921
Cu      9.8202310605     5.6602829359    15.3743365664
Cu     11.0494313210     7.7879717545    15.3768681470
Cu      9.8203783691     1.4034661862    15.3759026231
Cu     11.0488964056     3.5313134010    15.3756615437
Cu     12.2771957849     5.6597556461    15.3763427343
Cu     13.5057210180     7.7884580852    15.3769992699
Cu      1.2138728374     0.6834596772    17.5698936052
Cu      2.4371998729     2.8184649846    17.5393937753
Cu      3.6597262712     4.9474491275    17.5496970505
Cu      4.8966074922     7.0752619534    17.5649792482
Cu      3.6705450253     0.6799042504    17.5688942295
Cu      4.8937244139     2.7979790602    17.5304876274
Cu      6.1307225082     4.9538354021    17.5345958028
Cu      7.3557001587     7.0778935734    17.5611985042
Cu      6.1304742342     0.6776562880    17.5630063410
Cu      7.3639536511     2.8072701002    17.5492774966
Cu      8.5986663513     4.9466025539    17.5318272996
Cu      9.8182815750     7.0735643994    17.5648062980
Cu      8.5888537071     0.6815689218    17.5619259975
Cu      9.8202693526     2.8100091625    17.5662397058
Cu     11.0470532686     4.9421078073    17.5646359805
Cu     12.2740439986     7.0698891945    17.5709805827
O       5.7814486539     3.3363494488    21.6884804303
O       7.2746162734     4.2412434675    19.7529794271
O       6.2741270069     4.2313554998    24.4069193645
C       6.7897666250     4.2876855624    22.0914696936
C       7.9032065012     4.3146395268    21.0381852925
C       7.3378073260     4.0110669171    23.4724344581
H       6.2631386509     5.2478037397    22.0878613697
H       8.6035841017     3.4696015540    21.1600451589
H       8.4772858996     5.2512943883    21.0771824584
H       8.1925339780     4.6853621587    23.6593948056
H       7.7128025680     2.9709914376    23.5155007535
H       6.1239758699     2.4334874162    21.8163727745
H       6.4334256043     3.7404398396    19.9023074435
H       6.6378781067     4.0021404475    25.3381802098
O       3.4874018246     2.0129645848    19.0648362682
H       2.9261776889     1.7467597920    19.8147892809
80
Step 4 | NEB Image 4 | Cartesian Angstrom
Ni      1.2286038285     0.7093274576    11.2499039758
Ni      2.4572328821     2.8374271850    11.2498010493
Ni      3.6858855730     4.9655637102    11.2497262507
Ni      4.9145600041     7.0936981755    11.2497392473
Ni      3.6859110494     0.7092991266    11.2498229115
Ni      4.9145675739     2.8374113526    11.2496932186
Ni      6.1432437847     4.9655642535    11.2496427005
Ni      7.3719196222     7.0937009288    11.2497070238
Ni      6.1432485128     0.7092797967    11.2497652583
Ni      7.3719310906     2.8374042415    11.2496629304
Ni      8.6006111188     4.9655571029    11.2496648077
Ni      9.8292665490     7.0936821607    11.2497617120
Ni      8.6005942171     0.7092818540    11.2497705020
Ni      9.8292802451     2.8374105224    11.2497259366
Ni     11.0579414284     4.9655481444    11.2497681143
Ni     12.2865731679     7.0936563752    11.2498531289
Ni     14.7392011505     8.5053907368    13.3010774615
Ni     11.0533681344     2.1205324529    13.3003330326
Ni     12.2819526904     4.2489790362    13.3002284136
Ni     13.5103571462     6.3773957365    13.3007372168
Ni      7.3672972823     8.5049976820    13.3006602444
Ni      3.6812261176     2.1206385905    13.3000857034
Ni      4.9097884274     4.2493738061    13.2999409442
Ni      6.1381845986     6.3777175394    13.3002468559
Ni      9.8242391302     8.5048894230    13.3006843317
Ni      6.1383575430     2.1205798899    13.2999268431
Ni      7.3670000807     4.2490421564    13.2997556791
Ni      8.5955588846     6.3769321256    13.3001539927
Ni     12.2817940382     8.5052595065    13.3003915368
Ni      8.5960316132     2.1204195963    13.3002812462
Ni      9.8247267388     4.2487021379    13.2999662923
Ni     11.0530831999     6.3770628987    13.3001875023
Cu      2.4473779124     1.4019187568    15.3756767141
Cu      3.6755831770     3.5308446506    15.3734979225
Cu      4.9035347248     5.6608455880    15.3741054218
Cu      6.1328722658     7.7889761001    15.3767756326
Cu      4.9045527054     1.4015138700    15.3755302462
Cu      6.1327674826     3.5310807152    15.3734653958
Cu      7.3614140714     5.6608408631    15.3741507519
Cu      8.5910589861     7.7878220953    15.3769626061
Cu      7.3626070871     1.4027071195    15.3739690940
Cu      8.5914185387     3.5316647263    15.3747189570
Cu      9.8201408886     5.6602389703    15.3745368390
Cu     11.0493910961     7.7879367451    15.3769316327
Cu      9.8203286409     1.4035187767    15.3760171205
Cu     11.0488240232     3.5313291301    15.3757753203
Cu     12.2771475240     5.6597434577    15.3763996686
Cu     13.5057004689     7.7884472066    15.3770188924
Cu      1.2137059251     0.6833527073    17.5696321279
Cu      2.4377673008     2.8179932636    17.5422565857
Cu      3.6615010716     4.9464715783    17.5521992124
Cu      4.8967363879     7.0745908509    17.5655874609
Cu      3.6708438290     0.6800007793    17.5687416803
Cu      4.8952228960     2.8004375446    17.5355585901
Cu      6.1290230595     4.9521432999    17.5375482610
Cu      7.3557076800     7.0772883175    17.5619670472
Cu      6.1304594548     0.6781440018    17.5633980300
Cu      7.3632121914     2.8075911725    17.5504719166
Cu      8.5977917939     4.9464763061    17.5352214779
Cu      9.8180311723     7.0732792419    17.5652291326
Cu      8.5887296337     0.6818489185    17.5622894004
Cu      9.8198704023     2.8102806864    17.5669318065
Cu     11.0467122144     4.9420688839    17.5649582379
Cu     12.2739547229     7.0698454278    17.5710451885
O       6.0430558068     2.8915914949    21.1019861058
O       7.4340662619     4.2492881817    19.0662237498
O       6.1665114025     4.2196602427    23.7420264880
C       6.7492082106     4.1180055858    21.4147434735
C       7.8877041374     4.3524079343    20.4260180834
C       7.2709394591     4.0571029550    22.8468104141
H       6.0214945567     4.9482792620    21.3472689681
H       8.6858419672     3.6047276517    20.5878436314
H       8.3210003811     5.3497271447    20.5960319172
H       8.0206453528     4.8553434952    22.9988422945
H       7.7671970697     3.0809652705    22.9972333427
H       6.4559387439     2.5105517397    20.3027392659
H       4.4482744211     2.9293154508    20.4413715605
H       6.4788349214     4.0643067378    24.6486224450
O       3.5597686368     2.8349208459    19.9894904665
H       3.2954859994     1.9083471266    20.1189711818
80
Step 5 | NEB Image 5 | Cartesian Angstrom
Ni      1.2286497034     0.7093615225    11.2499999440
Ni      2.4572989609     2.8374461750    11.2499999440
Ni      3.6859482184     4.9655308275    11.2499999440
Ni      4.9145974759     7.0936154800    11.2499999440
Ni      3.6859497034     0.7093615225    11.2499999440
Ni      4.9145989609     2.8374461750    11.2499999440
Ni      6.1432482184     4.9655308275    11.2499999440
Ni      7.3718974759     7.0936154800    11.2499999440
Ni      6.1432497034     0.7093615225    11.2499999440
Ni      7.3718989609     2.8374461750    11.2499999440
Ni      8.6005482184     4.9655308275    11.2499999440
Ni      9.8291974759     7.0936154800    11.2499999440
Ni      8.6005497034     0.7093615225    11.2499999440
Ni      9.8291989609     2.8374461750    11.2499999440
Ni     11.0578482184     4.9655308275    11.2499999440
Ni     12.2864974759     7.0936154800    11.2499999440
Ni     14.7391156794     8.5053429999    13.3011712910
Ni     11.0531329642     2.1206495503    13.3008022026
Ni     12.2817169557     4.2489790177    13.3006008466
Ni     13.5101985270     6.3773433856    13.3009432678
Ni      7.3672569131     8.5047181091    13.3011774747
Ni      3.6813641840     2.1207833643    13.3007249066
Ni      4.9098915592     4.2493198517    13.3009123494
Ni      6.1382080000     6.3774560890    13.3011137055
Ni      9.8241033938     8.5046823573    13.3010831736
Ni      6.1383369699     2.1207818321    13.3007716707
Ni      7.3668809566     4.2490234521    13.3008056810
Ni      8.5953896076     6.3767159412    13.3009509974
Ni     12.2816608204     8.5051500252    13.3006066438
Ni      8.5958457422     2.1206092019    13.3010364095
Ni      9.8244550440     4.2487038138    13.3007276120
Ni     11.0528529688     6.3769410074    13.3006611374
Cu      2.4478274055     1.4024593708    15.3768195742
Cu      3.6763308468     3.5307009057    15.3768060474
Cu      4.9041378398     5.6597275336    15.3773448005
Cu      6.1330260451     7.7878910103    15.3784795057
Cu      4.9046987540     1.4026027186    15.3777977550
Cu      6.1325026510     3.5313493756    15.3777258697
Cu      7.3610720952     5.6598451741    15.3779276123
Cu      8.5906751295     7.7868954923    15.3785351588
Cu      7.3621786280     1.4037477983    15.3762151195
Cu      8.5904727564     3.5321453644    15.3780682910
Cu      9.8190628915     5.6596863338    15.3769316534
Cu     11.0489115080     7.7874997832    15.3777154348
Cu      9.8196453802     1.4041813317    15.3774700200
Cu     11.0479045662     3.5315147704    15.3771971651
Cu     12.2765483193     5.6595852924    15.3771299176
Cu     13.5054403579     7.7883030926    15.3772814178
Cu      1.2140125591     0.6836803076    17.5697065574
Cu      2.4431555374     2.8116125893    17.5665702724
Cu      3.6705110760     4.9384343512    17.5687388115
Cu      4.8988742539     7.0688538531    17.5715929661
Cu      3.6716454744     0.6829118137    17.5713989532
Cu      4.8981418913     2.8112417067    17.5722074693
Cu      6.1274353048     4.9410331682    17.5708265763
Cu      7.3554752500     7.0698228126    17.5713297733
Cu      6.1297077779     0.6833063606    17.5689100221
Cu      7.3567237656     2.8135682139    17.5698797004
Cu      8.5851063076     4.9421568820    17.5702368079
Cu      9.8152975701     7.0699596058    17.5700617325
Cu      8.5865082080     0.6855771971    17.5667967496
Cu      9.8144914881     2.8135456562    17.5749499312
Cu     11.0427692018     4.9416447797    17.5690866435
Cu     12.2728600100     7.0692517198    17.5719744219
O       5.4816243728     2.5651691502    20.6539118200
O       7.3508896973     4.2099530947    19.0383354809
O       4.4981563510     3.9587391709    22.9072956728
C       5.9290713561     3.8945947838    20.9960208007
C       7.3297021271     4.1881915565    20.4688911028
C       5.8721709119     4.0116672750    22.5089584937
H       5.2340507257     4.6323215466    20.5533350446
H       8.0432145389     3.4244560240    20.8191443760
H       7.6571223136     5.1738780612    20.8354754738
H       6.3359933253     4.9675285031    22.8148914030
H       6.4497260984     3.1808581747    22.9509168945
H       5.8597578631     2.3152772777    19.7784701378
H       3.6583776659     2.5435355524    20.3168147116
H       4.4610770249     3.8064239805    23.8648388416
O       2.7103082747     2.5416543255    20.0177020144
H       2.4292112216     1.6097423068    20.0822731560
