80
Step 1 | NEB Image 1 | Cartesian Angstrom
Ni      1.2286497034     0.7093615225    11.2499999440
Ni      2.4572989609     2.8374461750    11.2499999440
Ni      3.6859482184     4.9655308275    11.2499999440
Ni      4.9145974759     7.0936154800    11.2499999440
Ni      3.6859497034     0.7093615225    11.2499999440
Ni      4.9145989609     2.8374461750    11.2499999440
Ni      6.1432482184     4.9655308275    11.2499999440
Ni      7.3718974759     7.0936154800    11.2499999440
Ni      6.1432497034     0.7093615225    11.2499999440
Ni      7.3718989609     2.8374461750    11.2499999440
Ni      8.6005482184     4.9655308275    11.2499999440
Ni      9.8291974759     7.0936154800    11.2499999440
Ni      8.6005497034     0.7093615225    11.2499999440
Ni      9.8291989609     2.8374461750    11.2499999440
Ni     11.0578482184     4.9655308275    11.2499999440
Ni     12.2864974759     7.0936154800    11.2499999440
Ni     14.7391156794     8.5053429999    13.3011712910
Ni     11.0531329642     2.1206495503    13.3008022026
Ni     12.2817169557     4.2489790177    13.3006008466
Ni     13.5101985270     6.3773433856    13.3009432678
Ni      7.3672569131     8.5047181091    13.3011774747
Ni      3.6813641840     2.1207833643    13.3007249066
Ni      4.9098915592     4.2493198517    13.3009123494
Ni      6.1382080000     6.3774560890    13.3011137055
Ni      9.8241033938     8.5046823573    13.3010831736
Ni      6.1383369699     2.1207818321    13.3007716707
Ni      7.3668809566     4.2490234521    13.3008056810
Ni      8.5953896076     6.3767159412    13.3009509974
Ni     12.2816608204     8.5051500252    13.3006066438
Ni      8.5958457422     2.1206092019    13.3010364095
Ni      9.8244550440     4.2487038138    13.3007276120
Ni     11.0528529688     6.3769410074    13.3006611374
Cu      2.4478274055     1.4024593708    15.3768195742
Cu      3.6763308468     3.5307009057    15.3768060474
Cu      4.9041378398     5.6597275336    15.3773448005
Cu      6.1330260451     7.7878910103    15.3784795057
Cu      4.9046987540     1.4026027186    15.3777977550
Cu      6.1325026510     3.5313493756    15.3777258697
Cu      7.3610720952     5.6598451741    15.3779276123
Cu      8.5906751295     7.7868954923    15.3785351588
Cu      7.3621786280     1.4037477983    15.3762151195
Cu      8.5904727564     3.5321453644    15.3780682910
Cu      9.8190628915     5.6596863338    15.3769316534
Cu     11.0489115080     7.7874997832    15.3777154348
Cu      9.8196453802     1.4041813317    15.3774700200
Cu     11.0479045662     3.5315147704    15.3771971651
Cu     12.2765483193     5.6595852924    15.3771299176
Cu     13.5054403579     7.7883030926    15.3772814178
Cu      1.2140125591     0.6836803076    17.5697065574
Cu      2.4431555374     2.8116125893    17.5665702724
Cu      3.6705110760     4.9384343512    17.5687388115
Cu      4.8988742539     7.0688538531    17.5715929661
Cu      3.6716454744     0.6829118137    17.5713989532
Cu      4.8981418913     2.8112417067    17.5722074693
Cu      6.1274353048     4.9410331682    17.5708265763
Cu      7.3554752500     7.0698228126    17.5713297733
Cu      6.1297077779     0.6833063606    17.5689100221
Cu      7.3567237656     2.8135682139    17.5698797004
Cu      8.5851063076     4.9421568820    17.5702368079
Cu      9.8152975701     7.0699596058    17.5700617325
Cu      8.5865082080     0.6855771971    17.5667967496
Cu      9.8144914881     2.8135456562    17.5749499312
Cu     11.0427692018     4.9416447797    17.5690866435
Cu     12.2728600100     7.0692517198    17.5719744219
O       7.2288202015     4.2734569284    22.3446828621
O       8.3044696405     5.3171068409    20.0014702420
O       8.8891638945     4.8479579810    24.7349733808
C       8.5251333110     4.9000290628    22.3715153937
C       9.1804211035     4.7744357207    20.9993344800
C       9.4189460410     4.3898719266    23.4895992517
H       8.3072385962     5.9614198807    22.5605187870
H       9.4153356173     3.7172718747    20.7683620669
H      10.1139922737     5.3503076003    20.9408546493
H      10.4461642949     4.7683945991    23.3275539960
H       9.4595638267     3.2836247445    23.4537018323
H       7.3561498138     3.3073831923    22.3295378714
H       7.4071380143     4.9636379387    20.1831718691
H       9.4432595602     4.5017937719    25.4528614775
O       2.4447775074     1.3898406800    19.0162048647
H       2.5328987835     1.2730973609    19.9764139723
80
Step 2 | NEB Image 2 | Cartesian Angstrom
Ni      1.2286132127     0.7093359969    11.2499280529
Ni      2.4572449346     2.8374311743    11.2498542714
Ni      3.6858903157     4.9655515561    11.2497952515
Ni      4.9145561463     7.0936758600    11.2497947823
Ni      3.6859157867     0.7093138433    11.2498692169
Ni      4.9145636610     2.8374153770    11.2497692705
Ni      6.1432293851     4.9655505158    11.2497171841
Ni      7.3719029470     7.0936803620    11.2497580463
Ni      6.1432392059     0.7092956295    11.2498213995
Ni      7.3719099964     2.8374066099    11.2497324533
Ni      8.6005858917     4.9655463590    11.2497219590
Ni      9.8292452489     7.0936677009    11.2497956019
Ni      8.6005747953     0.7092939206    11.2498164093
Ni      9.8292537483     2.8374117302    11.2497720739
Ni     11.0579167192     4.9655414220    11.2498001544
Ni     12.2865561050     7.0936485022    11.2498693688
Ni     14.7391879620     8.5053850321    13.3010814254
Ni     11.0533039731     2.1205394670    13.3004010320
Ni     12.2819010090     4.2489701713    13.3002661124
Ni     13.5103289097     6.3773861246    13.3007499918
Ni      7.3672629942     8.5049408316    13.3007421597
Ni      3.6812546710     2.1206802065    13.3002765667
Ni      4.9097636411     4.2493351721    13.3001948744
Ni      6.1381418609     6.3776461658    13.3004123877
Ni      9.8241982519     8.5048532854    13.3007314845
Ni      6.1383080768     2.1206103062    13.3001452242
Ni      7.3669248692     4.2490101118    13.2999558909
Ni      8.5954942239     6.3768797344    13.3002762442
Ni     12.2817667299     8.5052440559    13.3004073850
Ni      8.5959544837     2.1204375449    13.3004278819
Ni      9.8246439182     4.2486858319    13.3000824063
Ni     11.0530259857     6.3770365847    13.3002398896
Cu      2.4475479632     1.4021130804    15.3758483493
Cu      3.6758491641     3.5307945076    15.3747386968
Cu      4.9033516257     5.6604596817    15.3748595515
Cu      6.1327761606     7.7887486059    15.3770593791
Cu      4.9045515802     1.4019260517    15.3763860066
Cu      6.1323305026     3.5308807537    15.3745054403
Cu      7.3612165204     5.6605752750    15.3747134731
Cu      8.5909033377     7.7876480860    15.3771557667
Cu      7.3623311946     1.4028662369    15.3745251656
Cu      8.5910721921     3.5316586970    15.3753105431
Cu      9.8198120246     5.6600795006    15.3748745298
Cu     11.0492848697     7.7878773381    15.3769682961
Cu      9.8200968970     1.4035864635    15.3762669451
Cu     11.0485920022     3.5313088359    15.3759170592
Cu     12.2770407866     5.6597108573    15.3764142369
Cu     13.5056656715     7.7884346972    15.3770136937
Cu      1.2129142860     0.6826960730    17.5686283806
Cu      2.4404410146     2.8225916071    17.5459810874
Cu      3.6649078416     4.9415557050    17.5611538047
Cu      4.8962098882     7.0731117507    17.5668640838
Cu      3.6727273072     0.6801427361    17.5682515681
Cu      4.8947827291     2.8056200292    17.5567798546
Cu      6.1232839939     4.9488931797    17.5352672678
Cu      7.3549786363     7.0760115524    17.5630523828
Cu      6.1296400644     0.6801276793    17.5658740380
Cu      7.3604018307     2.8060260718    17.5533411204
Cu      8.5918320295     4.9434848157    17.5439006281
Cu      9.8172705195     7.0729378567    17.5651622566
Cu      8.5876138118     0.6826099759    17.5635484378
Cu      9.8181274884     2.8104273312    17.5678335285
Cu     11.0460693320     4.9418387140    17.5645120930
Cu     12.2738711210     7.0698517726    17.5708837853
O       6.5419130727     3.7627403980    21.8699547021
O       7.8436173083     5.0812950950    19.8422267667
O       7.5542648184     4.4548968010    24.5722538709
C       7.6810765775     4.5776812827    22.1765445590
C       8.5971253317     4.6327772866    20.9659516872
C       8.4034110444     4.1754659775    23.4428461104
H       7.2439931767     5.5813225006    22.3281911967
H       9.0529882035     3.6466533499    20.7571818442
H       9.4177231793     5.3667514583    21.0907932957
H       9.3462292155     4.7486888220    23.5100344278
H       8.6630453282     3.1006208197    23.3994295104
H       6.8531074842     2.8158147044    21.7898210469
H       6.9727985813     4.5736705364    19.8806267868
H       8.0017366972     4.2121185408    25.3631161695
O       2.4487652070     1.4166756764    18.9802959118
H       2.5174258051     1.3808786686    19.9801861308
80
Step 3 | NEB Image 3 | Cartesian Angstrom
Ni      1.2286015001     0.7093257933    11.2499013372
Ni      2.4572290865     2.8374255966    11.2497943650
Ni      3.6858810374     4.9655638375    11.2497158364
Ni      4.9145564109     7.0937006489    11.2497285422
Ni      3.6859084320     0.7092962498    11.2498181408
Ni      4.9145641989     2.8374085309    11.2496828303
Ni      6.1432410008     4.9655639470    11.2496286265
Ni      7.3719183093     7.0937033454    11.2496945504
Ni      6.1432464318     0.7092760357    11.2497587208
Ni      7.3719295177     2.8374009816    11.2496511371
Ni      8.6006109556     4.9655565972    11.2496513119
Ni      9.8292674192     7.0936839937    11.2497510301
Ni      8.6005934095     0.7092781493    11.2497633057
Ni      9.8292806882     2.8374078790    11.2497155476
Ni     11.0579430668     4.9655478004    11.2497579381
Ni     12.2865751043     7.0936575750    11.2498458823
Ni     14.7392044400     8.5053928124    13.3010717224
Ni     11.0533708867     2.1205251220    13.3003136813
Ni     12.2819585430     4.2489768624    13.3002095140
Ni     13.5103625348     6.3773972886    13.3007251860
Ni      7.3672939552     8.5050077533    13.3006371363
Ni      3.6812176182     2.1206304946    13.3000680499
Ni      4.9097752144     4.2493695197    13.2999038979
Ni      6.1381761766     6.3777249682    13.3002086101
Ni      9.8242408825     8.5048971450    13.3006643820
Ni      6.1383498389     2.1205668221    13.2999024507
Ni      7.3669960142     4.2490360907    13.2997144652
Ni      8.5955587903     6.3769371627    13.3001189301
Ni     12.2817980648     8.5052640533    13.3003792631
Ni      8.5960291244     2.1204082829    13.3002568422
Ni      9.8247290696     4.2486976282    13.2999348516
Ni     11.0530881063     6.3770659190    13.3001636809
Cu      2.4473654474     1.4018964437    15.3756374243
Cu      3.6755428180     3.5308314535    15.3734074289
Cu      4.9034529348     5.6608808414    15.3739392497
Cu      6.1328451828     7.7890195791    15.3766973123
Cu      4.9045271462     1.4014768265    15.3755061428
Cu      6.1327230975     3.5310089824    15.3732897552
Cu      7.3614084860     5.6608629464    15.3739728296
Cu      8.5910551422     7.7878553848    15.3768830430
Cu      7.3625819326     1.4026571492    15.3739239243
Cu      8.5914092604     3.5316203589    15.3746029677
Cu      9.8201519123     5.6602445411    15.3744245562
Cu     11.0494050630     7.7879562891    15.3768803040
Cu      9.8203234566     1.4034845994    15.3759656182
Cu     11.0488400181     3.5313098450    15.3757003294
Cu     12.2771689113     5.6597475974    15.3763495429
Cu     13.5057119566     7.7884546099    15.3769993317
Cu      1.2136854406     0.6833062023    17.5696528890
Cu      2.4378330245     2.8194635976    17.5404050366
Cu      3.6605986271     4.9462891186    17.5518550916
Cu      4.8964978247     7.0748894110    17.5653026001
Cu      3.6709847491     0.6799420089    17.5687751403
Cu      4.8937194835     2.7992910566    17.5355483393
Cu      6.1293334277     4.9530032268    17.5342700240
Cu      7.3555376376     7.0775703742    17.5614890921
Cu      6.1302901233     0.6781301975    17.5635843293
Cu      7.3632790935     2.8069402236    17.5499934657
Cu      8.5972793872     4.9459258789    17.5339794055
Cu      9.8180958975     7.0734702884    17.5648177235
Cu      8.5885965060     0.6817565358    17.5622301465
Cu      9.8198548071     2.8100588854    17.5664844751
Cu     11.0468882659     4.9420539208    17.5645563397
Cu     12.2740197389     7.0698878828    17.5709485284
O       5.9896704646     3.5027827107    21.3441293575
O       7.4886337196     4.3666259978    19.4877272633
O       6.4829430615     4.2951209315    24.1152356924
C       6.9903681105     4.4238864196    21.7944612619
C       8.1670511767     4.4188970609    20.7586012444
C       7.5631933573     4.0427805591    23.1806480928
H       6.5242968113     5.3526731986    21.8104762015
H       8.8349911476     3.5916701712    20.8438391685
H       8.7104104702     5.3648800906    20.7805775616
H       8.4143489382     4.7106424754    23.3715366339
H       7.8837891372     3.0268860134    23.1855587921
H       6.3223664100     2.5547516523    21.3710867031
H       6.5752921905     3.9109686932    19.7057671661
H       6.8267504990     4.0954155131    25.0037588758
O       3.1049818389     1.7965443146    19.1287583053
H       2.3951955302     1.4017570684    19.7393285185
80
Step 4 | NEB Image 4 | Cartesian Angstrom
Ni      1.2286074405     0.7093302863    11.2499098802
Ni      2.4572383330     2.8374293241    11.2498149597
Ni      3.6858907851     4.9655619443    11.2497460478
Ni      4.9145631073     7.0936926751    11.2497575233
Ni      3.6859143268     0.7093040099    11.2498339606
Ni      4.9145704497     2.8374147398    11.2497139395
Ni      6.1432446515     4.9655627116    11.2496669263
Ni      7.3719186992     7.0936957211    11.2497264748
Ni      6.1432493570     0.7092857221    11.2497794139
Ni      7.3719298345     2.8374078474    11.2496841883
Ni      8.6006078843     4.9655561653    11.2496861153
Ni      9.8292628018     7.0936783644    11.2497770483
Ni      8.6005924146     0.7092872152    11.2497839430
Ni      9.8292762284     2.8374133504    11.2497426278
Ni     11.0579364474     4.9655475854    11.2497826916
Ni     12.2865689165     7.0936541047    11.2498626235
Ni     14.7391960568     8.5053878755    13.3010837821
Ni     11.0533567148     2.1205407894    13.3003617058
Ni     12.2819398262     4.2489800337    13.3002525487
Ni     13.5103479085     6.3773928766    13.3007510683
Ni      7.3672960172     8.5049798678    13.3006945802
Ni      3.6812385344     2.1206523604    13.3001292184
Ni      4.9097984103     4.2493729227    13.3000125096
Ni      6.1381873321     6.3777004328    13.3003077205
Ni      9.8242318557     8.5048767682    13.3007107995
Ni      6.1383586460     2.1205971638    13.2999808603
Ni      7.3669940474     4.2490439548    13.2998242090
Ni      8.5955502678     6.3769199881    13.3002058166
Ni     12.2817862990     8.5052528404    13.3004060474
Ni      8.5960237307     2.1204334216    13.3003256086
Ni      9.8247132301     4.2487044880    13.3000136375
Ni     11.0530705443     6.3770563080    13.3002185791
Cu      2.4474133919     1.4019674361    15.3757394539
Cu      3.6756597069     3.5308512011    15.3737563372
Cu      4.9035925220     5.6607580490    15.3743745742
Cu      6.1328866243     7.7889016105    15.3768928305
Cu      4.9045783245     1.4016067541    15.3756698476
Cu      6.1327533594     3.5311261000    15.3737826170
Cu      7.3613930864     5.6607828137    15.3744059628
Cu      8.5910418909     7.7877650857    15.3770688523
Cu      7.3625952780     1.4027789413    15.3740895582
Cu      8.5913812296     3.5317086484    15.3749156116
Cu      9.8200854650     5.6602118677    15.3746955485
Cu     11.0493627016     7.7879090355    15.3769883258
Cu      9.8203026446     1.4035623562    15.3761027083
Cu     11.0487766352     3.5313458405    15.3758700283
Cu     12.2771115787     5.6597348913    15.3764521716
Cu     13.5056841978     7.7884380566    15.3770379145
Cu      1.2136199195     0.6833111269    17.5694759577
Cu      2.4380612696     2.8171303136    17.5446252620
Cu      3.6628699836     4.9459932193    17.5537526543
Cu      4.8969059878     7.0740905382    17.5660466805
Cu      3.6709555090     0.6800791620    17.5686419094
Cu      4.8966794397     2.8022917653    17.5384281196
Cu      6.1279368853     4.9508383631    17.5405462911
Cu      7.3557809031     7.0768319060    17.5625951858
Cu      6.1305197884     0.6784251862    17.5635437884
Cu      7.3627660889     2.8080366361    17.5513409002
Cu      8.5975054653     4.9466282353    17.5376431880
Cu      9.8178634270     7.0730406194    17.5656349346
Cu      8.5887135252     0.6820446045    17.5625187778
Cu      9.8196512993     2.8105240800    17.5675043293
Cu     11.0464480896     4.9420529594    17.5653033502
Cu     12.2738779053     7.0698034766    17.5711209019
O       5.9768647814     3.0076255035    21.0633110278
O       7.4698710964     4.2609191791    19.0462175749
O       6.0825039051     4.2985439342    23.6436608804
C       6.7560590661     4.1675503729    21.3722303753
C       7.9145502340     4.3551281531    20.4120308494
C       7.2360116911     4.0839125482    22.8062786736
H       6.0624861888     5.0452089257    21.2739897458
H       8.6826764370     3.5672202681    20.5826309082
H       8.4014248691     5.3308205683    20.5766352008
H       7.9969709029     4.8586282642    22.9920386635
H       7.6771488935     3.1013224456    22.9709723240
H       6.4562510913     2.5479648227    20.2377956900
H       4.4093266194     2.9401842009    20.3442957052
H       6.3757532103     4.0973170413    24.6129813303
O       3.5016968384     2.7791047222    19.9141612307
H       3.3028075141     1.8216810503    20.0866981412
80
Step 5 | NEB Image 5 | Cartesian Angstrom
Ni      1.2286497034     0.7093615225    11.2499999440
Ni      2.4572989609     2.8374461750    11.2499999440
Ni      3.6859482184     4.9655308275    11.2499999440
Ni      4.9145974759     7.0936154800    11.2499999440
Ni      3.6859497034     0.7093615225    11.2499999440
Ni      4.9145989609     2.8374461750    11.2499999440
Ni      6.1432482184     4.9655308275    11.2499999440
Ni      7.3718974759     7.0936154800    11.2499999440
Ni      6.1432497034     0.7093615225    11.2499999440
Ni      7.3718989609     2.8374461750    11.2499999440
Ni      8.6005482184     4.9655308275    11.2499999440
Ni      9.8291974759     7.0936154800    11.2499999440
Ni      8.6005497034     0.7093615225    11.2499999440
Ni      9.8291989609     2.8374461750    11.2499999440
Ni     11.0578482184     4.9655308275    11.2499999440
Ni     12.2864974759     7.0936154800    11.2499999440
Ni     14.7391156794     8.5053429999    13.3011712910
Ni     11.0531329642     2.1206495503    13.3008022026
Ni     12.2817169557     4.2489790177    13.3006008466
Ni     13.5101985270     6.3773433856    13.3009432678
Ni      7.3672569131     8.5047181091    13.3011774747
Ni      3.6813641840     2.1207833643    13.3007249066
Ni      4.9098915592     4.2493198517    13.3009123494
Ni      6.1382080000     6.3774560890    13.3011137055
Ni      9.8241033938     8.5046823573    13.3010831736
Ni      6.1383369699     2.1207818321    13.3007716707
Ni      7.3668809566     4.2490234521    13.3008056810
Ni      8.5953896076     6.3767159412    13.3009509974
Ni     12.2816608204     8.5051500252    13.3006066438
Ni      8.5958457422     2.1206092019    13.3010364095
Ni      9.8244550440     4.2487038138    13.3007276120
Ni     11.0528529688     6.3769410074    13.3006611374
Cu      2.4478274055     1.4024593708    15.3768195742
Cu      3.6763308468     3.5307009057    15.3768060474
Cu      4.9041378398     5.6597275336    15.3773448005
Cu      6.1330260451     7.7878910103    15.3784795057
Cu      4.9046987540     1.4026027186    15.3777977550
Cu      6.1325026510     3.5313493756    15.3777258697
Cu      7.3610720952     5.6598451741    15.3779276123
Cu      8.5906751295     7.7868954923    15.3785351588
Cu      7.3621786280     1.4037477983    15.3762151195
Cu      8.5904727564     3.5321453644    15.3780682910
Cu      9.8190628915     5.6596863338    15.3769316534
Cu     11.0489115080     7.7874997832    15.3777154348
Cu      9.8196453802     1.4041813317    15.3774700200
Cu     11.0479045662     3.5315147704    15.3771971651
Cu     12.2765483193     5.6595852924    15.3771299176
Cu     13.5054403579     7.7883030926    15.3772814178
Cu      1.2140125591     0.6836803076    17.5697065574
Cu      2.4431555374     2.8116125893    17.5665702724
Cu      3.6705110760     4.9384343512    17.5687388115
Cu      4.8988742539     7.0688538531    17.5715929661
Cu      3.6716454744     0.6829118137    17.5713989532
Cu      4.8981418913     2.8112417067    17.5722074693
Cu      6.1274353048     4.9410331682    17.5708265763
Cu      7.3554752500     7.0698228126    17.5713297733
Cu      6.1297077779     0.6833063606    17.5689100221
Cu      7.3567237656     2.8135682139    17.5698797004
Cu      8.5851063076     4.9421568820    17.5702368079
Cu      9.8152975701     7.0699596058    17.5700617325
Cu      8.5865082080     0.6855771971    17.5667967496
Cu      9.8144914881     2.8135456562    17.5749499312
Cu     11.0427692018     4.9416447797    17.5690866435
Cu     12.2728600100     7.0692517198    17.5719744219
O       5.4816243728     2.5651691502    20.6539118200
O       7.3508896973     4.2099530947    19.0383354809
O       4.4981563510     3.9587391709    22.9072956728
C       5.9290713561     3.8945947838    20.9960208007
C       7.3297021271     4.1881915565    20.4688911028
C       5.8721709119     4.0116672750    22.5089584937
H       5.2340507257     4.6323215466    20.5533350446
H       8.0432145389     3.4244560240    20.8191443760
H       7.6571223136     5.1738780612    20.8354754738
H       6.3359933253     4.9675285031    22.8148914030
H       6.4497260984     3.1808581747    22.9509168945
H       5.8597578631     2.3152772777    19.7784701378
H       3.6583776659     2.5435355524    20.3168147116
H       4.4610770249     3.8064239805    23.8648388416
O       2.7103082747     2.5416543255    20.0177020144
H       2.4292112216     1.6097423068    20.0822731560
