80
Step 1 | NEB Image 1 | Cartesian Angstrom
Ni      1.2286497034     0.7093615225    11.2499999440
Ni      2.4572989609     2.8374461750    11.2499999440
Ni      3.6859482184     4.9655308275    11.2499999440
Ni      4.9145974759     7.0936154800    11.2499999440
Ni      3.6859497034     0.7093615225    11.2499999440
Ni      4.9145989609     2.8374461750    11.2499999440
Ni      6.1432482184     4.9655308275    11.2499999440
Ni      7.3718974759     7.0936154800    11.2499999440
Ni      6.1432497034     0.7093615225    11.2499999440
Ni      7.3718989609     2.8374461750    11.2499999440
Ni      8.6005482184     4.9655308275    11.2499999440
Ni      9.8291974759     7.0936154800    11.2499999440
Ni      8.6005497034     0.7093615225    11.2499999440
Ni      9.8291989609     2.8374461750    11.2499999440
Ni     11.0578482184     4.9655308275    11.2499999440
Ni     12.2864974759     7.0936154800    11.2499999440
Ni     14.7391156794     8.5053429999    13.3011712910
Ni     11.0531329642     2.1206495503    13.3008022026
Ni     12.2817169557     4.2489790177    13.3006008466
Ni     13.5101985270     6.3773433856    13.3009432678
Ni      7.3672569131     8.5047181091    13.3011774747
Ni      3.6813641840     2.1207833643    13.3007249066
Ni      4.9098915592     4.2493198517    13.3009123494
Ni      6.1382080000     6.3774560890    13.3011137055
Ni      9.8241033938     8.5046823573    13.3010831736
Ni      6.1383369699     2.1207818321    13.3007716707
Ni      7.3668809566     4.2490234521    13.3008056810
Ni      8.5953896076     6.3767159412    13.3009509974
Ni     12.2816608204     8.5051500252    13.3006066438
Ni      8.5958457422     2.1206092019    13.3010364095
Ni      9.8244550440     4.2487038138    13.3007276120
Ni     11.0528529688     6.3769410074    13.3006611374
Cu      2.4478274055     1.4024593708    15.3768195742
Cu      3.6763308468     3.5307009057    15.3768060474
Cu      4.9041378398     5.6597275336    15.3773448005
Cu      6.1330260451     7.7878910103    15.3784795057
Cu      4.9046987540     1.4026027186    15.3777977550
Cu      6.1325026510     3.5313493756    15.3777258697
Cu      7.3610720952     5.6598451741    15.3779276123
Cu      8.5906751295     7.7868954923    15.3785351588
Cu      7.3621786280     1.4037477983    15.3762151195
Cu      8.5904727564     3.5321453644    15.3780682910
Cu      9.8190628915     5.6596863338    15.3769316534
Cu     11.0489115080     7.7874997832    15.3777154348
Cu      9.8196453802     1.4041813317    15.3774700200
Cu     11.0479045662     3.5315147704    15.3771971651
Cu     12.2765483193     5.6595852924    15.3771299176
Cu     13.5054403579     7.7883030926    15.3772814178
Cu      1.2140125591     0.6836803076    17.5697065574
Cu      2.4431555374     2.8116125893    17.5665702724
Cu      3.6705110760     4.9384343512    17.5687388115
Cu      4.8988742539     7.0688538531    17.5715929661
Cu      3.6716454744     0.6829118137    17.5713989532
Cu      4.8981418913     2.8112417067    17.5722074693
Cu      6.1274353048     4.9410331682    17.5708265763
Cu      7.3554752500     7.0698228126    17.5713297733
Cu      6.1297077779     0.6833063606    17.5689100221
Cu      7.3567237656     2.8135682139    17.5698797004
Cu      8.5851063076     4.9421568820    17.5702368079
Cu      9.8152975701     7.0699596058    17.5700617325
Cu      8.5865082080     0.6855771971    17.5667967496
Cu      9.8144914881     2.8135456562    17.5749499312
Cu     11.0427692018     4.9416447797    17.5690866435
Cu     12.2728600100     7.0692517198    17.5719744219
O       7.2288202015     4.2734569284    22.3446828621
O       8.3044696405     5.3171068409    20.0014702420
O       8.8891638945     4.8479579810    24.7349733808
C       8.5251333110     4.9000290628    22.3715153937
C       9.1804211035     4.7744357207    20.9993344800
C       9.4189460410     4.3898719266    23.4895992517
H       8.3072385962     5.9614198807    22.5605187870
H       9.4153356173     3.7172718747    20.7683620669
H      10.1139922737     5.3503076003    20.9408546493
H      10.4461642949     4.7683945991    23.3275539960
H       9.4595638267     3.2836247445    23.4537018323
H       7.3561498138     3.3073831923    22.3295378714
H       7.4071380143     4.9636379387    20.1831718691
H       9.4432595602     4.5017937719    25.4528614775
O       2.4447775074     1.3898406800    19.0162048647
H       2.5328987835     1.2730973609    19.9764139723
80
Step 2 | NEB Image 2 | Cartesian Angstrom
Ni      1.2286127079     0.7093355566    11.2499268975
Ni      2.4572442524     2.8374309346    11.2498516816
Ni      3.6858899197     4.9655520888    11.2497918206
Ni      4.9145561630     7.0936769321    11.2497919235
Ni      3.6859154714     0.7093130841    11.2498670075
Ni      4.9145636893     2.8374150840    11.2497655348
Ni      6.1432298932     4.9655510990    11.2497133619
Ni      7.3719036155     7.0936813558    11.2497553093
Ni      6.1432395225     0.7092947847    11.2498186892
Ni      7.3719108458     2.8374063704    11.2497289420
Ni      8.6005869796     4.9655468040    11.2497189132
Ni      9.8292462097     7.0936684052    11.2497936834
Ni      8.6005756042     0.7092932416    11.2498141155
Ni      9.8292549166     2.8374115669    11.2497696362
Ni     11.0579178601     4.9655416993    11.2497983373
Ni     12.2865569266     7.0936488942    11.2498683602
Ni     14.7391886723     8.5053853667    13.3010810127
Ni     11.0533068726     2.1205388552    13.3003972699
Ni     12.2819034971     4.2489704648    13.3002636841
Ni     13.5103303609     6.3773866068    13.3007489330
Ni      7.3672643425     8.5049437208    13.3007376362
Ni      3.6812530756     2.1206780612    13.3002675443
Ni      4.9097641626     4.2493366688    13.3001823022
Ni      6.1381433622     6.3776495745    13.3004036010
Ni      9.8242000992     8.5048551773    13.3007286019
Ni      6.1383099003     2.1206084384    13.3001347252
Ni      7.3669279623     4.2490112480    13.2999454749
Ni      8.5954970258     6.3768822190    13.3002694691
Ni     12.2817680837     8.5052449170    13.3004061827
Ni      8.5959577263     2.1204362917    13.3004204956
Ni      9.8246476098     4.2486863504    13.3000760494
Ni     11.0530286741     6.3770378532    13.3002366175
Cu      2.4475400615     1.4021037124    15.3758392540
Cu      3.6758359298     3.5307961301    15.3746810613
Cu      4.9033561414     5.6604779056    15.3748198597
Cu      6.1327791952     7.7887603007    15.3770437823
Cu      4.9045505573     1.4019066125    15.3763478618
Cu      6.1323476033     3.5308864228    15.3744529447
Cu      7.3612248585     5.6605877256    15.3746815943
Cu      8.5909099306     7.7876570327    15.3771440487
Cu      7.3623421117     1.4028572370    15.3744991419
Cu      8.5910868321     3.5316570982    15.3752800088
Cu      9.8198267573     5.6600866541    15.3748551681
Cu     11.0492900649     7.7878807354    15.3769645529
Cu      9.8201067357     1.4035820932    15.3762539449
Cu     11.0486027410     3.5313089079    15.3759077642
Cu     12.2770463150     5.6597124455    15.3764115029
Cu     13.5056676632     7.7884355504    15.3770130991
Cu      1.2129477787     0.6827226164    17.5686728068
Cu      2.4403277498     2.8224537243    17.5457418313
Cu      3.6647221704     4.9417613691    17.5607508078
Cu      4.8962227313     7.0731884525    17.5667967425
Cu      3.6726514863     0.6801341118    17.5682742386
Cu      4.8947387888     2.8053470711    17.5558585687
Cu      6.1235460439     4.9490702705    17.5352287854
Cu      7.3550031416     7.0760787823    17.5629852453
Cu      6.1296685199     0.6800410226    17.5657744082
Cu      7.3605265863     2.8060666910    17.5531965546
Cu      8.5920691560     4.9435915454    17.5434719309
Cu      9.8173062406     7.0729606814    17.5651479075
Cu      8.5876566485     0.6825730776    17.5634913197
Cu      9.8182024649     2.8104116673    17.5677756427
Cu     11.0461046108     4.9418480744    17.5645146004
Cu     12.2738774750     7.0698532775    17.5708867360
O       6.5350568221     3.7472011114    21.8778981945
O       7.8474696279     5.0986741770    19.8773703440
O       7.5174805480     4.4004181955    24.5854450157
C       7.6685018474     4.5706126783    22.2082490430
C       8.6035179946     4.6443253643    21.0062366432
C       8.3807671479     4.1420606496    23.4772007159
H       7.2339274702     5.5681672733    22.3728880346
H       9.0567033487     3.6570147867    20.7895904808
H       9.4132125413     5.3704760933    21.1517606264
H       9.3227989737     4.7165376580    23.5600337830
H       8.6451664072     3.0692538676    23.4111182753
H       6.8374575675     2.8215580729    21.7983881184
H       6.9944359558     4.6052663323    19.9002893035
H       7.9794512749     4.1529559647    25.4037496444
O       2.4526194093     1.4175664964    18.9960862642
H       2.5194677337     1.3885062441    19.9660425876
80
Step 3 | NEB Image 3 | Cartesian Angstrom
Ni      1.2286007739     0.7093251384    11.2498995178
Ni      2.4572281432     2.8374252801    11.2497903321
Ni      3.6858806263     4.9655647401    11.2497105849
Ni      4.9145566496     7.0937023355    11.2497242851
Ni      3.6859080464     0.7092951211    11.2498146457
Ni      4.9145644446     2.8374081956    11.2496770565
Ni      6.1432420316     4.9655649613    11.2496229205
Ni      7.3719195281     7.0937049016    11.2496906044
Ni      6.1432470944     0.7092748127    11.2497544734
Ni      7.3719310606     2.8374007633    11.2496458287
Ni      8.6006128235     4.9655573869    11.2496468983
Ni      9.8292690095     7.0936850896    11.2497483777
Ni      8.6005948386     0.7092772062    11.2497598083
Ni      9.8292826581     2.8374077548    11.2497119912
Ni     11.0579449199     4.9655482942    11.2497554295
Ni     12.2865763945     7.0936581744    11.2498445833
Ni     14.7392054608     8.5053932625    13.3010713532
Ni     11.0533756788     2.1205245058    13.3003083866
Ni     12.2819624508     4.2489774909    13.3002064713
Ni     13.5103646987     6.3773980215    13.3007240810
Ni      7.3672964531     8.5050120996    13.3006307608
Ni      3.6812153900     2.1206273034    13.3000536702
Ni      4.9097768781     4.2493723272    13.2998845886
Ni      6.1381792339     6.3777303564    13.3001958377
Ni      9.8242439357     8.5048999252    13.3006606248
Ni      6.1383534044     2.1205643959    13.2998859427
Ni      7.3670015359     4.2490383863    13.2996990831
Ni      8.5955635821     6.3769411124    13.3001094076
Ni     12.2818001419     8.5052652583    13.3003779271
Ni      8.5960348089     2.1204068038    13.3002456523
Ni      9.8247352393     4.2486987777    13.2999258316
Ni     11.0530924117     6.3770679092    13.3001594848
Cu      2.4473526785     1.4018817463    15.3756241857
Cu      3.6755225715     3.5308349970    15.3733142673
Cu      4.9034654328     5.6609099099    15.3738811668
Cu      6.1328519509     7.7890370133    15.3766752507
Cu      4.9045268939     1.4014457868    15.3754423926
Cu      6.1327549059     3.5310228624    15.3732103545
Cu      7.3614230562     5.6608829233    15.3739287807
Cu      8.5910666292     7.7878687205    15.3768676799
Cu      7.3626020529     1.4026446982    15.3738821120
Cu      8.5914348117     3.5316202231    15.3745575926
Cu      9.8201764343     5.6602564350    15.3743980499
Cu     11.0494131205     7.7879609494    15.3768769122
Cu      9.8203405667     1.4034791332    15.3759464233
Cu     11.0488574268     3.5313110961    15.3756888380
Cu     12.2771771042     5.6597500683    15.3763478047
Cu     13.5057146868     7.7884556344    15.3769994602
Cu      1.2137438522     0.6833542648    17.5697275649
Cu      2.4376356974     2.8191420555    17.5401046367
Cu      3.6603342454     4.9466511135    17.5511868082
Cu      4.8965337183     7.0750029715    17.5652042283
Cu      3.6708469863     0.6799307143    17.5688119096
Cu      4.8937323643     2.7988918437    17.5339751683
Cu      6.1297629153     4.9532554383    17.5343960453
Cu      7.3555894448     7.0776687197    17.5614023633
Cu      6.1303486369     0.6779829751    17.5634032410
Cu      7.3634882916     2.8070476875    17.5497745003
Cu      8.5977144273     4.9461403949    17.5333197451
Cu      9.8181531314     7.0734981031    17.5648172770
Cu      8.5886774683     0.6816989086    17.5621360414
Cu      9.8199837966     2.8100451020    17.5664117590
Cu     11.0469382322     4.9420707857    17.5645841317
Cu     12.2740267898     7.0698879701    17.5709592229
O       5.9306381105     3.4501054747    21.4368810712
O       7.4381938765     4.3169608028    19.5758489719
O       6.4238533781     4.2645149510    24.2146992924
C       6.9540672131     4.3623152654    21.8897871300
C       8.0816841899     4.4030105196    20.8532685697
C       7.4718543579     4.0450111066    23.2704245265
H       6.4413449606     5.3373766701    21.8974326440
H       8.7878311224     3.5602831770    20.9642336373
H       8.6469999781     5.3437261455    20.8861030751
H       8.3442448810     4.6951980644    23.4706392362
H       7.8248403271     2.9962309242    23.2866418936
H       6.2565942357     2.5318910143    21.5065451726
H       6.5690140524     3.8626880174    19.7640068024
H       6.7518196784     4.0558768897    25.0959940413
O       3.1754703657     1.8395096096    19.1351782880
H       2.4971491110     1.4693671143    19.7338410923
80
Step 4 | NEB Image 4 | Cartesian Angstrom
Ni      1.2286064903     0.7093295642    11.2499084890
Ni      2.4572368598     2.8374287322    11.2498116173
Ni      3.6858892505     4.9655622684    11.2497411657
Ni      4.9145620696     7.0936939731    11.2497528647
Ni      3.6859133944     0.7093027629    11.2498313805
Ni      4.9145694818     2.8374137600    11.2497089007
Ni      6.1432441143     4.9655629366    11.2496607673
Ni      7.3719186769     7.0936969605    11.2497213666
Ni      6.1432489214     0.7092841713    11.2497760493
Ni      7.3719298339     2.8374067688    11.2496788611
Ni      8.6006084229     4.9655562577    11.2496805429
Ni      9.8292635729     7.0936792778    11.2497729030
Ni      8.6005926152     0.7092857702    11.2497806109
Ni      9.8292769869     2.8374124924    11.2497382881
Ni     11.0579375394     4.9655476346    11.2497787483
Ni     12.2865699232     7.0936546654    11.2498599692
Ni     14.7391973977     8.5053886603    13.3010818880
Ni     11.0533590787     2.1205383243    13.3003540418
Ni     12.2819428716     4.2489795586    13.3002457349
Ni     13.5103502601     6.3773935885    13.3007469932
Ni      7.3672957745     8.5049843582    13.3006854116
Ni      3.6812351990     2.1206488462    13.3001192149
Ni      4.9097948422     4.2493724804    13.2999949444
Ni      6.1381856876     6.3777044333    13.3002918454
Ni      9.8242333614     8.5048800369    13.3007034350
Ni      6.1383573842     2.1205923508    13.2999680982
Ni      7.3669945293     4.2490428000    13.2998065915
Ni      8.5955517499     6.3769227940    13.3001919526
Ni     12.2817882013     8.5052546288    13.3004018242
Ni      8.5960247526     2.1204294508    13.3003145202
Ni      9.8247158979     4.2487034536    13.3000010538
Ni     11.0530734219     6.3770578712    13.3002098769
Cu      2.4474055037     1.4019558892    15.3757231084
Cu      3.6756408201     3.5308482308    15.3736989244
Cu      4.9035711290     5.6607781367    15.3743047832
Cu      6.1328803698     7.7889205768    15.3768616126
Cu      4.9045703279     1.4015854902    15.3756422754
Cu      6.1327496430     3.5311082582    15.3737031696
Cu      7.3613959516     5.6607959546    15.3743369582
Cu      8.5910443231     7.7877796032    15.3770393621
Cu      7.3625938321     1.4027595360    15.3740623796
Cu      8.5913864142     3.5316948626    15.3748653728
Cu      9.8200966136     5.6602173445    15.3746524087
Cu     11.0493695691     7.7879165591    15.3769713568
Cu      9.8203064351     1.4035500457    15.3760807015
Cu     11.0487870802     3.5313402614    15.3758431754
Cu     12.2771207874     5.6597369529    15.3764360968
Cu     13.5056886173     7.7884406729    15.3770318960
Cu      1.2136319967     0.6833118802    17.5695059405
Cu      2.4380193930     2.8174843434    17.5439569959
Cu      3.6625070655     4.9460508711    17.5534352926
Cu      4.8968434125     7.0742188339    17.5659274186
Cu      3.6709557106     0.6800573955    17.5686638704
Cu      4.8962178154     2.8018107297    17.5379287836
Cu      6.1281684785     4.9511842730    17.5395705925
Cu      7.3557445714     7.0769502911    17.5624197844
Cu      6.1304857920     0.6783744780    17.5635443819
Cu      7.3628527908     2.8078688955    17.5511236392
Cu      8.5974839525     4.9465253947    17.5370504026
Cu      9.8179015268     7.0731085691    17.5655073584
Cu      8.5886978230     0.6819978137    17.5624707440
Cu      9.8196871505     2.8104510293    17.5673428332
Cu     11.0465183809     4.9420536435    17.5651876262
Cu     12.2739002680     7.0698166547    17.5710943341
O       6.0234962191     2.9476721630    21.0480004511
O       7.4563836158     4.2562240475    19.0444563397
O       6.1420639491     4.2798066322    23.6864133050
C       6.7547386671     4.1558358441    21.3731380738
C       7.9134404111     4.3535050874    20.4013351973
C       7.2551275584     4.0827261902    22.8098547917
H       6.0556183163     5.0041169507    21.2869162807
H       8.6898924012     3.5845046149    20.5670760581
H       8.3748642697     5.3400874298    20.5664834227
H       8.0244419878     4.8622738517    22.9692520891
H       7.7223608378     3.0955462706    22.9680588740
H       6.4416438247     2.5525459174    20.2560434477
H       4.3981991337     2.9414753558    20.4054446263
H       6.4307969817     4.0979348079    24.5971686549
O       3.5020572900     2.8011120658    19.9835110285
H       3.3022893016     1.8525079622    20.0972141715
80
Step 5 | NEB Image 5 | Cartesian Angstrom
Ni      1.2286497034     0.7093615225    11.2499999440
Ni      2.4572989609     2.8374461750    11.2499999440
Ni      3.6859482184     4.9655308275    11.2499999440
Ni      4.9145974759     7.0936154800    11.2499999440
Ni      3.6859497034     0.7093615225    11.2499999440
Ni      4.9145989609     2.8374461750    11.2499999440
Ni      6.1432482184     4.9655308275    11.2499999440
Ni      7.3718974759     7.0936154800    11.2499999440
Ni      6.1432497034     0.7093615225    11.2499999440
Ni      7.3718989609     2.8374461750    11.2499999440
Ni      8.6005482184     4.9655308275    11.2499999440
Ni      9.8291974759     7.0936154800    11.2499999440
Ni      8.6005497034     0.7093615225    11.2499999440
Ni      9.8291989609     2.8374461750    11.2499999440
Ni     11.0578482184     4.9655308275    11.2499999440
Ni     12.2864974759     7.0936154800    11.2499999440
Ni     14.7391156794     8.5053429999    13.3011712910
Ni     11.0531329642     2.1206495503    13.3008022026
Ni     12.2817169557     4.2489790177    13.3006008466
Ni     13.5101985270     6.3773433856    13.3009432678
Ni      7.3672569131     8.5047181091    13.3011774747
Ni      3.6813641840     2.1207833643    13.3007249066
Ni      4.9098915592     4.2493198517    13.3009123494
Ni      6.1382080000     6.3774560890    13.3011137055
Ni      9.8241033938     8.5046823573    13.3010831736
Ni      6.1383369699     2.1207818321    13.3007716707
Ni      7.3668809566     4.2490234521    13.3008056810
Ni      8.5953896076     6.3767159412    13.3009509974
Ni     12.2816608204     8.5051500252    13.3006066438
Ni      8.5958457422     2.1206092019    13.3010364095
Ni      9.8244550440     4.2487038138    13.3007276120
Ni     11.0528529688     6.3769410074    13.3006611374
Cu      2.4478274055     1.4024593708    15.3768195742
Cu      3.6763308468     3.5307009057    15.3768060474
Cu      4.9041378398     5.6597275336    15.3773448005
Cu      6.1330260451     7.7878910103    15.3784795057
Cu      4.9046987540     1.4026027186    15.3777977550
Cu      6.1325026510     3.5313493756    15.3777258697
Cu      7.3610720952     5.6598451741    15.3779276123
Cu      8.5906751295     7.7868954923    15.3785351588
Cu      7.3621786280     1.4037477983    15.3762151195
Cu      8.5904727564     3.5321453644    15.3780682910
Cu      9.8190628915     5.6596863338    15.3769316534
Cu     11.0489115080     7.7874997832    15.3777154348
Cu      9.8196453802     1.4041813317    15.3774700200
Cu     11.0479045662     3.5315147704    15.3771971651
Cu     12.2765483193     5.6595852924    15.3771299176
Cu     13.5054403579     7.7883030926    15.3772814178
Cu      1.2140125591     0.6836803076    17.5697065574
Cu      2.4431555374     2.8116125893    17.5665702724
Cu      3.6705110760     4.9384343512    17.5687388115
Cu      4.8988742539     7.0688538531    17.5715929661
Cu      3.6716454744     0.6829118137    17.5713989532
Cu      4.8981418913     2.8112417067    17.5722074693
Cu      6.1274353048     4.9410331682    17.5708265763
Cu      7.3554752500     7.0698228126    17.5713297733
Cu      6.1297077779     0.6833063606    17.5689100221
Cu      7.3567237656     2.8135682139    17.5698797004
Cu      8.5851063076     4.9421568820    17.5702368079
Cu      9.8152975701     7.0699596058    17.5700617325
Cu      8.5865082080     0.6855771971    17.5667967496
Cu      9.8144914881     2.8135456562    17.5749499312
Cu     11.0427692018     4.9416447797    17.5690866435
Cu     12.2728600100     7.0692517198    17.5719744219
O       5.4816243728     2.5651691502    20.6539118200
O       7.3508896973     4.2099530947    19.0383354809
O       4.4981563510     3.9587391709    22.9072956728
C       5.9290713561     3.8945947838    20.9960208007
C       7.3297021271     4.1881915565    20.4688911028
C       5.8721709119     4.0116672750    22.5089584937
H       5.2340507257     4.6323215466    20.5533350446
H       8.0432145389     3.4244560240    20.8191443760
H       7.6571223136     5.1738780612    20.8354754738
H       6.3359933253     4.9675285031    22.8148914030
H       6.4497260984     3.1808581747    22.9509168945
H       5.8597578631     2.3152772777    19.7784701378
H       3.6583776659     2.5435355524    20.3168147116
H       4.4610770249     3.8064239805    23.8648388416
O       2.7103082747     2.5416543255    20.0177020144
H       2.4292112216     1.6097423068    20.0822731560
