14
Step 1 | ATOMIC_POSITIONS (angstrom) | Cartesian Angstrom
O      12.5883836870    10.9253242651    12.5662825242
O      14.9697997543    12.2898838015    12.0803736224
O      10.1394803566    12.2732378665    12.0779432676
C      12.5485056605    12.2796776210    12.0893992692
C      13.8201943941    12.9776407553    12.5464981686
C      11.2905819469    12.9664926933    12.5580584368
H      12.5572161093    12.1910825338    10.9727136142
H      13.8597782572    13.0100564072    13.6598021516
H      13.8647640819    14.0149226944    12.1810080309
H      11.2584992808    14.0097490208    12.2151436130
H      11.2579819214    12.9574827207    13.6687663306
H      12.5789430482    10.9845899407    13.5443138054
H      14.8974034476    11.3711285334    12.4184428667
H       9.3684670541    12.7487322583    12.4212537987
