14
Step 1 | ATOMIC_POSITIONS (angstrom) | Cartesian Angstrom
O      12.5883836870    10.9253242651    12.5662825242
O      14.9697997543    12.2898838015    12.0803736224
O      10.1394803566    12.2732378665    12.0779432676
C      12.5485056605    12.2796776210    12.0893992692
C      13.8201943941    12.9776407553    12.5464981686
C      11.2905819469    12.9664926933    12.5580584368
H      12.5572161093    12.1910825338    10.9727136142
H      13.8597782572    13.0100564072    13.6598021516
H      13.8647640819    14.0149226944    12.1810080309
H      11.2584992808    14.0097490208    12.2151436130
H      11.2579819214    12.9574827207    13.6687663306
H      12.5789430482    10.9845899407    13.5443138054
H      14.8974034476    11.3711285334    12.4184428667
H       9.3684670541    12.7487322583    12.4212537987
14
Step 2 | ATOMIC_POSITIONS (angstrom) | Cartesian Angstrom
O      12.5927145049    10.9166103960    12.5692896073
O      14.9797238025    12.2887531401    12.0778971363
O      10.1358517245    12.2684225786    12.0712064572
C      12.5436603463    12.2754166372    12.0884732050
C      13.8250136738    12.9772291846    12.5476400223
C      11.2805571759    12.9688755322    12.5619262921
H      12.5564411579    12.1923428726    10.9836653188
H      13.8515008318    13.0141728533    13.6610507977
H      13.8678072493    14.0143622782    12.1789300946
H      11.2649387761    14.0176717879    12.2150149861
H      11.2657510791    12.9616712828    13.6712684257
H      12.5758090971    10.9813277224    13.5411319616
H      14.8949180379    11.3761207800    12.4127905646
H       9.3653115427    12.7470240659    12.4197146308
14
Step 3 | ATOMIC_POSITIONS (angstrom) | Cartesian Angstrom
O      12.5971126953    10.9113559070    12.5677252598
O      14.9867357807    12.2934266063    12.0766320573
O      10.1307521127    12.2691434723    12.0673329514
C      12.5446096314    12.2691224214    12.0903878852
C      13.8273050430    12.9781969499    12.5500304986
C      11.2752622562    12.9702657360    12.5644101078
H      12.5539546839    12.1928616542    10.9947720718
H      13.8421666062    13.0192465621    13.6595327858
H      13.8722235317    14.0114028748    12.1762485070
H      11.2721542427    14.0231602776    12.2162121126
H      11.2729727417    12.9675456484    13.6733962697
H      12.5711186794    10.9751838047    13.5424805963
H      14.8926422740    11.3773546176    12.4053626299
H       9.3609887212    12.7417345795    12.4154757666
14
Step 4 | ATOMIC_POSITIONS (angstrom) | Cartesian Angstrom
O      12.6025519293    10.9066343615    12.5705448877
O      14.9915796657    12.2977761965    12.0793866744
O      10.1309273082    12.2716738864    12.0634386060
C      12.5466742981    12.2647325231    12.0967086115
C      13.8279920422    12.9789747738    12.5506567516
C      11.2745624456    12.9709364341    12.5657074625
H      12.5502227555    12.1923767966    11.0040088034
H      13.8313259430    13.0259865864    13.6583684500
H      13.8775876152    14.0077519691    12.1722804061
H      11.2810960537    14.0261596770    12.2187167244
H      11.2799666479    12.9753810185    13.6753928232
H      12.5644109109    10.9647286167    13.5408741869
H      14.8910282518    11.3806523845    12.3930042854
H       9.3500731330    12.7362358876    12.4109108269
14
Step 5 | ATOMIC_POSITIONS (angstrom) | Cartesian Angstrom
O      12.6106511901    10.9020348257    12.5723374314
O      14.9947826955    12.3070091945    12.0863939011
O      10.1308960692    12.2803907691    12.0616066774
C      12.5493977188    12.2613263466    12.1039191975
C      13.8275527762    12.9793975101    12.5516704744
C      11.2793810265    12.9723395687    12.5694911918
H      12.5444537492    12.1898712943    11.0135449717
H      13.8175896695    13.0364456439    13.6577043266
H      13.8842287880    14.0039957051    12.1651291080
H      11.2942570817    14.0260558188    12.2227992161
H      11.2868377201    12.9868273794    13.6767308601
H      12.5533346785    10.9466885921    13.5430744230
H      14.8894668089    11.3820337442    12.3734546323
H       9.3371690279    12.7255847193    12.4021430888
14
Step 6 | ATOMIC_POSITIONS (angstrom) | Cartesian Angstrom
O      12.6175050235    10.9001188442    12.5743364674
O      14.9956174215    12.3148625397    12.0952974339
O      10.1365430938    12.2888413489    12.0616208085
C      12.5509408387    12.2601106018    12.1090579223
C      13.8253012631    12.9822770703    12.5525256431
C      11.2848926820    12.9737707324    12.5726394818
H      12.5393513148    12.1856314162    11.0159204711
H      13.8085623700    13.0461888029    13.6590328149
H      13.8873581787    14.0022680153    12.1579908502
H      11.3062999717    14.0232196096    12.2259920702
H      11.2890658591    12.9959847040    13.6792801208
H      12.5423888872    10.9286259626    13.5463160157
H      14.8886914145    11.3805721945    12.3547655678
H       9.3274806814    12.7175292694    12.3952238325
14
Step 7 | ATOMIC_POSITIONS (angstrom) | Cartesian Angstrom
O      12.6218165248    10.8995905018    12.5774792903
O      14.9958145874    12.3182590624    12.1034004775
O      10.1397000020    12.2945131592    12.0627821036
C      12.5509797077    12.2605786863    12.1109134042
C      13.8230293996    12.9846117252    12.5537159673
C      11.2891866616    12.9746054715    12.5760572839
H      12.5361152713    12.1811078196    11.0140947386
H      13.8050286818    13.0537871215    13.6614127054
H      13.8863939681    14.0038701919    12.1521726394
H      11.3153097790    14.0215397946    12.2269656167
H      11.2875555696    13.0010655186    13.6825956882
H      12.5338360413    10.9152509409    13.5474226471
H      14.8878499924    11.3791009154    12.3406558053
H       9.3273828134    12.7121202028    12.3903311325
14
Step 8 | ATOMIC_POSITIONS (angstrom) | Cartesian Angstrom
O      12.6257035028    10.8989847201    12.5780024943
O      14.9968618307    12.3219683635    12.1113271710
O      10.1465852750    12.2958040375    12.0620314068
C      12.5504214868    12.2600399842    12.1114309364
C      13.8216316396    12.9878812162    12.5551541962
C      11.2911393528    12.9759805580    12.5800607938
H      12.5334562957    12.1758277311    11.0120321775
H      13.8036536907    13.0619866841    13.6642304363
H      13.8824689818    14.0065980905    12.1465885733
H      11.3245312849    14.0212030470    12.2267721162
H      11.2841035437    13.0044776396    13.6871397822
H      12.5245223733    10.9031071222    13.5498298804
H      14.8855257330    11.3757991930    12.3273207641
H       9.3293940093    12.7103427247    12.3880787716
14
Step 9 | ATOMIC_POSITIONS (angstrom) | Cartesian Angstrom
O      12.6276152650    10.8976574212    12.5793497819
O      14.9988724159    12.3227211917    12.1176083209
O      10.1507797844    12.2939546677    12.0610586966
C      12.5506079845    12.2592558972    12.1120488369
C      13.8211246230    12.9914911712    12.5562576496
C      11.2919317726    12.9771161700    12.5825779684
H      12.5319732263    12.1712554721    11.0109342575
H      13.8049869804    13.0693154962    13.6661608682
H      13.8757148036    14.0092936110    12.1428913812
H      11.3315651214    14.0223029784    12.2255871030
H      11.2790936030    13.0050044065    13.6917925511
H      12.5165618445    10.8955319988    13.5487558005
H      14.8815297588    11.3740422926    12.3173173220
H       9.3376418165    12.7110583372    12.3876589622
14
Step 10 | ATOMIC_POSITIONS (angstrom) | Cartesian Angstrom
O      12.6295696422    10.8950831078    12.5793690979
O      15.0021778183    12.3244723869    12.1234275218
O      10.1556560199    12.2904803516    12.0589326777
C      12.5523816410    12.2574321300    12.1144570133
C      13.8218069396    12.9933458161    12.5577955283
C      11.2931520173    12.9770881157    12.5848557863
H      12.5306166567    12.1671690143    11.0141241752
H      13.8061743915    13.0784105339    13.6664336047
H      13.8675960114    14.0114696378    12.1392189244
H      11.3386962482    14.0241858846    12.2245411083
H      11.2739544915    13.0049849624    13.6951056450
H      12.5069795828    10.8889259248    13.5467510933
H      14.8745698717    11.3734681894    12.3067487203
H       9.3466676680    12.7134850566    12.3882386036
14
Step 11 | ATOMIC_POSITIONS (angstrom) | Cartesian Angstrom
O      12.6317296401    10.8914125146    12.5788941104
O      15.0059141522    12.3266241201    12.1292653266
O      10.1606590193    12.2875078173    12.0568380652
C      12.5558720034    12.2545578254    12.1191000394
C      13.8232808075    12.9959726615    12.5584436692
C      11.2962754581    12.9766043489    12.5859842973
H      12.5295608706    12.1639529893    11.0210393216
H      13.8072299105    13.0892850500    13.6657568258
H      13.8584603359    14.0111869958    12.1358902953
H      11.3455558288    14.0243591623    12.2245405472
H      11.2688286340    13.0045426177    13.6964857743
H      12.4954555282    10.8826498831    13.5437962517
H      14.8648616178    11.3747107585    12.2950127948
H       9.3563151936    12.7166343673    12.3889521814
14
Step 12 | ATOMIC_POSITIONS (angstrom) | Cartesian Angstrom
O      12.6339736974    10.8881886358    12.5791646328
O      15.0084801132    12.3297353520    12.1335293581
O      10.1650278367    12.2871692409    12.0555653906
C      12.5596711736    12.2523343570    12.1242085227
C      13.8244969377    12.9963545688    12.5597346155
C      11.3004009871    12.9744755014    12.5865737331
H      12.5293364100    12.1625843188    11.0281585240
H      13.8077394120    13.0990431416    13.6644650874
H      13.8517490242    14.0102227516    12.1323840547
H      11.3504648448    14.0225910166    12.2255307976
H      11.2657398974    13.0042386455    13.6954506178
H      12.4849788087    10.8773588266    13.5411165805
H      14.8554117793    11.3766316084    12.2850105327
H       9.3625280779    12.7190731467    12.3891070526
14
Step 13 | ATOMIC_POSITIONS (angstrom) | Cartesian Angstrom
O      12.6356712306    10.8865146532    12.5791939439
O      15.0087682938    12.3306243761    12.1351519543
O      10.1669565650    12.2884402579    12.0551099542
C      12.5620448798    12.2508883116    12.1275409585
C      13.8250490892    12.9972669912    12.5599548675
C      11.3035329712    12.9725599212    12.5863919463
H      12.5305950232    12.1633589095    11.0320705926
H      13.8085000636    13.1044756990    13.6642642052
H      13.8487150513    14.0082552606    12.1302614497
H      11.3519557418    14.0193734638    12.2269153127
H      11.2652788987    13.0034351056    13.6935508797
H      12.4785821327    10.8749496944    13.5406505091
H      14.8495291560    11.3792632302    12.2799464425
H       9.3648199033    12.7205952375    12.3889964838
14
Step 14 | ATOMIC_POSITIONS (angstrom) | Cartesian Angstrom
O      12.6374753494    10.8854134371    12.5809654694
O      15.0083094558    12.3327770356    12.1357023000
O      10.1678072067    12.2901808821    12.0545917734
C      12.5633482534    12.2501015906    12.1292415302
C      13.8251181484    12.9977313141    12.5607459844
C      11.3054410346    12.9706678596    12.5864529242
H      12.5326320851    12.1647422212    11.0336915613
H      13.8092417027    13.1084407810    13.6648294494
H      13.8475241534    14.0071015897    12.1276852045
H      11.3529486584    14.0162885059    12.2281718090
H      11.2662702055    13.0026480386    13.6926107263
H      12.4735941295    10.8726552012    13.5403354747
H      14.8451327913    11.3798051575    12.2765049410
H       9.3651558257    12.7214474978    12.3884703523
14
Step 15 | ATOMIC_POSITIONS (angstrom) | Cartesian Angstrom
O      12.6395149248    10.8850658635    12.5824489009
O      15.0066122456    12.3328403805    12.1348370434
O      10.1673415756    12.2915754182    12.0538080578
C      12.5641180765    12.2496187046    12.1300597335
C      13.8247142067    12.9984224252    12.5619340811
C      11.3062564395    12.9680028373    12.5863867239
H      12.5367808039    12.1673270841    11.0333331549
H      13.8114075896    13.1112719077    13.6660187727
H      13.8469668974    14.0064817763    12.1248595816
H      11.3525023821    14.0129547187    12.2292604383
H      11.2684912748    13.0002670145    13.6921015323
H      12.4690695846    10.8719371576    13.5414375106
H      14.8412222545    11.3811210373    12.2752213739
H       9.3650007443    12.7231147864    12.3882925951
14
Step 16 | ATOMIC_POSITIONS (angstrom) | Cartesian Angstrom
O      12.6428499459    10.8846809476    12.5851505422
O      15.0041957597    12.3330794039    12.1335957116
O      10.1658629326    12.2920584772    12.0521683154
C      12.5648358716    12.2488727057    12.1303842053
C      13.8242139549    13.0007755696    12.5630928705
C      11.3061472724    12.9648088890    12.5867177536
H      12.5436731676    12.1705478588    11.0323416891
H      13.8150641820    13.1155904602    13.6682280341
H      13.8457898862    14.0061670310    12.1206393152
H      11.3526100534    14.0094264256    12.2304259788
H      11.2717935368    12.9958647126    13.6930471880
H      12.4619686197    10.8707658893    13.5426784942
H      14.8356023068    11.3814437197    12.2734814582
H       9.3653915103    12.7259190215    12.3880479438
14
Step 17 | ATOMIC_POSITIONS (angstrom) | Cartesian Angstrom
O      12.6452109276    10.8848715851    12.5867347999
O      15.0026264709    12.3322994385    12.1326512487
O      10.1644789311    12.2910282314    12.0512375076
C      12.5652579821    12.2487457344    12.1304029039
C      13.8240166221    13.0023754825    12.5639779615
C      11.3052871196    12.9630033546    12.5869468922
H      12.5489051740    12.1719121834    11.0318336026
H      13.8179536037    13.1184743740    13.6688969890
H      13.8446114568    14.0070413997    12.1179821512
H      11.3528926313    14.0083816329    12.2309960927
H      11.2736473957    12.9916959267    13.6944561262
H      12.4570066221    10.8705933893    13.5429591532
H      14.8320220187    11.3812787110    12.2729277809
H       9.3660820442    12.7282996685    12.3879962905
14
Step 18 | ATOMIC_POSITIONS (angstrom) | Cartesian Angstrom
O      12.6474330584    10.8852333792    12.5876923087
O      15.0018646342    12.3317087840    12.1325535685
O      10.1636142285    12.2898406601    12.0511043782
C      12.5657538438    12.2488411690    12.1307792970
C      13.8241155013    13.0040787612    12.5638818215
C      11.3046632530    12.9621785698    12.5874866227
H      12.5526220254    12.1716927431    11.0324545566
H      13.8196048397    13.1213778581    13.6687240542
H      13.8436152256    14.0079843717    12.1161909300
H      11.3539859339    14.0085432011    12.2317092909
H      11.2745460683    12.9882206772    13.6956742919
H      12.4523800413    10.8698993730    13.5425076797
H      14.8293638538    11.3806224074    12.2718229195
H       9.3664364927    12.7297791568    12.3874177806
14
Step 19 | ATOMIC_POSITIONS (angstrom) | Cartesian Angstrom
O      12.6498399165    10.8861214417    12.5885019563
O      15.0012342308    12.3307630456    12.1324596301
O      10.1629187915    12.2886770570    12.0519603935
C      12.5663408608    12.2493748932    12.1313125551
C      13.8244570747    13.0055524462    12.5634175261
C      11.3042700595    12.9618040383    12.5878944312
H      12.5561598835    12.1705637880    11.0336083034
H      13.8208364480    13.1243526820    13.6675424695
H      13.8431603496    14.0093424127    12.1147529064
H      11.3549840176    14.0090326442    12.2331013894
H      11.2751122739    12.9842434463    13.6966159245
H      12.4475446360    10.8694013345    13.5414046083
H      14.8271321193    11.3798449890    12.2711391980
H       9.3660083381    12.7309268931    12.3862882083
14
Step 20 | ATOMIC_POSITIONS (angstrom) | Cartesian Angstrom
O      12.6526210821    10.8871555246    12.5891892583
O      15.0009339666    12.3300647767    12.1325574232
O      10.1626518507    12.2881248325    12.0535411306
C      12.5671286095    12.2500885279    12.1320894162
C      13.8249888211    13.0070177720    12.5623914421
C      11.3044305043    12.9613920859    12.5886490384
H      12.5590920866    12.1687748776    11.0350276037
H      13.8213886273    13.1277992562    13.6659843604
H      13.8434716214    14.0105934898    12.1133199977
H      11.3559852545    14.0095002943    12.2353822380
H      11.2755311427    12.9804559536    13.6970823286
H      12.4419867849    10.8684580493    13.5401322211
H      14.8250105526    11.3790814302    12.2702574952
H       9.3647780956    12.7314942412    12.3843955466
14
Step 21 | ATOMIC_POSITIONS (angstrom) | Cartesian Angstrom
O      12.6544477325    10.8881710517    12.5897244615
O      15.0007837101    12.3294057548    12.1321401798
O      10.1626233393    12.2879687974    12.0552544972
C      12.5677085164    12.2508082415    12.1322423046
C      13.8256400030    13.0077490415    12.5613527531
C      11.3048253026    12.9611610777    12.5890312534
H      12.5606082232    12.1673493702    11.0355386923
H      13.8216256798    13.1298255632    13.6644979208
H      13.8447613194    14.0114710134    12.1125474688
H      11.3556308083    14.0095254218    12.2379846534
H      11.2757468903    12.9776505614    13.6971206754
H      12.4382405755    10.8684567208    13.5390110178
H      14.8239929038    11.3787512037    12.2709059695
H       9.3633639957    12.7317072925    12.3826476523
14
Step 22 | ATOMIC_POSITIONS (angstrom) | Cartesian Angstrom
O      12.6562687793    10.8888069672    12.5901478140
O      15.0010452316    12.3291558313    12.1318205917
O      10.1630072478    12.2879385898    12.0566123737
C      12.5683718696    12.2512862687    12.1322219583
C      13.8263897047    13.0084503768    12.5602907555
C      11.3054612619    12.9605367405    12.5897795280
H      12.5610914406    12.1660536218    11.0355129038
H      13.8216790692    13.1320419852    13.6633189955
H      13.8464922343    14.0120704786    12.1114169419
H      11.3549486763    14.0093901891    12.2411095705
H      11.2759015058    12.9755217437    13.6972961385
H      12.4340519889    10.8682193584    13.5382309779
H      14.8228726823    11.3787202357    12.2715514030
H       9.3624173076    12.7318087251    12.3806895476
14
Step 23 | ATOMIC_POSITIONS (angstrom) | Cartesian Angstrom
O      12.6580497860    10.8896816225    12.5907913441
O      15.0014395625    12.3285585375    12.1307763362
O      10.1634638541    12.2873258258    12.0580634493
C      12.5690901225    12.2519244534    12.1313438013
C      13.8275843092    13.0091795905    12.5587012481
C      11.3060364539    12.9596053733    12.5907011169
H      12.5607662708    12.1648146243    11.0344301330
H      13.8221072974    13.1339754357    13.6617386993
H      13.8496698506    14.0127558322    12.1100370562
H      11.3525636883    14.0091628025    12.2458564095
H      11.2761485907    12.9726754829    13.6978934579
H      12.4292253821    10.8691401034    13.5371110336
H      14.8220742529    11.3789712158    12.2743764582
H       9.3617795790    12.7322302119    12.3781789565
14
Step 24 | ATOMIC_POSITIONS (angstrom) | Cartesian Angstrom
O      12.6609156381    10.8904189007    12.5916692040
O      15.0023384177    12.3280972728    12.1299765855
O      10.1644926383    12.2858481617    12.0590065582
C      12.5701456724    12.2524331305    12.1302724711
C      13.8291667843    13.0106130974    12.5567061058
C      11.3067376278    12.9579028064    12.5925245491
H      12.5595902424    12.1634225667    11.0329619238
H      13.8229438172    13.1375878438    13.6597716550
H      13.8536983892    14.0136487802    12.1069361987
H      11.3497398403    14.0089262584    12.2526453636
H      11.2766358803    12.9688348633    13.6997133256
H      12.4209162635    10.8696687693    13.5357814020
H      14.8203162112    11.3794364091    12.2774706868
H       9.3623615773    12.7331622514    12.3745634707
14
Step 25 | ATOMIC_POSITIONS (angstrom) | Cartesian Angstrom
O      12.6631614356    10.8913981005    12.5927531621
O      15.0031076274    12.3272089993    12.1289888383
O      10.1655138138    12.2833253853    12.0592413552
C      12.5708942553    12.2531083016    12.1287176119
C      13.8307359721    13.0120930707    12.5543599707
C      11.3068621571    12.9560482080    12.5945874036
H      12.5573376520    12.1628419269    11.0310544499
H      13.8243298772    13.1402940088    13.6575207034
H      13.8581729212    14.0144521793    12.1034621114
H      11.3458620507    14.0089558800    12.2596938659
H      11.2774257081    12.9644580384    13.7022444292
H      12.4130079775    10.8713306776    13.5339443060
H      14.8194622918    11.3799549402    12.2824389608
H       9.3641252602    12.7345313951    12.3709923317
14
Step 26 | ATOMIC_POSITIONS (angstrom) | Cartesian Angstrom
O      12.6656676211    10.8920100942    12.5937263921
O      15.0038055412    12.3268438461    12.1294411111
O      10.1668991945    12.2809989490    12.0585210843
C      12.5714689087    12.2534763205    12.1283596688
C      13.8316382923    13.0137991178    12.5527707261
C      11.3070261294    12.9545005771    12.5967258940
H      12.5551142973    12.1629549299    11.0307074830
H      13.8254966451    13.1439079192    13.6556362439
H      13.8606974417    14.0149857646    12.0989458836
H      11.3442598741    14.0087855511    12.2651077277
H      11.2784846181    12.9606349362    13.7052354803
H      12.4045626603    10.8711459026    13.5324069107
H      14.8181944030    11.3802232864    12.2846345282
H       9.3666833732    12.7357339170    12.3677803662
14
Step 27 | ATOMIC_POSITIONS (angstrom) | Cartesian Angstrom
O      12.6669966211    10.8929896302    12.5946415223
O      15.0041023717    12.3262694884    12.1301297414
O      10.1682429791    12.2789293969    12.0576064437
C      12.5714884479    12.2541787054    12.1284167040
C      13.8320319379    13.0150416860    12.5512015608
C      11.3068576094    12.9533623802    12.5987716145
H      12.5522237773    12.1642345930    11.0309935468
H      13.8264049159    13.1460128427    13.6537705779
H      13.8624676874    14.0149974894    12.0947622197
H      11.3429944441    14.0088025260    12.2688309518
H      11.2798168167    12.9571989640    13.7078239917
H      12.3986253473    10.8713143998    13.5305757839
H      14.8186217787    11.3801615210    12.2873550385
H       9.3691242656    12.7365074887    12.3651198028
14
Step 28 | ATOMIC_POSITIONS (angstrom) | Cartesian Angstrom
O      12.6694205211    10.8941092710    12.5956506593
O      15.0043775348    12.3258982466    12.1316067637
O      10.1701341628    12.2774592376    12.0570459432
C      12.5717669236    12.2549966021    12.1295341430
C      13.8323353964    13.0166255370    12.5497548927
C      11.3073236189    12.9523358223    12.6011132901
H      12.5497511922    12.1658475041    11.0326064189
H      13.8270683671    13.1501031214    13.6516342131
H      13.8633092469    14.0148534693    12.0890511483
H      11.3432906377    14.0082453232    12.2727332195
H      11.2814721904    12.9528674394    13.7106019468
H      12.3902490638    10.8698228342    13.5286189763
H      14.8183833981    11.3798220285    12.2884154279
H       9.3711167461    12.7370146751    12.3616324574
14
Step 29 | ATOMIC_POSITIONS (angstrom) | Cartesian Angstrom
O      12.6710127129    10.8957008714    12.5965086201
O      15.0045204749    12.3251726941    12.1325234777
O      10.1719550077    12.2766367039    12.0573540129
C      12.5718725176    12.2562468375    12.1306756319
C      13.8326759644    13.0176112811    12.5480431280
C      11.3079148134    12.9516337536    12.6034045712
H      12.5468788161    12.1682711586    11.0341672286
H      13.8273733381    13.1533082272    13.6493472302
H      13.8640778908    14.0141867964    12.0837721184
H      11.3432796853    14.0077813330    12.2761333432
H      11.2831023332    12.9483671390    13.7126526346
H      12.3836678720    10.8689656196    13.5263219245
H      14.8197021562    11.3791804865    12.2910313888
H       9.3719654173    12.7369382099    12.3580641900
