14
Step 1 | ATOMIC_POSITIONS (angstrom) | Cartesian Angstrom
O      12.5883836870    10.9253242651    12.5662825242
O      14.9697997543    12.2898838015    12.0803736224
O      10.1394803566    12.2732378665    12.0779432676
C      12.5485056605    12.2796776210    12.0893992692
C      13.8201943941    12.9776407553    12.5464981686
C      11.2905819469    12.9664926933    12.5580584368
H      12.5572161093    12.1910825338    10.9727136142
H      13.8597782572    13.0100564072    13.6598021516
H      13.8647640819    14.0149226944    12.1810080309
H      11.2584992808    14.0097490208    12.2151436130
H      11.2579819214    12.9574827207    13.6687663306
H      12.5789430482    10.9845899407    13.5443138054
H      14.8974034476    11.3711285334    12.4184428667
H       9.3684670541    12.7487322583    12.4212537987
14
Step 2 | ATOMIC_POSITIONS (angstrom) | Cartesian Angstrom
O      12.5927145049    10.9166103960    12.5692896073
O      14.9797238025    12.2887531401    12.0778971363
O      10.1358517245    12.2684225786    12.0712064572
C      12.5436603463    12.2754166372    12.0884732050
C      13.8250136738    12.9772291846    12.5476400223
C      11.2805571759    12.9688755322    12.5619262921
H      12.5564411579    12.1923428726    10.9836653188
H      13.8515008318    13.0141728533    13.6610507977
H      13.8678072493    14.0143622782    12.1789300946
H      11.2649387761    14.0176717879    12.2150149861
H      11.2657510791    12.9616712828    13.6712684257
H      12.5758090971    10.9813277224    13.5411319616
H      14.8949180379    11.3761207800    12.4127905646
H       9.3653115427    12.7470240659    12.4197146308
14
Step 3 | ATOMIC_POSITIONS (angstrom) | Cartesian Angstrom
O      12.5971126953    10.9113559070    12.5677252598
O      14.9867357807    12.2934266063    12.0766320573
O      10.1307521127    12.2691434723    12.0673329514
C      12.5446096314    12.2691224214    12.0903878852
C      13.8273050430    12.9781969499    12.5500304986
C      11.2752622562    12.9702657360    12.5644101078
H      12.5539546839    12.1928616542    10.9947720718
H      13.8421666062    13.0192465621    13.6595327858
H      13.8722235317    14.0114028748    12.1762485070
H      11.2721542427    14.0231602776    12.2162121126
H      11.2729727417    12.9675456484    13.6733962697
H      12.5711186794    10.9751838047    13.5424805963
H      14.8926422740    11.3773546176    12.4053626299
H       9.3609887212    12.7417345795    12.4154757666
14
Step 4 | ATOMIC_POSITIONS (angstrom) | Cartesian Angstrom
O      12.6025519293    10.9066343615    12.5705448877
O      14.9915796657    12.2977761965    12.0793866744
O      10.1309273082    12.2716738864    12.0634386060
C      12.5466742981    12.2647325231    12.0967086115
C      13.8279920422    12.9789747738    12.5506567516
C      11.2745624456    12.9709364341    12.5657074625
H      12.5502227555    12.1923767966    11.0040088034
H      13.8313259430    13.0259865864    13.6583684500
H      13.8775876152    14.0077519691    12.1722804061
H      11.2810960537    14.0261596770    12.2187167244
H      11.2799666479    12.9753810185    13.6753928232
H      12.5644109109    10.9647286167    13.5408741869
H      14.8910282518    11.3806523845    12.3930042854
H       9.3500731330    12.7362358876    12.4109108269
14
Step 5 | ATOMIC_POSITIONS (angstrom) | Cartesian Angstrom
O      12.6106511901    10.9020348257    12.5723374314
O      14.9947826955    12.3070091945    12.0863939011
O      10.1308960692    12.2803907691    12.0616066774
C      12.5493977188    12.2613263466    12.1039191975
C      13.8275527762    12.9793975101    12.5516704744
C      11.2793810265    12.9723395687    12.5694911918
H      12.5444537492    12.1898712943    11.0135449717
H      13.8175896695    13.0364456439    13.6577043266
H      13.8842287880    14.0039957051    12.1651291080
H      11.2942570817    14.0260558188    12.2227992161
H      11.2868377201    12.9868273794    13.6767308601
H      12.5533346785    10.9466885921    13.5430744230
H      14.8894668089    11.3820337442    12.3734546323
H       9.3371690279    12.7255847193    12.4021430888
14
Step 6 | ATOMIC_POSITIONS (angstrom) | Cartesian Angstrom
O      12.6175050235    10.9001188442    12.5743364674
O      14.9956174215    12.3148625397    12.0952974339
O      10.1365430938    12.2888413489    12.0616208085
C      12.5509408387    12.2601106018    12.1090579223
C      13.8253012631    12.9822770703    12.5525256431
C      11.2848926820    12.9737707324    12.5726394818
H      12.5393513148    12.1856314162    11.0159204711
H      13.8085623700    13.0461888029    13.6590328149
H      13.8873581787    14.0022680153    12.1579908502
H      11.3062999717    14.0232196096    12.2259920702
H      11.2890658591    12.9959847040    13.6792801208
H      12.5423888872    10.9286259626    13.5463160157
H      14.8886914145    11.3805721945    12.3547655678
H       9.3274806814    12.7175292694    12.3952238325
14
Step 7 | ATOMIC_POSITIONS (angstrom) | Cartesian Angstrom
O      12.6218165248    10.8995905018    12.5774792903
O      14.9958145874    12.3182590624    12.1034004775
O      10.1397000020    12.2945131592    12.0627821036
C      12.5509797077    12.2605786863    12.1109134042
C      13.8230293996    12.9846117252    12.5537159673
C      11.2891866616    12.9746054715    12.5760572839
H      12.5361152713    12.1811078196    11.0140947386
H      13.8050286818    13.0537871215    13.6614127054
H      13.8863939681    14.0038701919    12.1521726394
H      11.3153097790    14.0215397946    12.2269656167
H      11.2875555696    13.0010655186    13.6825956882
H      12.5338360413    10.9152509409    13.5474226471
H      14.8878499924    11.3791009154    12.3406558053
H       9.3273828134    12.7121202028    12.3903311325
14
Step 8 | ATOMIC_POSITIONS (angstrom) | Cartesian Angstrom
O      12.6257035028    10.8989847201    12.5780024943
O      14.9968618307    12.3219683635    12.1113271710
O      10.1465852750    12.2958040375    12.0620314068
C      12.5504214868    12.2600399842    12.1114309364
C      13.8216316396    12.9878812162    12.5551541962
C      11.2911393528    12.9759805580    12.5800607938
H      12.5334562957    12.1758277311    11.0120321775
H      13.8036536907    13.0619866841    13.6642304363
H      13.8824689818    14.0065980905    12.1465885733
H      11.3245312849    14.0212030470    12.2267721162
H      11.2841035437    13.0044776396    13.6871397822
H      12.5245223733    10.9031071222    13.5498298804
H      14.8855257330    11.3757991930    12.3273207641
H       9.3293940093    12.7103427247    12.3880787716
14
Step 9 | ATOMIC_POSITIONS (angstrom) | Cartesian Angstrom
O      12.6276152650    10.8976574212    12.5793497819
O      14.9988724159    12.3227211917    12.1176083209
O      10.1507797844    12.2939546677    12.0610586966
C      12.5506079845    12.2592558972    12.1120488369
C      13.8211246230    12.9914911712    12.5562576496
C      11.2919317726    12.9771161700    12.5825779684
H      12.5319732263    12.1712554721    11.0109342575
H      13.8049869804    13.0693154962    13.6661608682
H      13.8757148036    14.0092936110    12.1428913812
H      11.3315651214    14.0223029784    12.2255871030
H      11.2790936030    13.0050044065    13.6917925511
H      12.5165618445    10.8955319988    13.5487558005
H      14.8815297588    11.3740422926    12.3173173220
H       9.3376418165    12.7110583372    12.3876589622
14
Step 10 | ATOMIC_POSITIONS (angstrom) | Cartesian Angstrom
O      12.6295696422    10.8950831078    12.5793690979
O      15.0021778183    12.3244723869    12.1234275218
O      10.1556560199    12.2904803516    12.0589326777
C      12.5523816410    12.2574321300    12.1144570133
C      13.8218069396    12.9933458161    12.5577955283
C      11.2931520173    12.9770881157    12.5848557863
H      12.5306166567    12.1671690143    11.0141241752
H      13.8061743915    13.0784105339    13.6664336047
H      13.8675960114    14.0114696378    12.1392189244
H      11.3386962482    14.0241858846    12.2245411083
H      11.2739544915    13.0049849624    13.6951056450
H      12.5069795828    10.8889259248    13.5467510933
H      14.8745698717    11.3734681894    12.3067487203
H       9.3466676680    12.7134850566    12.3882386036
14
Step 11 | ATOMIC_POSITIONS (angstrom) | Cartesian Angstrom
O      12.6317296401    10.8914125146    12.5788941104
O      15.0059141522    12.3266241201    12.1292653266
O      10.1606590193    12.2875078173    12.0568380652
C      12.5558720034    12.2545578254    12.1191000394
C      13.8232808075    12.9959726615    12.5584436692
C      11.2962754581    12.9766043489    12.5859842973
H      12.5295608706    12.1639529893    11.0210393216
H      13.8072299105    13.0892850500    13.6657568258
H      13.8584603359    14.0111869958    12.1358902953
H      11.3455558288    14.0243591623    12.2245405472
H      11.2688286340    13.0045426177    13.6964857743
H      12.4954555282    10.8826498831    13.5437962517
H      14.8648616178    11.3747107585    12.2950127948
H       9.3563151936    12.7166343673    12.3889521814
14
Step 12 | ATOMIC_POSITIONS (angstrom) | Cartesian Angstrom
O      12.6339736974    10.8881886358    12.5791646328
O      15.0084801132    12.3297353520    12.1335293581
O      10.1650278367    12.2871692409    12.0555653906
C      12.5596711736    12.2523343570    12.1242085227
C      13.8244969377    12.9963545688    12.5597346155
C      11.3004009871    12.9744755014    12.5865737331
H      12.5293364100    12.1625843188    11.0281585240
H      13.8077394120    13.0990431416    13.6644650874
H      13.8517490242    14.0102227516    12.1323840547
H      11.3504648448    14.0225910166    12.2255307976
H      11.2657398974    13.0042386455    13.6954506178
H      12.4849788087    10.8773588266    13.5411165805
H      14.8554117793    11.3766316084    12.2850105327
H       9.3625280779    12.7190731467    12.3891070526
14
Step 13 | ATOMIC_POSITIONS (angstrom) | Cartesian Angstrom
O      12.6356712306    10.8865146532    12.5791939439
O      15.0087682938    12.3306243761    12.1351519543
O      10.1669565650    12.2884402579    12.0551099542
C      12.5620448798    12.2508883116    12.1275409585
C      13.8250490892    12.9972669912    12.5599548675
C      11.3035329712    12.9725599212    12.5863919463
H      12.5305950232    12.1633589095    11.0320705926
H      13.8085000636    13.1044756990    13.6642642052
H      13.8487150513    14.0082552606    12.1302614497
H      11.3519557418    14.0193734638    12.2269153127
H      11.2652788987    13.0034351056    13.6935508797
H      12.4785821327    10.8749496944    13.5406505091
H      14.8495291560    11.3792632302    12.2799464425
H       9.3648199033    12.7205952375    12.3889964838
14
Step 14 | ATOMIC_POSITIONS (angstrom) | Cartesian Angstrom
O      12.6374753494    10.8854134371    12.5809654694
O      15.0083094558    12.3327770356    12.1357023000
O      10.1678072067    12.2901808821    12.0545917734
C      12.5633482534    12.2501015906    12.1292415302
C      13.8251181484    12.9977313141    12.5607459844
C      11.3054410346    12.9706678596    12.5864529242
H      12.5326320851    12.1647422212    11.0336915613
H      13.8092417027    13.1084407810    13.6648294494
H      13.8475241534    14.0071015897    12.1276852045
H      11.3529486584    14.0162885059    12.2281718090
H      11.2662702055    13.0026480386    13.6926107263
H      12.4735941295    10.8726552012    13.5403354747
H      14.8451327913    11.3798051575    12.2765049410
H       9.3651558257    12.7214474978    12.3884703523
14
Step 15 | ATOMIC_POSITIONS (angstrom) | Cartesian Angstrom
O      12.6395149248    10.8850658635    12.5824489009
O      15.0066122456    12.3328403805    12.1348370434
O      10.1673415756    12.2915754182    12.0538080578
C      12.5641180765    12.2496187046    12.1300597335
C      13.8247142067    12.9984224252    12.5619340811
C      11.3062564395    12.9680028373    12.5863867239
H      12.5367808039    12.1673270841    11.0333331549
H      13.8114075896    13.1112719077    13.6660187727
H      13.8469668974    14.0064817763    12.1248595816
H      11.3525023821    14.0129547187    12.2292604383
H      11.2684912748    13.0002670145    13.6921015323
H      12.4690695846    10.8719371576    13.5414375106
H      14.8412222545    11.3811210373    12.2752213739
H       9.3650007443    12.7231147864    12.3882925951
14
Step 16 | ATOMIC_POSITIONS (angstrom) | Cartesian Angstrom
O      12.6428499459    10.8846809476    12.5851505422
O      15.0041957597    12.3330794039    12.1335957116
O      10.1658629326    12.2920584772    12.0521683154
C      12.5648358716    12.2488727057    12.1303842053
C      13.8242139549    13.0007755696    12.5630928705
C      11.3061472724    12.9648088890    12.5867177536
H      12.5436731676    12.1705478588    11.0323416891
H      13.8150641820    13.1155904602    13.6682280341
H      13.8457898862    14.0061670310    12.1206393152
H      11.3526100534    14.0094264256    12.2304259788
H      11.2717935368    12.9958647126    13.6930471880
H      12.4619686197    10.8707658893    13.5426784942
H      14.8356023068    11.3814437197    12.2734814582
H       9.3653915103    12.7259190215    12.3880479438
14
Step 17 | ATOMIC_POSITIONS (angstrom) | Cartesian Angstrom
O      12.6452109276    10.8848715851    12.5867347999
O      15.0026264709    12.3322994385    12.1326512487
O      10.1644789311    12.2910282314    12.0512375076
C      12.5652579821    12.2487457344    12.1304029039
C      13.8240166221    13.0023754825    12.5639779615
C      11.3052871196    12.9630033546    12.5869468922
H      12.5489051740    12.1719121834    11.0318336026
H      13.8179536037    13.1184743740    13.6688969890
H      13.8446114568    14.0070413997    12.1179821512
H      11.3528926313    14.0083816329    12.2309960927
H      11.2736473957    12.9916959267    13.6944561262
H      12.4570066221    10.8705933893    13.5429591532
H      14.8320220187    11.3812787110    12.2729277809
H       9.3660820442    12.7282996685    12.3879962905
14
Step 18 | ATOMIC_POSITIONS (angstrom) | Cartesian Angstrom
O      12.6474330584    10.8852333792    12.5876923087
O      15.0018646342    12.3317087840    12.1325535685
O      10.1636142285    12.2898406601    12.0511043782
C      12.5657538438    12.2488411690    12.1307792970
C      13.8241155013    13.0040787612    12.5638818215
C      11.3046632530    12.9621785698    12.5874866227
H      12.5526220254    12.1716927431    11.0324545566
H      13.8196048397    13.1213778581    13.6687240542
H      13.8436152256    14.0079843717    12.1161909300
H      11.3539859339    14.0085432011    12.2317092909
H      11.2745460683    12.9882206772    13.6956742919
H      12.4523800413    10.8698993730    13.5425076797
H      14.8293638538    11.3806224074    12.2718229195
H       9.3664364927    12.7297791568    12.3874177806
14
Step 19 | ATOMIC_POSITIONS (angstrom) | Cartesian Angstrom
O      12.6498399165    10.8861214417    12.5885019563
O      15.0012342308    12.3307630456    12.1324596301
O      10.1629187915    12.2886770570    12.0519603935
C      12.5663408608    12.2493748932    12.1313125551
C      13.8244570747    13.0055524462    12.5634175261
C      11.3042700595    12.9618040383    12.5878944312
H      12.5561598835    12.1705637880    11.0336083034
H      13.8208364480    13.1243526820    13.6675424695
H      13.8431603496    14.0093424127    12.1147529064
H      11.3549840176    14.0090326442    12.2331013894
H      11.2751122739    12.9842434463    13.6966159245
H      12.4475446360    10.8694013345    13.5414046083
H      14.8271321193    11.3798449890    12.2711391980
H       9.3660083381    12.7309268931    12.3862882083
