14
Step 1 | ATOMIC_POSITIONS (angstrom) | Cartesian Angstrom
O      12.5885440286    10.9253945730    12.5661408170
O      14.9697279823    12.2900395230    12.0804792081
O      10.1395471625    12.2734328374    12.0780486149
C      12.5486163457    12.2797618667    12.0895325085
C      13.8200888438    12.9774291967    12.5464963793
C      11.2906534556    12.9663098671    12.5580541968
H      12.5572302359    12.1910234371    10.9727899332
H      13.8599330918    13.0099671345    13.6596348761
H      13.8649024849    14.0148529258    12.1809907815
H      11.2582910908    14.0096232900    12.2151331451
H      11.2577855238    12.9574387976    13.6686054207
H      12.5789432722    10.9847042626    13.5443206277
H      14.8972523981    11.3711933176    12.4184744230
H       9.3684830843    12.7488300824    12.4212985681
14
Step 2 | ATOMIC_POSITIONS (angstrom) | Cartesian Angstrom
O      12.5930204808    10.9168088314    12.5691229471
O      14.9795031467    12.2889916895    12.0781296338
O      10.1359746327    12.2687375780    12.0714219116
C      12.5438982409    12.2755306744    12.0885803007
C      13.8248241121    12.9770444862    12.5476171475
C      11.2807747508    12.9686276998    12.5618982865
H      12.5564853086    12.1922245144    10.9837709508
H      13.8519209002    13.0139291808    13.6607490217
H      13.8680606735    14.0141412769    12.1789536793
H      11.2644321353    14.0172803461    12.2150189476
H      11.2652420963    12.9615271028    13.6709673240
H      12.5758443490    10.9815901392    13.5410405339
H      14.8946209562    11.3762916564    12.4128816149
H       9.3653972169    12.7472759359    12.4198472009
14
Step 3 | ATOMIC_POSITIONS (angstrom) | Cartesian Angstrom
O      12.5977481789    10.9115793089    12.5675265049
O      14.9865387832    12.2936929210    12.0769517514
O      10.1308313590    12.2694841998    12.0675283684
C      12.5448624627    12.2692241462    12.0904615145
C      13.8271234919    12.9780515577    12.5500068744
C      11.2754541505    12.9699711250    12.5643886623
H      12.5540477957    12.1926880717    10.9950051595
H      13.8427930622    13.0188593911    13.6591561950
H      13.8726670941    14.0110717022    12.1762588249
H      11.2713755020    14.0226012138    12.2161979939
H      11.2721985935    12.9673129615    13.6730199588
H      12.5711615438    10.9756021908    13.5422869298
H      14.8920849718    11.3776398406    12.4054817029
H       9.3611120109    12.7422224813    12.4157290591
14
Step 4 | ATOMIC_POSITIONS (angstrom) | Cartesian Angstrom
O      12.6035588157    10.9069175630    12.5703186478
O      14.9914000241    12.2980312301    12.0797352369
O      10.1308628135    12.2719919102    12.0636562953
C      12.5469245821    12.2649406715    12.0967414116
C      13.8278528854    12.9788386327    12.5505830948
C      11.2746963152    12.9704922128    12.5656359494
H      12.5504258216    12.1921422594    11.0041682622
H      13.8323288573    13.0253459074    13.6580075831
H      13.8782041614    14.0074331209    12.1722984377
H      11.2798747936    14.0254171958    12.2186286606
H      11.2787649614    12.9749266417    13.6749851834
H      12.5645402177    10.9654520084    13.5405823163
H      14.8901296462    11.3810015489    12.3933055833
H       9.3504351047    12.7370702089    12.4113528375
14
Step 5 | ATOMIC_POSITIONS (angstrom) | Cartesian Angstrom
O      12.6122944058    10.9023325989    12.5720877268
O      14.9947499841    12.3072044933    12.0867579792
O      10.1305526148    12.2805649592    12.0617075986
C      12.5497074388    12.2615610506    12.1039516248
C      13.8275855348    12.9793815938    12.5515566277
C      11.2792894809    12.9716831640    12.5693679197
H      12.5447772245    12.1895812915    11.0136844033
H      13.8189527238    13.0355511306    13.6573937591
H      13.8851715892    14.0037462994    12.1651177759
H      11.2925431071    14.0251654993    12.2226251739
H      11.2851474054    12.9861307988    13.6763672816
H      12.5535130003    10.9477161839    13.5426828204
H      14.8880254723    11.3824773369    12.3738714560
H       9.3376890180    12.7269047114    12.4028273529
14
Step 6 | ATOMIC_POSITIONS (angstrom) | Cartesian Angstrom
O      12.6199400159    10.9004198818    12.5741897151
O      14.9957115417    12.3152119081    12.0958313152
O      10.1359539239    12.2891085583    12.0616003397
C      12.5514529459    12.2603034402    12.1092091846
C      13.8254976271    12.9824427648    12.5524793051
C      11.2847398268    12.9729296304    12.5725810466
H      12.5396294397    12.1852527666    11.0162203706
H      13.8098268703    13.0454296297    13.6587445618
H      13.8887579773    14.0021138769    12.1577605021
H      11.3045814043    14.0221742505    12.2258595204
H      11.2871519307    12.9953485711    13.6789774603
H      12.5423106402    10.9293278476    13.5459680163
H      14.8867336316    11.3809672577    12.3547250199
H       9.3277112246    12.7189707280    12.3958531424
14
Step 7 | ATOMIC_POSITIONS (angstrom) | Cartesian Angstrom
O      12.6248125344    10.8998993879    12.5774294854
O      14.9959821915    12.3185528228    12.1040643541
O      10.1389027967    12.2948760825    12.0627138050
C      12.5516232019    12.2607784681    12.1111643859
C      13.8233259717    12.9849988814    12.5536874865
C      11.2889973706    12.9736525208    12.5760548260
H      12.5363659267    12.1806914290    11.0144878145
H      13.8061265723    13.0532679356    13.6611756261
H      13.8880923946    14.0038609034    12.1518106410
H      11.3137318239    14.0203970751    12.2268819310
H      11.2855659751    13.0004662853    13.6823346648
H      12.5335505606    10.9155818697    13.5471650418
H      14.8855544590    11.3794224528    12.3401892237
H       9.3273672210    12.7135549972    12.3908402138
14
Step 8 | ATOMIC_POSITIONS (angstrom) | Cartesian Angstrom
O      12.6291887753    10.8993355139    12.5781376670
O      14.9970262115    12.3221886732    12.1120923582
O      10.1456952900    12.2962085163    12.0619504165
C      12.5511360847    12.2602727504    12.1117431580
C      13.8220228381    12.9884631811    12.5551416789
C      11.2908987415    12.9749472555    12.5801115737
H      12.5337218476    12.1754062414    11.0124874692
H      13.8045859289    13.0618161519    13.6640200927
H      13.8844003666    14.0068166821    12.1461426576
H      11.3231698535    14.0199740550    12.2267334631
H      11.2820797279    13.0038515307    13.6869015703
H      12.5240593633    10.9030353452    13.5495966530
H      14.8828965803    11.3758943599    12.3264648257
H       9.3291173908    12.7117908551    12.3884759161
14
Step 9 | ATOMIC_POSITIONS (angstrom) | Cartesian Angstrom
O      12.6313152323    10.8980944515    12.5795665061
O      14.9989399754    12.3226872142    12.1183620467
O      10.1498201162    12.2942806745    12.0610266563
C      12.5513023569    12.2595482187    12.1123715881
C      13.8215616736    12.9922047281    12.5562242969
C      11.2916288337    12.9760525623    12.5826295111
H      12.5323396894    12.1709040446    11.0113691374
H      13.8058769565    13.0694690324    13.6659332306
H      13.8777302207    14.0097513646    12.1425154875
H      11.3303446419    14.0210353754    12.2255647583
H      11.2770717715    13.0042093709    13.6915360188
H      12.5160989197    10.8952747381    13.5485597686
H      14.8786721720    11.3739428043    12.3163471652
H       9.3372964402    12.7125465322    12.3879933285
14
Step 10 | ATOMIC_POSITIONS (angstrom) | Cartesian Angstrom
O      12.6334887027    10.8956009028    12.5796742183
O      15.0020981878    12.3242107049    12.1242422235
O      10.1547006591    12.2906962119    12.0589691033
C      12.5530568415    12.2578014711    12.1147974734
C      13.8222399654    12.9942088359    12.5577221518
C      11.2928184773    12.9759804201    12.5849387777
H      12.5311014222    12.1668591290    11.0145732995
H      13.8070822259    13.0790427857    13.6661725889
H      13.8696381169    14.0121334640    12.1389015149
H      11.3376818882    14.0228934221    12.2245271380
H      11.2718840254    13.0039780555    13.6948606970
H      12.5064554674    10.8884213163    13.5465423079
H      14.8713557488    11.3731557895    12.3055939238
H       9.3463972714    12.7150186029    12.3884840821
14
Step 11 | ATOMIC_POSITIONS (angstrom) | Cartesian Angstrom
O      12.6358695192    10.8919804546    12.5792479407
O      15.0056566372    12.3261442001    12.1302264193
O      10.1598561674    12.2875340107    12.0569161094
C      12.5565775811    12.2549911226    12.1195475813
C      13.8236830601    12.9969931341    12.5583767789
C      11.2959884452    12.9754515884    12.5861127638
H      12.5301723946    12.1636443049    11.0215710659
H      13.8082389551    13.0906022329    13.6654189593
H      13.8604109522    14.0120271495    12.1355650663
H      11.3448170641    14.0230225803    12.2245462321
H      11.2666175809    13.0032731681    13.6963009894
H      12.4947449558    10.8818393881    13.5434934739
H      14.8610590808    11.3742185989    12.2935599066
H       9.3563066063    12.7182791785    12.3891162130
14
Step 12 | ATOMIC_POSITIONS (angstrom) | Cartesian Angstrom
O      12.6383665616    10.8886694917    12.5795427204
O      15.0081357322    12.3291931970    12.1347317645
O      10.1644342880    12.2870746626    12.0556238822
C      12.5605110779    12.2527379167    12.1248765321
C      13.8248972563    12.9975168791    12.5597028306
C      11.3002735391    12.9732288259    12.5868233005
H      12.5300154599    12.1622337227    11.0289624221
H      13.8088258915    13.1011615580    13.6640792313
H      13.8535270859    14.0111148173    12.1318748285
H      11.3500669685    14.0212007143    12.2255973241
H      11.2633618619    13.0028106656    13.6953415759
H      12.4838664262    10.8761411694    13.5406359972
H      14.8508391082    11.3761086853    12.2830535261
H       9.3628777428    12.7208088060    12.3891535644
14
Step 13 | ATOMIC_POSITIONS (angstrom) | Cartesian Angstrom
O      12.6401743741    10.8869124969    12.5795312966
O      15.0083495695    12.3300554772    12.1365045080
O      10.1665649641    12.2883291037    12.0551386205
C      12.5629931616    12.2512411574    12.1283771067
C      13.8254517913    12.9985218327    12.5599715648
C      11.3035630399    12.9712456572    12.5867116957
H      12.5313108705    12.1630209069    11.0330525607
H      13.8096569448    13.1070395624    13.6638740249
H      13.8503883509    14.0090651131    12.1295319011
H      11.3516944486    14.0178763932    12.2270753231
H      11.2628409020    13.0019478406    13.6934890987
H      12.4772196053    10.8735221115    13.5400454762
H      14.8444520715    11.3788436303    12.2777350357
H       9.3653389062    12.7223798287    12.3889612870
14
Step 14 | ATOMIC_POSITIONS (angstrom) | Cartesian Angstrom
O      12.6420572248    10.8857467672    12.5813292633
O      15.0078506329    12.3322572651    12.1371886433
O      10.1675398926    12.2901357077    12.0545881596
C      12.5643756396    12.2504333557    12.1301750302
C      13.8255167943    12.9990444148    12.5608312396
C      11.3055871029    12.9692820044    12.5868621164
H      12.5333646911    12.1644388331    11.0347637076
H      13.8104436676    13.1112789117    13.6644740666
H      13.8491659825    14.0078251721    12.1266742084
H      11.3527569875    14.0146892255    12.2284326860
H      11.2638327430    13.0011666273    13.6926126857
H      12.4720709116    10.8710524522    13.5396088382
H      14.8396763759    11.3794370342    12.2741332434
H       9.3657603538    12.7232133408    12.3883256117
14
Step 15 | ATOMIC_POSITIONS (angstrom) | Cartesian Angstrom
O      12.6439753288    10.8854111944    12.5827101853
O      15.0060990924    12.3322513468    12.1363261861
O      10.1671547728    12.2915176856    12.0537747724
C      12.5651309643    12.2499726456    12.1309654270
C      13.8251032598    12.9997278795    12.5620391513
C      11.3064024104    12.9666220786    12.5868779789
H      12.5374827700    12.1671055661    11.0343678605
H      13.8126635326    13.1140532240    13.6657054336
H      13.8486387034    14.0071005476    12.1236414885
H      11.3521955606    14.0113797700    12.2296067890
H      11.2661201533    12.9988166079    13.6921895564
H      12.4677379528    10.8704148801    13.5406198858
H      14.8356782254    11.3808102704    12.2731011656
H       9.3656162735    12.7248174150    12.3880736196
14
Step 16 | ATOMIC_POSITIONS (angstrom) | Cartesian Angstrom
O      12.6471758938    10.8850604047    12.5852682301
O      15.0036006746    12.3323798956    12.1350793946
O      10.1657403177    12.2919842680    12.0520945457
C      12.5658089908    12.2492814919    12.1312456314
C      13.8245859315    13.0021095489    12.5632058985
C      11.3062761811    12.9634307806    12.5872990814
H      12.5444017909    12.1705274929    11.0333020026
H      13.8164207148    13.1183463065    13.6679801793
H      13.8474866564    14.0066282868    12.1190801424
H      11.3521393164    14.0078547383    12.2309425385
H      11.2695780419    12.9944059042    13.6932832727
H      12.4608793228    10.8693352077    13.5417646582
H      14.8298854186    11.3811226366    12.2717604209
H       9.3660197486    12.7275341488    12.3876935037
14
Step 17 | ATOMIC_POSITIONS (angstrom) | Cartesian Angstrom
O      12.6493951344    10.8853228364    12.5867506924
O      15.0019566903    12.3314673265    12.1340987672
O      10.1643819538    12.2908945945    12.0511705422
C      12.5661839920    12.2492368530    12.1312046029
C      13.8243880670    13.0036792542    12.5640686236
C      11.3053774440    12.9616207473    12.5875603339
H      12.5496784406    12.1720928829    11.0327217143
H      13.8194088116    13.1211955349    13.6686274250
H      13.8462917351    14.0074256492    12.1162524668
H      11.3522580137    14.0068420328    12.2316384212
H      11.2715392194    12.9901580424    13.6947442882
H      12.4561703912    10.8692981608    13.5419666128
H      14.8262376856    11.3808833140    12.2716229518
H       9.3667314211    12.7298838826    12.3875720577
14
Step 18 | ATOMIC_POSITIONS (angstrom) | Cartesian Angstrom
O      12.6516628129    10.8857412226    12.5876774340
O      15.0011367232    12.3307539987    12.1340007138
O      10.1634804664    12.2896647061    12.0510492747
C      12.5666686168    12.2493941563    12.1315740661
C      13.8244948753    13.0054292121    12.5639305583
C      11.3047157828    12.9607607284    12.5881367691
H      12.5535468301    12.1720758326    11.0333222487
H      13.8211504253    13.1242630774    13.6684105134
H      13.8452738360    14.0083284551    12.1142588448
H      11.3533020742    14.0070004813    12.2325011659
H      11.2725668418    12.9865060207    13.6960215109
H      12.4515397440    10.8685852051    13.5414854432
H      14.8234036658    11.3801181739    12.2707315636
H       9.3670563054    12.7313798412    12.3868993934
14
Step 19 | ATOMIC_POSITIONS (angstrom) | Cartesian Angstrom
O      12.6542132497    10.8867371795    12.5885260977
O      15.0003915393    12.3295822086    12.1338753199
O      10.1626740436    12.2884076685    12.0519674285
C      12.5672777474    12.2500226818    12.1320982888
C      13.8248715247    13.0069859875    12.5633912429
C      11.3042583232    12.9603061291    12.5885748604
H      12.5574180670    12.1711923293    11.0344709999
H      13.8225577329    13.1275296906    13.6670943958
H      13.8447855338    14.0097014699    12.1125725013
H      11.3542248527    14.0074980850    12.2341191617
H      11.2732964212    12.9821157537    13.6970276350
H      12.4465566017    10.8680967019    13.5402803132
H      14.8209225868    11.3791857321    12.2703434535
H       9.3665507759    12.7326394942    12.3856578015
14
Step 20 | ATOMIC_POSITIONS (angstrom) | Cartesian Angstrom
O      12.6572509797    10.8878219470    12.5892396886
O      15.0000509730    12.3287292122    12.1340986535
O      10.1623831901    12.2878318557    12.0536026533
C      12.5681243901    12.2507836409    12.1329413597
C      13.8254479036    13.0085682083    12.5622906034
C      11.3044337724    12.9598148897    12.5894166130
H      12.5605529595    12.1695815225    11.0359539494
H      13.8231816497    13.1314661164    13.6653952546
H      13.8450690169    14.0109527386    12.1108111772
H      11.3552889264    14.0079619953    12.2366658514
H      11.2738029052    12.9780141591    13.6975700646
H      12.4406882162    10.8669376704    13.5389116711
H      14.8184739826    11.3782698194    12.2695040476
H       9.3652501344    12.7332673360    12.3835979127
14
Step 21 | ATOMIC_POSITIONS (angstrom) | Cartesian Angstrom
O      12.6592689789    10.8889650290    12.5898295940
O      14.9998178379    12.3278568886    12.1336888639
O      10.1622930840    12.2876487117    12.0554749931
C      12.5687561522    12.2516002417    12.1330825969
C      13.8261622039    13.0093778110    12.5611101800
C      11.3048215805    12.9595305880    12.5898615573
H      12.5622648956    12.1682461494    11.0364725741
H      13.8234889222    13.1338186104    13.6637026603
H      13.8464899694    14.0118560126    12.1098293504
H      11.3548332448    14.0080095266    12.2395882504
H      11.2740926004    12.9748035325    13.6976298429
H      12.4367309727    10.8669278404    13.5376039490
H      14.8173142378    11.3778164965    12.2704427315
H       9.3636643197    12.7335436734    12.3816823561
14
Step 22 | ATOMIC_POSITIONS (angstrom) | Cartesian Angstrom
O      12.6612844403    10.8896065300    12.5902245700
O      15.0001204667    12.3275421830    12.1335183633
O      10.1627073812    12.2876665245    12.0568682962
C      12.5694579053    12.2520939355    12.1331007960
C      13.8269499081    13.0101358372    12.5599949170
C      11.3055149014    12.9588861848    12.5907047283
H      12.5626948521    12.1669762427    11.0364949871
H      13.8234674389    13.1364284647    13.6624127313
H      13.8483546704    14.0124342579    12.1084329450
H      11.3542018802    14.0078769273    12.2429641987
H      11.2742506636    12.9725427883    13.6978845719
H      12.4323260710    10.8664754138    13.5367268325
H      14.8160349851    11.3777152069    12.2710966301
H       9.3626334359    12.7336206150    12.3795749327
14
Step 23 | ATOMIC_POSITIONS (angstrom) | Cartesian Angstrom
O      12.6629484318    10.8904271524    12.5907477102
O      15.0004471734    12.3268746683    12.1326836278
O      10.1631190968    12.2871543799    12.0582204646
C      12.5701157154    12.2527085495    12.1323082591
C      13.8280525119    13.0108226718    12.5584818531
C      11.3060278441    12.9580114403    12.5916142182
H      12.5623706831    12.1659266231    11.0355142744
H      13.8238229577    13.1384429567    13.6608911440
H      13.8513503801    14.0129977951    12.1069956394
H      11.3520033859    14.0077076846    12.2474132852
H      11.2744584674    12.9697931545    13.6984479660
H      12.4280159174    10.8672573375    13.5355482261
H      14.8152560846    11.3778588304    12.2738676149
H       9.3620103502    12.7340178676    12.3772652171
14
Step 24 | ATOMIC_POSITIONS (angstrom) | Cartesian Angstrom
O      12.6656196516    10.8911874989    12.5914271529
O      15.0011848601    12.3262515564    12.1320630057
O      10.1639864867    12.2859340187    12.0592103552
C      12.5710678756    12.2532646942    12.1313234273
C      13.8295103505    13.0121270405    12.5566123752
C      11.3066773313    12.9565098577    12.5932770142
H      12.5613767811    12.1647152653    11.0342023421
H      13.8245105493    13.1420435560    13.6589757904
H      13.8552031152    14.0137503528    12.1039937806
H      11.3493898768    14.0074790334    12.2537476994
H      11.2748598662    12.9660470734    13.7000782537
H      12.4207172375    10.8676888373    13.5341269734
H      14.8135657243    11.3781441512    12.2769920110
H       9.3623292938    12.7348581761    12.3739693189
14
Step 25 | ATOMIC_POSITIONS (angstrom) | Cartesian Angstrom
O      12.6689436201    10.8925351767    12.5926035708
O      15.0021773785    12.3249308385    12.1309764552
O      10.1652998419    12.2830614993    12.0599334343
C      12.5721891604    12.2542622844    12.1293649659
C      13.8316840338    13.0141639446    12.5534340169
C      11.3070548086    12.9540195717    12.5960626055
H      12.5587997960    12.1636923618    11.0317758698
H      13.8261147432    13.1465585899    13.6558679133
H      13.8613848863    14.0147612653    12.0990897971
H      11.3444264309    14.0074304439    12.2634735302
H      11.2757442517    12.9598772914    13.7032218337
H      12.4101790733    10.8694853904    13.5314853399
H      14.8118890443    11.3786206581    12.2835689349
H       9.3641119308    12.7366017955    12.3691412324
14
Step 26 | ATOMIC_POSITIONS (angstrom) | Cartesian Angstrom
O      12.6715330470    10.8932861522    12.5934622266
O      15.0028490785    12.3242934752    12.1313534762
O      10.1666075221    12.2807749040    12.0594615096
C      12.5728214052    12.2547818778    12.1287803513
C      13.8327631044    13.0159131359    12.5516486103
C      11.3072448856    12.9524016366    12.5982370321
H      12.5566193719    12.1636821915    11.0311458876
H      13.8273028156    13.1505041237    13.6537774943
H      13.8644736313    14.0153237782    12.0943967024
H      11.3423723575    14.0072120277    12.2695030905
H      11.2766906689    12.9555845834    13.7061890729
H      12.4018212352    10.8695274746    13.5296572397
H      14.8103930258    11.3788131462    12.2865607162
H       9.3665068510    12.7379026046    12.3658260904
14
Step 27 | ATOMIC_POSITIONS (angstrom) | Cartesian Angstrom
O      12.6734408940    10.8945058170    12.5944753033
O      15.0033096873    12.3234270570    12.1322443970
O      10.1682072543    12.2781290444    12.0583849202
C      12.5729734241    12.2556847069    12.1285647868
C      13.8334652652    13.0176550596    12.5495513258
C      11.3070739664    12.9507750287    12.6008705242
H      12.5531356828    12.1649744658    11.0311314564
H      13.8285243548    13.1537325710    13.6513353247
H      13.8672435905    14.0154448048    12.0888546321
H      11.3404277633    14.0071781992    12.2749307392
H      11.2782062846    12.9508664345    13.7095507189
H      12.3940482094    10.8697922456    13.5272126922
H      14.8102951823    11.3787354295    12.2904554512
H       9.3696474412    12.7391002478    12.3624372280
14
Step 28 | ATOMIC_POSITIONS (angstrom) | Cartesian Angstrom
O      12.6759060018    10.8955524859    12.5953813624
O      15.0036118228    12.3229739650    12.1340482219
O      10.1700660601    12.2765994075    12.0575726485
C      12.5732453652    12.2564659167    12.1296351609
C      13.8337744648    13.0193584398    12.5481267225
C      11.3074486156    12.9496789407    12.6032548629
H      12.5505938309    12.1666488418    11.0326932756
H      13.8291964516    13.1581288884    13.6491938238
H      13.8681639716    14.0152802948    12.0827994344
H      11.3407774001    14.0066153904    12.2789595347
H      11.2798210244    12.9464545907    13.7125044267
H      12.3858243198    10.8681343346    13.5251334829
H      14.8096522585    11.3783600899    12.2915878569
H       9.3719174129    12.7397495254    12.3591086858
14
Step 29 | ATOMIC_POSITIONS (angstrom) | Cartesian Angstrom
O      12.6772586062    10.8971567949    12.5961615172
O      15.0037969288    12.3221971429    12.1354726453
O      10.1719396270    12.2756925041    12.0574511489
C      12.5731906195    12.2577331183    12.1308109350
C      13.8339958125    13.0203916620    12.5463886179
C      11.3079014062    12.9489927166    12.6056531475
H      12.5471990005    12.1694248452    11.0343561529
H      13.8293981637    13.1612807733    13.6468155397
H      13.8689079576    14.0144470594    12.0770992485
H      11.3408978163    14.0062268401    12.2822255713
H      11.2815360326    12.9419754136    13.7147739164
H      12.3797427528    10.8671390389    13.5226362714
H      14.8110623789    11.3776380039    12.2944008129
H       9.3731718974    12.7397051985    12.3557539752
14
Step 30 | ATOMIC_POSITIONS (angstrom) | Cartesian Angstrom
O      12.6794863035    10.8984245956    12.5967854078
O      15.0041294461    12.3214334570    12.1364093937
O      10.1736736449    12.2754103395    12.0583347275
C      12.5737364676    12.2587808740    12.1319474214
C      13.8346789606    13.0214480543    12.5447810999
C      11.3089137908    12.9482545992    12.6079151093
H      12.5452389196    12.1716199539    11.0357455653
H      13.8295978808    13.1659999112    13.6446185647
H      13.8694115352    14.0136765190    12.0714635936
H      11.3413828929    14.0056197149    12.2862182136
H      11.2828430768    12.9371219791    13.7166481345
H      12.3723445849    10.8655583739    13.5204244057
H      14.8112921503    11.3770079748    12.2966605497
H       9.3732693460    12.7396447653    12.3520473133
14
Step 31 | ATOMIC_POSITIONS (angstrom) | Cartesian Angstrom
O      12.6800097389    10.8992939679    12.5968245475
O      15.0045563554    12.3205626483    12.1361471989
O      10.1746778505    12.2754886118    12.0597322777
C      12.5740421701    12.2595623507    12.1321425716
C      13.8354463873    13.0214649424    12.5435079620
C      11.3096808478    12.9481388516    12.6093616353
H      12.5433518965    12.1737882898    11.0358226124
H      13.8296315386    13.1686412000    13.6430329611
H      13.8697616757    14.0125799605    12.0681100938
H      11.3410594495    14.0054912806    12.2890749119
H      11.2833126745    12.9338519539    13.7175882459
H      12.3689575265    10.8653745721    13.5186045214
H      14.8129367121    11.3765259237    12.3005148999
H       9.3725741768    12.7392365583    12.3495350606
