14
Step 1 | ATOMIC_POSITIONS (angstrom) | Cartesian Angstrom
O      12.5885440286    10.9253945730    12.5661408170
O      14.9697279823    12.2900395230    12.0804792081
O      10.1395471625    12.2734328374    12.0780486149
C      12.5486163457    12.2797618667    12.0895325085
C      13.8200888438    12.9774291967    12.5464963793
C      11.2906534556    12.9663098671    12.5580541968
H      12.5572302359    12.1910234371    10.9727899332
H      13.8599330918    13.0099671345    13.6596348761
H      13.8649024849    14.0148529258    12.1809907815
H      11.2582910908    14.0096232900    12.2151331451
H      11.2577855238    12.9574387976    13.6686054207
H      12.5789432722    10.9847042626    13.5443206277
H      14.8972523981    11.3711933176    12.4184744230
H       9.3684830843    12.7488300824    12.4212985681
14
Step 2 | ATOMIC_POSITIONS (angstrom) | Cartesian Angstrom
O      12.5930204808    10.9168088314    12.5691229471
O      14.9795031467    12.2889916895    12.0781296338
O      10.1359746327    12.2687375780    12.0714219116
C      12.5438982409    12.2755306744    12.0885803007
C      13.8248241121    12.9770444862    12.5476171475
C      11.2807747508    12.9686276998    12.5618982865
H      12.5564853086    12.1922245144    10.9837709508
H      13.8519209002    13.0139291808    13.6607490217
H      13.8680606735    14.0141412769    12.1789536793
H      11.2644321353    14.0172803461    12.2150189476
H      11.2652420963    12.9615271028    13.6709673240
H      12.5758443490    10.9815901392    13.5410405339
H      14.8946209562    11.3762916564    12.4128816149
H       9.3653972169    12.7472759359    12.4198472009
14
Step 3 | ATOMIC_POSITIONS (angstrom) | Cartesian Angstrom
O      12.5977481789    10.9115793089    12.5675265049
O      14.9865387832    12.2936929210    12.0769517514
O      10.1308313590    12.2694841998    12.0675283684
C      12.5448624627    12.2692241462    12.0904615145
C      13.8271234919    12.9780515577    12.5500068744
C      11.2754541505    12.9699711250    12.5643886623
H      12.5540477957    12.1926880717    10.9950051595
H      13.8427930622    13.0188593911    13.6591561950
H      13.8726670941    14.0110717022    12.1762588249
H      11.2713755020    14.0226012138    12.2161979939
H      11.2721985935    12.9673129615    13.6730199588
H      12.5711615438    10.9756021908    13.5422869298
H      14.8920849718    11.3776398406    12.4054817029
H       9.3611120109    12.7422224813    12.4157290591
14
Step 4 | ATOMIC_POSITIONS (angstrom) | Cartesian Angstrom
O      12.6035588157    10.9069175630    12.5703186478
O      14.9914000241    12.2980312301    12.0797352369
O      10.1308628135    12.2719919102    12.0636562953
C      12.5469245821    12.2649406715    12.0967414116
C      13.8278528854    12.9788386327    12.5505830948
C      11.2746963152    12.9704922128    12.5656359494
H      12.5504258216    12.1921422594    11.0041682622
H      13.8323288573    13.0253459074    13.6580075831
H      13.8782041614    14.0074331209    12.1722984377
H      11.2798747936    14.0254171958    12.2186286606
H      11.2787649614    12.9749266417    13.6749851834
H      12.5645402177    10.9654520084    13.5405823163
H      14.8901296462    11.3810015489    12.3933055833
H       9.3504351047    12.7370702089    12.4113528375
14
Step 5 | ATOMIC_POSITIONS (angstrom) | Cartesian Angstrom
O      12.6122944058    10.9023325989    12.5720877268
O      14.9947499841    12.3072044933    12.0867579792
O      10.1305526148    12.2805649592    12.0617075986
C      12.5497074388    12.2615610506    12.1039516248
C      13.8275855348    12.9793815938    12.5515566277
C      11.2792894809    12.9716831640    12.5693679197
H      12.5447772245    12.1895812915    11.0136844033
H      13.8189527238    13.0355511306    13.6573937591
H      13.8851715892    14.0037462994    12.1651177759
H      11.2925431071    14.0251654993    12.2226251739
H      11.2851474054    12.9861307988    13.6763672816
H      12.5535130003    10.9477161839    13.5426828204
H      14.8880254723    11.3824773369    12.3738714560
H       9.3376890180    12.7269047114    12.4028273529
