14
Step 1 | ATOMIC_POSITIONS (angstrom) | Cartesian Angstrom
O      12.5883836870    10.9253242651    12.5662825242
O      14.9697997543    12.2898838015    12.0803736224
O      10.1394803566    12.2732378665    12.0779432676
C      12.5485056605    12.2796776210    12.0893992692
C      13.8201943941    12.9776407553    12.5464981686
C      11.2905819469    12.9664926933    12.5580584368
H      12.5572161093    12.1910825338    10.9727136142
H      13.8597782572    13.0100564072    13.6598021516
H      13.8647640819    14.0149226944    12.1810080309
H      11.2584992808    14.0097490208    12.2151436130
H      11.2579819214    12.9574827207    13.6687663306
H      12.5789430482    10.9845899407    13.5443138054
H      14.8974034476    11.3711285334    12.4184428667
H       9.3684670541    12.7487322583    12.4212537987
14
Step 2 | ATOMIC_POSITIONS (angstrom) | Cartesian Angstrom
O      12.5927145049    10.9166103960    12.5692896073
O      14.9797238025    12.2887531401    12.0778971363
O      10.1358517245    12.2684225786    12.0712064572
C      12.5436603463    12.2754166372    12.0884732050
C      13.8250136738    12.9772291846    12.5476400223
C      11.2805571759    12.9688755322    12.5619262921
H      12.5564411579    12.1923428726    10.9836653188
H      13.8515008318    13.0141728533    13.6610507977
H      13.8678072493    14.0143622782    12.1789300946
H      11.2649387761    14.0176717879    12.2150149861
H      11.2657510791    12.9616712828    13.6712684257
H      12.5758090971    10.9813277224    13.5411319616
H      14.8949180379    11.3761207800    12.4127905646
H       9.3653115427    12.7470240659    12.4197146308
14
Step 3 | ATOMIC_POSITIONS (angstrom) | Cartesian Angstrom
O      12.5971126953    10.9113559070    12.5677252598
O      14.9867357807    12.2934266063    12.0766320573
O      10.1307521127    12.2691434723    12.0673329514
C      12.5446096314    12.2691224214    12.0903878852
C      13.8273050430    12.9781969499    12.5500304986
C      11.2752622562    12.9702657360    12.5644101078
H      12.5539546839    12.1928616542    10.9947720718
H      13.8421666062    13.0192465621    13.6595327858
H      13.8722235317    14.0114028748    12.1762485070
H      11.2721542427    14.0231602776    12.2162121126
H      11.2729727417    12.9675456484    13.6733962697
H      12.5711186794    10.9751838047    13.5424805963
H      14.8926422740    11.3773546176    12.4053626299
H       9.3609887212    12.7417345795    12.4154757666
14
Step 4 | ATOMIC_POSITIONS (angstrom) | Cartesian Angstrom
O      12.6025519293    10.9066343615    12.5705448877
O      14.9915796657    12.2977761965    12.0793866744
O      10.1309273082    12.2716738864    12.0634386060
C      12.5466742981    12.2647325231    12.0967086115
C      13.8279920422    12.9789747738    12.5506567516
C      11.2745624456    12.9709364341    12.5657074625
H      12.5502227555    12.1923767966    11.0040088034
H      13.8313259430    13.0259865864    13.6583684500
H      13.8775876152    14.0077519691    12.1722804061
H      11.2810960537    14.0261596770    12.2187167244
H      11.2799666479    12.9753810185    13.6753928232
H      12.5644109109    10.9647286167    13.5408741869
H      14.8910282518    11.3806523845    12.3930042854
H       9.3500731330    12.7362358876    12.4109108269
14
Step 5 | ATOMIC_POSITIONS (angstrom) | Cartesian Angstrom
O      12.6106511901    10.9020348257    12.5723374314
O      14.9947826955    12.3070091945    12.0863939011
O      10.1308960692    12.2803907691    12.0616066774
C      12.5493977188    12.2613263466    12.1039191975
C      13.8275527762    12.9793975101    12.5516704744
C      11.2793810265    12.9723395687    12.5694911918
H      12.5444537492    12.1898712943    11.0135449717
H      13.8175896695    13.0364456439    13.6577043266
H      13.8842287880    14.0039957051    12.1651291080
H      11.2942570817    14.0260558188    12.2227992161
H      11.2868377201    12.9868273794    13.6767308601
H      12.5533346785    10.9466885921    13.5430744230
H      14.8894668089    11.3820337442    12.3734546323
H       9.3371690279    12.7255847193    12.4021430888
