36
Step 1 | ATOMIC_POSITIONS (angstrom) | Cartesian Angstrom
Ni      0.0000000000     0.0000000000    10.0000000187
Ni      1.2286496544     2.1280836261    10.0000000187
Ni      2.4572993456     4.2561673160    10.0000000187
Ni      2.4572993088     0.0000000000    10.0000000187
Ni      3.6859489631     2.1280836261    10.0000000187
Ni      4.9145986544     4.2561673160    10.0000000187
Ni      4.9145986912     0.0000000000    10.0000000187
Ni      6.1432483456     2.1280836261    10.0000000187
Ni      7.3718980369     4.2561673160    10.0000000187
Ni      1.6381995392     1.4187224174    12.0063764263
Ni      2.8668492304     3.5468061073    12.0063764263
Ni      4.0954988848     5.6748897334    12.0063764263
Ni      4.0954988479     1.4187224174    12.0063764263
Ni      5.3241485392     3.5468061073    12.0063764263
Ni      6.5527981936     5.6748897334    12.0063764263
Ni      6.5527982304     1.4187224174    12.0063764263
Ni      7.7814479217     3.5468061073    12.0063764263
Ni      9.0100975760     5.6748897334    12.0063764263
Ni      2.0506696304     0.7043083683    14.0155490733
Ni      3.2793122603     2.8323857341    14.0155490213
Ni      4.5079675246     4.9604730928    14.0155476877
Ni      4.5079670434     0.7043006357    14.0155511360
Ni      5.7366204714     2.8323837641    14.0155513788
Ni      6.9652728708     4.9604760848    14.0155490213
Ni      6.9652670555     0.7043054558    14.0155464792
Ni      8.1939212359     2.8323872810    14.0155511360
Ni      9.4225632457     4.9604731316    14.0155490733
Ni      0.0077053899    -0.0133461268    16.0320621364
Ni      1.2363573414     2.1147378268    16.0320586858
Ni      2.4649989636     4.2428213855    16.0320597870
Ni      2.4650074146    -0.0133410300    16.0320597870
Ni      3.6936526029     2.1147296506    16.0320628827
Ni      4.9223036166     4.2428219300    16.0320609428
Ni      4.9223026489    -0.0133479524    16.0320586858
Ni      6.1509550994     2.1147351370    16.0320616188
Ni      7.3796110990     4.2428187806    16.0320628827
36
Step 2 | ATOMIC_POSITIONS (angstrom) | Cartesian Angstrom
Ni      0.0000000000     0.0000000000    10.0000000187
Ni      1.2286496544     2.1280836261    10.0000000187
Ni      2.4572993456     4.2561673160    10.0000000187
Ni      2.4572993088    -0.0000000000    10.0000000187
Ni      3.6859489631     2.1280836261    10.0000000187
Ni      4.9145986544     4.2561673160    10.0000000187
Ni      4.9145986912    -0.0000000000    10.0000000187
Ni      6.1432483456     2.1280836261    10.0000000187
Ni      7.3718980369     4.2561673160    10.0000000187
Ni      1.6381995392     1.4187224174    12.0063764263
Ni      2.8668492304     3.5468061073    12.0063764263
Ni      4.0954988848     5.6748897334    12.0063764263
Ni      4.0954988479     1.4187224174    12.0063764263
Ni      5.3241485392     3.5468061073    12.0063764263
Ni      6.5527981936     5.6748897334    12.0063764263
Ni      6.5527982304     1.4187224174    12.0063764263
Ni      7.7814479217     3.5468061073    12.0063764263
Ni      9.0100975760     5.6748897334    12.0063764263
Ni      2.0542969986     0.6980134499    14.0200930622
Ni      3.2829471341     2.8260912125    14.0200965630
Ni      4.5115997305     4.9541819275    14.0200893319
Ni      4.5116082894     0.6980073093    14.0201013301
Ni      5.7402584250     2.8260826435    14.0201047594
Ni      6.9689066495     4.9541809310    14.0200965630
Ni      6.9689008199     0.6980115913    14.0200937684
Ni      8.1975507934     2.8260872062    14.0201013301
Ni      9.4262011209     4.9541842793    14.0200930622
Ni      0.0165212045    -0.0286155655    16.0454239061
Ni      1.2451694268     2.0994627245    16.0454218283
Ni      2.4738136216     4.2275488198    16.0454264352
Ni      2.4738265155    -0.0286110306    16.0454264352
Ni      3.7024756649     2.0994492101    16.0454294065
Ni      4.9311247946     4.2275432015    16.0454244929
Ni      4.9311252329    -0.0286169934    16.0454218283
Ni      6.1597739934     2.0994603645    16.0454233676
Ni      7.3884328177     4.2275375644    16.0454294065
36
Step 3 | ATOMIC_POSITIONS (angstrom) | Cartesian Angstrom
Ni      0.0000000000     0.0000000000    10.0000000187
Ni      1.2286496544     2.1280836261    10.0000000187
Ni      2.4572993456     4.2561673160    10.0000000187
Ni      2.4572993088    -0.0000000000    10.0000000187
Ni      3.6859489631     2.1280836261    10.0000000187
Ni      4.9145986544     4.2561673160    10.0000000187
Ni      4.9145986912    -0.0000000000    10.0000000187
Ni      6.1432483456     2.1280836261    10.0000000187
Ni      7.3718980369     4.2561673160    10.0000000187
Ni      1.6381995392     1.4187224174    12.0063764263
Ni      2.8668492304     3.5468061073    12.0063764263
Ni      4.0954988848     5.6748897334    12.0063764263
Ni      4.0954988479     1.4187224174    12.0063764263
Ni      5.3241485392     3.5468061073    12.0063764263
Ni      6.5527981936     5.6748897334    12.0063764263
Ni      6.5527982304     1.4187224174    12.0063764263
Ni      7.7814479217     3.5468061073    12.0063764263
Ni      9.0100975760     5.6748897334    12.0063764263
Ni      2.0602809737     0.6875775919    14.0285721905
Ni      3.2889894040     2.8156845873    14.0285832651
Ni      4.5176123187     4.9437678193    14.0285600238
Ni      4.5176558258     0.6876047612    14.0285776142
Ni      5.7462772496     2.8156577335    14.0285736735
Ni      6.9748979163     4.9437448591    14.0285832651
Ni      6.9749162213     0.6875926103    14.0285553814
Ni      8.2035358962     2.8156486120    14.0285776142
Ni      9.4322468514     4.9437840759    14.0285721905
Ni      0.0302879938    -0.0524603441    16.0639444267
Ni      1.2589206787     2.0756045432    16.0639637382
Ni      2.4875954556     4.2037135763    16.0639677667
Ni      2.4875775248    -0.0524640707    16.0639677667
Ni      3.7162623352     2.0756052615    16.0639739174
Ni      4.9448920618     4.2036975953    16.0639436059
Ni      4.9449113980    -0.0524550175    16.0639637382
Ni      6.1735430380     2.0756116797    16.0639481756
Ni      7.4021889477     4.2036759834    16.0639739174
36
Step 4 | ATOMIC_POSITIONS (angstrom) | Cartesian Angstrom
Ni      0.0000000000     0.0000000000    10.0000000187
Ni      1.2286496544     2.1280836261    10.0000000187
Ni      2.4572993456     4.2561673160    10.0000000187
Ni      2.4572993088    -0.0000000000    10.0000000187
Ni      3.6859489631     2.1280836261    10.0000000187
Ni      4.9145986544     4.2561673160    10.0000000187
Ni      4.9145986912    -0.0000000000    10.0000000187
Ni      6.1432483456     2.1280836261    10.0000000187
Ni      7.3718980369     4.2561673160    10.0000000187
Ni      1.6381995392     1.4187224174    12.0063764263
Ni      2.8668492304     3.5468061073    12.0063764263
Ni      4.0954988848     5.6748897334    12.0063764263
Ni      4.0954988479     1.4187224174    12.0063764263
Ni      5.3241485392     3.5468061073    12.0063764263
Ni      6.5527981936     5.6748897334    12.0063764263
Ni      6.5527982304     1.4187224174    12.0063764263
Ni      7.7814479217     3.5468061073    12.0063764263
Ni      9.0100975760     5.6748897334    12.0063764263
Ni      2.0697920435     0.6710969025    14.0424469598
Ni      3.2985101755     2.7992142245    14.0424588285
Ni      4.5271304402     4.9272819493    14.0424245361
Ni      4.5271689757     0.6711377539    14.0424489509
Ni      5.7557834999     2.7991924251    14.0424319263
Ni      6.9844012833     4.9272644477    14.0424588285
Ni      6.9844266940     0.6711199885    14.0424123814
Ni      8.2130401679     2.7991764789    14.0424489509
Ni      9.4417640123     4.9273069032    14.0424469598
Ni      0.0515936382    -0.0893628027    16.0897255686
Ni      1.2802265804     2.0387119596    16.0897548514
Ni      2.5088959894     4.1668155644    16.0897546267
Ni      2.5088818736    -0.0893598801    16.0897546267
Ni      3.7375692659     2.0387062765    16.0897637599
Ni      4.9661950169     4.1667997947    16.0897133723
Ni      4.9662083618    -0.0893527614    16.0897548514
Ni      6.1948401088     2.0387240710    16.0897327363
Ni      7.4234909407     4.1667741477    16.0897637599
