36
Step 1 | ATOMIC_POSITIONS (crystal) | Cartesian Angstrom
Ni      0.0000000000     0.0000000000     9.9999545457
Ni      1.2286401814     2.1280662261     9.9999545457
Ni      2.4573172223     4.2561962949     9.9999545457
Ni      2.4572803627     0.0000000000     9.9999545457
Ni      3.6859205441     2.1280662261     9.9999545457
Ni      4.9145975851     4.2561962949     9.9999545457
Ni      4.9146344446     0.0000000000     9.9999545457
Ni      6.1432746260     2.1280662261     9.9999545457
Ni      7.3719516669     4.2561962949     9.9999545457
Ni      1.6381869085     1.4187108174    12.0062941368
Ni      2.8668639494     3.5468408862    12.0062941368
Ni      4.0955041308     5.6749071123    12.0062941368
Ni      4.0954672712     1.4187108174    12.0062941368
Ni      5.3241443122     3.5468408862    12.0062941368
Ni      6.5527844935     5.6749071123    12.0062941368
Ni      6.5528213531     1.4187108174    12.0062941368
Ni      7.7814983941     3.5468408862    12.0062941368
Ni      9.0101385754     5.6749071123    12.0062941368
Ni      2.0495935745     0.7061727064    14.0159381959
Ni      3.2781745406     2.8342400070    14.0158653656
Ni      4.5068686085     4.9623476657    14.0158827308
Ni      4.5068953987     0.7061329382    14.0159708630
Ni      5.7355375938     2.8342473508    14.0159114404
Ni      6.9642614998     4.9623709976    14.0159078523
Ni      6.9642644003     0.7060960237    14.0159230762
Ni      8.1929459937     2.8342153331    14.0158583898
Ni      9.4215688917     4.9622933765    14.0158536726
Ni      0.0080806890    -0.0139682314    16.0443823179
Ni      1.2367532943     2.1140859706    16.0443630299
Ni      2.4653859471     4.2422351111    16.0443554999
Ni      2.4653388697    -0.0139097503    16.0443657853
Ni      3.6939465479     2.1140829426    16.0443707654
Ni      4.9226294668     4.2422598737    16.0443760082
Ni      4.9226535822    -0.0139382886    16.0443919320
Ni      6.1513050695     2.1141019313    16.0444014654
Ni      7.3800182354     4.2422764990    16.0443970682
36
Step 2 | ATOMIC_POSITIONS (crystal) | Cartesian Angstrom
Ni      0.0000000000     0.0000000000     9.9999545457
Ni      1.2286401814     2.1280662261     9.9999545457
Ni      2.4573172223     4.2561962949     9.9999545457
Ni      2.4572803627     0.0000000000     9.9999545457
Ni      3.6859205441     2.1280662261     9.9999545457
Ni      4.9145975851     4.2561962949     9.9999545457
Ni      4.9146344446     0.0000000000     9.9999545457
Ni      6.1432746260     2.1280662261     9.9999545457
Ni      7.3719516669     4.2561962949     9.9999545457
Ni      1.6381869085     1.4187108174    12.0062941368
Ni      2.8668639494     3.5468408862    12.0062941368
Ni      4.0955041308     5.6749071123    12.0062941368
Ni      4.0954672712     1.4187108174    12.0062941368
Ni      5.3241443122     3.5468408862    12.0062941368
Ni      6.5527844935     5.6749071123    12.0062941368
Ni      6.5528213531     1.4187108174    12.0062941368
Ni      7.7814983941     3.5468408862    12.0062941368
Ni      9.0101385754     5.6749071123    12.0062941368
Ni      2.0527593611     0.7009433627    14.0240030384
Ni      3.2812061573     2.8289073704    14.0238865921
Ni      4.5099124408     4.9569838043    14.0238601488
Ni      4.5098477769     0.7008761058    14.0240523317
Ni      5.7385003589     2.8289647885    14.0238942444
Ni      6.9673434556     4.9571292142    14.0239403035
Ni      6.9673111953     0.7008042471    14.0238953241
Ni      8.1961228191     2.8289470646    14.0238412745
Ni      9.4246163930     4.9569113391    14.0238617880
Ni      0.0176004507    -0.0304632115    16.0711725664
Ni      1.2464198989     2.0976303322    16.0711089026
Ni      2.4748747725     4.2256888781    16.0710986823
Ni      2.4749662815    -0.0302994609    16.0711390901
Ni      3.7033864072     2.0975555898    16.0710738105
Ni      4.9321043460     4.2257644595    16.0711320831
Ni      4.9320368997    -0.0303930957    16.0711760868
Ni      6.1607233457     2.0976152111    16.0711807390
Ni      7.3895789035     4.2259024668    16.0711588074
36
Step 3 | ATOMIC_POSITIONS (crystal) | Cartesian Angstrom
Ni      0.0000000000     0.0000000000     9.9999545457
Ni      1.2286401814     2.1280662261     9.9999545457
Ni      2.4573172223     4.2561962949     9.9999545457
Ni      2.4572803627     0.0000000000     9.9999545457
Ni      3.6859205441     2.1280662261     9.9999545457
Ni      4.9145975851     4.2561962949     9.9999545457
Ni      4.9146344446     0.0000000000     9.9999545457
Ni      6.1432746260     2.1280662261     9.9999545457
Ni      7.3719516669     4.2561962949     9.9999545457
Ni      1.6381869085     1.4187108174    12.0062941368
Ni      2.8668639494     3.5468408862    12.0062941368
Ni      4.0955041308     5.6749071123    12.0062941368
Ni      4.0954672712     1.4187108174    12.0062941368
Ni      5.3241443122     3.5468408862    12.0062941368
Ni      6.5527844935     5.6749071123    12.0062941368
Ni      6.5528213531     1.4187108174    12.0062941368
Ni      7.7814983941     3.5468408862    12.0062941368
Ni      9.0101385754     5.6749071123    12.0062941368
Ni      2.0581682463     0.6914257194    14.0400336891
Ni      3.2867591800     2.8193626700    14.0398852132
Ni      4.5153415928     4.9474193836    14.0399983004
Ni      4.5154418258     0.6913935383    14.0400446406
Ni      5.7439775737     2.8193134550    14.0400156630
Ni      6.9728164145     4.9475266654    14.0400403318
Ni      6.9729078182     0.6911536107    14.0400033169
Ni      8.2017088319     2.8192289255    14.0398956625
Ni      9.4303256236     4.9473394992    14.0398693883
Ni      0.0325936091    -0.0564016344    16.1102220415
Ni      1.2613547769     2.0716395143    16.1101749156
Ni      2.4899817880     4.1997972786    16.1101896997
Ni      2.4897778679    -0.0562069170    16.1102860539
Ni      3.7183739748     2.0717272686    16.1101915028
Ni      4.9469692907     4.1998868262    16.1102150918
Ni      4.9471189693    -0.0562610530    16.1103182241
Ni      6.1756848720     2.0716772019    16.1102454458
Ni      7.4044900766     4.1999168463    16.1103170376
36
Step 4 | ATOMIC_POSITIONS (crystal) | Cartesian Angstrom
Ni      0.0000000000     0.0000000000     9.9999545457
Ni      1.2286401814     2.1280662261     9.9999545457
Ni      2.4573172223     4.2561962949     9.9999545457
Ni      2.4572803627     0.0000000000     9.9999545457
Ni      3.6859205441     2.1280662261     9.9999545457
Ni      4.9145975851     4.2561962949     9.9999545457
Ni      4.9146344446     0.0000000000     9.9999545457
Ni      6.1432746260     2.1280662261     9.9999545457
Ni      7.3719516669     4.2561962949     9.9999545457
Ni      1.6381869085     1.4187108174    12.0062941368
Ni      2.8668639494     3.5468408862    12.0062941368
Ni      4.0955041308     5.6749071123    12.0062941368
Ni      4.0954672712     1.4187108174    12.0062941368
Ni      5.3241443122     3.5468408862    12.0062941368
Ni      6.5527844935     5.6749071123    12.0062941368
Ni      6.5528213531     1.4187108174    12.0062941368
Ni      7.7814983941     3.5468408862    12.0062941368
Ni      9.0101385754     5.6749071123    12.0062941368
Ni      2.0674873961     0.6750933222    14.0677709033
Ni      3.2961897400     2.8030417645    14.0675794125
Ni      4.5247957522     4.9312596507    14.0677425580
Ni      4.5248174846     0.6751355043    14.0678671873
Ni      5.7533807116     2.8030458798    14.0678220675
Ni      6.9820853843     4.9312978720    14.0678542168
Ni      6.9823930287     0.6748816411    14.0677317106
Ni      8.2110535850     2.8028487803    14.0675431262
Ni      9.4397801217     4.9311391835    14.0675600881
Ni      0.0563471844    -0.0974239112    16.1668881488
Ni      1.2849935265     2.0304836456    16.1668351321
Ni      2.5137319043     4.1588163055    16.1669057065
Ni      2.5134167524    -0.0972870249    16.1669446182
Ni      3.7421432806     2.0306271032    16.1668965426
Ni      4.9707248700     4.1588867099    16.1669005573
Ni      4.9708158778    -0.0972396173    16.1670464183
Ni      6.1993769858     2.0306240694    16.1669231966
Ni      7.4280671904     4.1588927322    16.1670427990
36
Step 5 | ATOMIC_POSITIONS (crystal) | Cartesian Angstrom
Ni      0.0000000000     0.0000000000     9.9999545457
Ni      1.2286401814     2.1280662261     9.9999545457
Ni      2.4573172223     4.2561962949     9.9999545457
Ni      2.4572803627     0.0000000000     9.9999545457
Ni      3.6859205441     2.1280662261     9.9999545457
Ni      4.9145975851     4.2561962949     9.9999545457
Ni      4.9146344446     0.0000000000     9.9999545457
Ni      6.1432746260     2.1280662261     9.9999545457
Ni      7.3719516669     4.2561962949     9.9999545457
Ni      1.6381869085     1.4187108174    12.0062941368
Ni      2.8668639494     3.5468408862    12.0062941368
Ni      4.0955041308     5.6749071123    12.0062941368
Ni      4.0954672712     1.4187108174    12.0062941368
Ni      5.3241443122     3.5468408862    12.0062941368
Ni      6.5527844935     5.6749071123    12.0062941368
Ni      6.5528213531     1.4187108174    12.0062941368
Ni      7.7814983941     3.5468408862    12.0062941368
Ni      9.0101385754     5.6749071123    12.0062941368
Ni      2.0826616578     0.6485668174    14.1128719369
Ni      3.3114810699     2.7764135673    14.1125602556
Ni      4.5400085572     4.9049042901    14.1129812591
Ni      4.5403834537     0.6484901424    14.1130077050
Ni      5.7688554331     2.7762017522    14.1130273625
Ni      6.9975208234     4.9047679171    14.1130069218
Ni      6.9976784737     0.6483400797    14.1129061521
Ni      8.2263211954     2.7760973139    14.1125379285
Ni      9.4551665733     4.9047761177    14.1125923919
Ni      0.0935931105    -0.1619895446    16.2485617712
Ni      1.3221310656     1.9655821132    16.2485028222
Ni      2.5510768452     4.0943282773    16.2486077914
Ni      2.5506779712    -0.1619885173    16.2487093807
Ni      3.7796302614     1.9657731942    16.2486359025
Ni      5.0080980067     4.0942330822    16.2486868715
Ni      5.0084341844    -0.1618948474    16.2487840766
Ni      6.2368902179     1.9656221681    16.2486193205
Ni      7.4654626009     4.0941003739    16.2488388860
36
Step 6 | ATOMIC_POSITIONS (crystal) | Cartesian Angstrom
Ni      0.0000000000     0.0000000000     9.9999545457
Ni      1.2286401814     2.1280662261     9.9999545457
Ni      2.4573172223     4.2561962949     9.9999545457
Ni      2.4572803627     0.0000000000     9.9999545457
Ni      3.6859205441     2.1280662261     9.9999545457
Ni      4.9145975851     4.2561962949     9.9999545457
Ni      4.9146344446     0.0000000000     9.9999545457
Ni      6.1432746260     2.1280662261     9.9999545457
Ni      7.3719516669     4.2561962949     9.9999545457
Ni      1.6381869085     1.4187108174    12.0062941368
Ni      2.8668639494     3.5468408862    12.0062941368
Ni      4.0955041308     5.6749071123    12.0062941368
Ni      4.0954672712     1.4187108174    12.0062941368
Ni      5.3241443122     3.5468408862    12.0062941368
Ni      6.5527844935     5.6749071123    12.0062941368
Ni      6.5528213531     1.4187108174    12.0062941368
Ni      7.7814983941     3.5468408862    12.0062941368
Ni      9.0101385754     5.6749071123    12.0062941368
Ni      2.1045019631     0.6107622818    14.1757853240
Ni      3.3334194545     2.7382859784    14.1754039946
Ni      4.5619915743     4.8667652733    14.1759177201
Ni      4.5625404156     0.6105872298    14.1759495389
Ni      5.7910432792     2.7380341882    14.1759248962
Ni      7.0196107602     4.8663977013    14.1759009143
Ni      7.0195463599     0.6107004540    14.1757822199
Ni      8.2480717886     2.7380151120    14.1752762404
Ni      9.4770271145     4.8666351442    14.1753691914
Ni      0.1455637273    -0.2519129451    16.3493885057
Ni      1.3739805065     1.8754281488    16.3491646835
Ni      2.6030111487     4.0039420024    16.3493195341
Ni      2.6028174417    -0.2521154610    16.3495375072
Ni      3.8318653342     1.8755060208    16.3493749159
Ni      5.0603488421     4.0036520509    16.3494841054
Ni      5.0606998289    -0.2519935803    16.3496349673
Ni      6.2891736807     1.8753272832    16.3493518369
Ni      7.5176288867     4.0034420757    16.3496051415
36
Step 7 | ATOMIC_POSITIONS (crystal) | Cartesian Angstrom
Ni      0.0000000000     0.0000000000     9.9999545457
Ni      1.2286401814     2.1280662261     9.9999545457
Ni      2.4573172223     4.2561962949     9.9999545457
Ni      2.4572803627     0.0000000000     9.9999545457
Ni      3.6859205441     2.1280662261     9.9999545457
Ni      4.9145975851     4.2561962949     9.9999545457
Ni      4.9146344446     0.0000000000     9.9999545457
Ni      6.1432746260     2.1280662261     9.9999545457
Ni      7.3719516669     4.2561962949     9.9999545457
Ni      1.6381869085     1.4187108174    12.0062941368
Ni      2.8668639494     3.5468408862    12.0062941368
Ni      4.0955041308     5.6749071123    12.0062941368
Ni      4.0954672712     1.4187108174    12.0062941368
Ni      5.3241443122     3.5468408862    12.0062941368
Ni      6.5527844935     5.6749071123    12.0062941368
Ni      6.5528213531     1.4187108174    12.0062941368
Ni      7.7814983941     3.5468408862    12.0062941368
Ni      9.0101385754     5.6749071123    12.0062941368
Ni      2.1156205773     0.5915318354    14.2056269676
Ni      3.3444514285     2.7191789507    14.2052291030
Ni      4.5730987484     4.8475625711    14.2057392560
Ni      4.5735051968     0.5913758104    14.2057999900
Ni      5.8020622849     2.7190644393    14.2056996470
Ni      7.0306484021     4.8472326017    14.2057211831
Ni      7.0306650785     0.5914836004    14.2055843091
Ni      8.2591828134     2.7189618570    14.2050553911
Ni      9.4880772367     4.8473532490    14.2051785009
Ni      0.1710118835    -0.2959682975    16.3859641962
Ni      1.3994304814     1.8315393222    16.3856863789
Ni      2.6283631283     3.9598855551    16.3858008529
Ni      2.6282308994    -0.2961346165    16.3860497082
Ni      3.8571876905     1.8315956404    16.3858846113
Ni      5.0857578509     3.9596599608    16.3860236682
Ni      5.0860347326    -0.2960814899    16.3862032370
Ni      6.3145991970     1.8314378003    16.3859747001
Ni      7.5430445265     3.9594501784    16.3861393755
36
Step 8 | ATOMIC_POSITIONS (crystal) | Cartesian Angstrom
Ni      0.0000000000     0.0000000000     9.9999545457
Ni      1.2286401814     2.1280662261     9.9999545457
Ni      2.4573172223     4.2561962949     9.9999545457
Ni      2.4572803627     0.0000000000     9.9999545457
Ni      3.6859205441     2.1280662261     9.9999545457
Ni      4.9145975851     4.2561962949     9.9999545457
Ni      4.9146344446     0.0000000000     9.9999545457
Ni      6.1432746260     2.1280662261     9.9999545457
Ni      7.3719516669     4.2561962949     9.9999545457
Ni      1.6381869085     1.4187108174    12.0062941368
Ni      2.8668639494     3.5468408862    12.0062941368
Ni      4.0955041308     5.6749071123    12.0062941368
Ni      4.0954672712     1.4187108174    12.0062941368
Ni      5.3241443122     3.5468408862    12.0062941368
Ni      6.5527844935     5.6749071123    12.0062941368
Ni      6.5528213531     1.4187108174    12.0062941368
Ni      7.7814983941     3.5468408862    12.0062941368
Ni      9.0101385754     5.6749071123    12.0062941368
Ni      2.1270639026     0.5717541383    14.2320658113
Ni      3.3557587110     2.6999519473    14.2316167175
Ni      4.5844758496     4.8280160392    14.2322062837
Ni      4.5845380093     0.5717328577    14.2321878621
Ni      5.8131348799     2.7000896865    14.2321011974
Ni      7.0417837822     4.8279008014    14.2322213020
Ni      7.0418334667     0.5718313822    14.2319792377
Ni      8.2703920602     2.6999228083    14.2314769607
Ni      9.4991770035     4.8278799063    14.2315790678
Ni      0.1961815004    -0.3397243270    16.4058167508
Ni      1.4245903710     1.7883029079    16.4055317444
Ni      2.6533904389     3.9165473533    16.4055318485
Ni      2.6534285709    -0.3399063244    16.4057955217
Ni      3.8822393859     1.7882884201    16.4056522106
Ni      5.1109495330     3.9163905762    16.4057801080
Ni      5.1108692750    -0.3398039004    16.4059993430
Ni      6.3395724763     1.7883094614    16.4058946470
Ni      7.5679906635     3.9163169650    16.4058888942
36
Step 9 | ATOMIC_POSITIONS (crystal) | Cartesian Angstrom
Ni      0.0000000000     0.0000000000     9.9999545457
Ni      1.2286401814     2.1280662261     9.9999545457
Ni      2.4573172223     4.2561962949     9.9999545457
Ni      2.4572803627     0.0000000000     9.9999545457
Ni      3.6859205441     2.1280662261     9.9999545457
Ni      4.9145975851     4.2561962949     9.9999545457
Ni      4.9146344446     0.0000000000     9.9999545457
Ni      6.1432746260     2.1280662261     9.9999545457
Ni      7.3719516669     4.2561962949     9.9999545457
Ni      1.6381869085     1.4187108174    12.0062941368
Ni      2.8668639494     3.5468408862    12.0062941368
Ni      4.0955041308     5.6749071123    12.0062941368
Ni      4.0954672712     1.4187108174    12.0062941368
Ni      5.3241443122     3.5468408862    12.0062941368
Ni      6.5527844935     5.6749071123    12.0062941368
Ni      6.5528213531     1.4187108174    12.0062941368
Ni      7.7814983941     3.5468408862    12.0062941368
Ni      9.0101385754     5.6749071123    12.0062941368
Ni      2.1407509708     0.5481888071    14.2586255272
Ni      3.3692471927     2.6770696051    14.2581503986
Ni      4.5980566922     4.8046623080    14.2587067201
Ni      4.5976393280     0.5483240966    14.2586636063
Ni      5.8263327036     2.6775580235    14.2585497203
Ni      7.0550733041     4.8048096108    14.2587909364
Ni      7.0551237899     0.5484139481    14.2584720322
Ni      8.2837431062     2.6773455617    14.2580739438
Ni      9.5123334434     4.8046151551    14.2581023958
Ni      0.2258096481    -0.3912571243    16.4109775475
Ni      1.4542561678     1.7375461982    16.4106593848
Ni      2.6827948257     3.8654958853    16.4104976469
Ni      2.6831196032    -0.3914110948    16.4107873238
Ni      3.9116505847     1.7373842862    16.4106744707
Ni      5.1405872859     3.8654676733    16.4107973698
Ni      5.1400127609    -0.3913191825    16.4110369909
Ni      6.3689267916     1.7376684223    16.4111091135
Ni      7.5973825166     3.8655940415    16.4108663206
36
Step 10 | ATOMIC_POSITIONS (crystal) | Cartesian Angstrom
Ni      0.0000000000     0.0000000000     9.9999545457
Ni      1.2286401814     2.1280662261     9.9999545457
Ni      2.4573172223     4.2561962949     9.9999545457
Ni      2.4572803627     0.0000000000     9.9999545457
Ni      3.6859205441     2.1280662261     9.9999545457
Ni      4.9145975851     4.2561962949     9.9999545457
Ni      4.9146344446     0.0000000000     9.9999545457
Ni      6.1432746260     2.1280662261     9.9999545457
Ni      7.3719516669     4.2561962949     9.9999545457
Ni      1.6381869085     1.4187108174    12.0062941368
Ni      2.8668639494     3.5468408862    12.0062941368
Ni      4.0955041308     5.6749071123    12.0062941368
Ni      4.0954672712     1.4187108174    12.0062941368
Ni      5.3241443122     3.5468408862    12.0062941368
Ni      6.5527844935     5.6749071123    12.0062941368
Ni      6.5528213531     1.4187108174    12.0062941368
Ni      7.7814983941     3.5468408862    12.0062941368
Ni      9.0101385754     5.6749071123    12.0062941368
Ni      2.1608667288     0.5133060892    14.2884239529
Ni      3.3892114998     2.6427997317    14.2879795504
Ni      4.6181714826     4.7701372728    14.2883780212
Ni      4.6172536125     0.5135980530    14.2883853352
Ni      5.8461653461     2.6436189137    14.2882341663
Ni      7.0748104678     4.7704709610    14.2885343497
Ni      7.0751039057     0.5136639839    14.2882425003
Ni      8.3036961361     2.6432250053    14.2880219642
Ni      9.5320919849     4.7700132707    14.2879041129
Ni      0.2697632596    -0.4673561539    16.3940299571
Ni      1.4982053134     1.6620496527    16.3936598576
Ni      2.7264702886     3.7897387234    16.3933621512
Ni      2.7269273540    -0.4674570061    16.3937060937
Ni      3.9551430328     1.6618434072    16.3935815346
Ni      5.1844007960     3.7900145121    16.3937676889
Ni      5.1833622134    -0.4674586571    16.3939619143
Ni      6.4125797771     1.6623366061    16.3942403873
Ni      7.6410155405     3.7902051742    16.3937404156
36
Step 11 | ATOMIC_POSITIONS (crystal) | Cartesian Angstrom
Ni      0.0000000000     0.0000000000     9.9999545457
Ni      1.2286401814     2.1280662261     9.9999545457
Ni      2.4573172223     4.2561962949     9.9999545457
Ni      2.4572803627     0.0000000000     9.9999545457
Ni      3.6859205441     2.1280662261     9.9999545457
Ni      4.9145975851     4.2561962949     9.9999545457
Ni      4.9146344446     0.0000000000     9.9999545457
Ni      6.1432746260     2.1280662261     9.9999545457
Ni      7.3719516669     4.2561962949     9.9999545457
Ni      1.6381869085     1.4187108174    12.0062941368
Ni      2.8668639494     3.5468408862    12.0062941368
Ni      4.0955041308     5.6749071123    12.0062941368
Ni      4.0954672712     1.4187108174    12.0062941368
Ni      5.3241443122     3.5468408862    12.0062941368
Ni      6.5527844935     5.6749071123    12.0062941368
Ni      6.5528213531     1.4187108174    12.0062941368
Ni      7.7814983941     3.5468408862    12.0062941368
Ni      9.0101385754     5.6749071123    12.0062941368
Ni      2.1741357958     0.4902432664    14.2913809972
Ni      3.4025082222     2.6200063421    14.2909924422
Ni      4.6314898272     4.7472872541    14.2912540053
Ni      4.6302764741     0.4907042223    14.2912361640
Ni      5.8593249955     2.6209705036    14.2912438943
Ni      7.0878107238     4.7477205011    14.2915172519
Ni      7.0883822042     0.4906751720    14.2912571589
Ni      8.3169229325     2.6204315321    14.2912828320
Ni      9.5452649277     4.7471238221    14.2909005477
Ni      0.2981723804    -0.5164199737    16.3534979216
Ni      1.5265243395     1.6133301419    16.3531188767
Ni      2.7547176932     3.7408632024    16.3527970870
Ni      2.7550958367    -0.5165280113    16.3531722889
Ni      3.9831956224     1.6131935194    16.3529739707
Ni      5.2126737012     3.7413963745    16.3532626900
Ni      5.2112965416    -0.5165199244    16.3533610711
Ni      6.4407143992     1.6138335130    16.3537134464
Ni      7.6690505473     3.7415708551    16.3531722082
36
Step 12 | ATOMIC_POSITIONS (crystal) | Cartesian Angstrom
Ni      0.0000000000     0.0000000000     9.9999545457
Ni      1.2286401814     2.1280662261     9.9999545457
Ni      2.4573172223     4.2561962949     9.9999545457
Ni      2.4572803627     0.0000000000     9.9999545457
Ni      3.6859205441     2.1280662261     9.9999545457
Ni      4.9145975851     4.2561962949     9.9999545457
Ni      4.9146344446     0.0000000000     9.9999545457
Ni      6.1432746260     2.1280662261     9.9999545457
Ni      7.3719516669     4.2561962949     9.9999545457
Ni      1.6381869085     1.4187108174    12.0062941368
Ni      2.8668639494     3.5468408862    12.0062941368
Ni      4.0955041308     5.6749071123    12.0062941368
Ni      4.0954672712     1.4187108174    12.0062941368
Ni      5.3241443122     3.5468408862    12.0062941368
Ni      6.5527844935     5.6749071123    12.0062941368
Ni      6.5528213531     1.4187108174    12.0062941368
Ni      7.7814983941     3.5468408862    12.0062941368
Ni      9.0101385754     5.6749071123    12.0062941368
Ni      2.1843082494     0.4728324658    14.2666528890
Ni      3.4128178248     2.6022902607    14.2664352463
Ni      4.6413975148     4.7298015725    14.2663476137
Ni      4.6405405585     0.4733003103    14.2665815210
Ni      5.8693569072     2.6029580386    14.2666433842
Ni      7.0979892943     4.7303659132    14.2665422294
Ni      7.0983173017     0.4730640823    14.2669107834
Ni      8.3271670792     2.6026296870    14.2669611800
Ni      9.5554911517     4.7298302091    14.2663551020
Ni      0.3181360572    -0.5513405068    16.2917644786
Ni      1.5468545634     1.5781956785    16.2914343003
Ni      2.7751133587     3.7058573161    16.2911340025
Ni      2.7753666710    -0.5512713365    16.2916212534
Ni      4.0035119447     1.5781124712    16.2911732394
Ni      5.2326297805     3.7062683821    16.2916994359
Ni      5.2316601706    -0.5512973339    16.2914995721
Ni      6.4607127310     1.5785024175    16.2918695363
Ni      7.6894072540     3.7065537753    16.2915746478
36
Step 13 | ATOMIC_POSITIONS (crystal) | Cartesian Angstrom
Ni      0.0000000000     0.0000000000     9.9999545457
Ni      1.2286401814     2.1280662261     9.9999545457
Ni      2.4573172223     4.2561962949     9.9999545457
Ni      2.4572803627     0.0000000000     9.9999545457
Ni      3.6859205441     2.1280662261     9.9999545457
Ni      4.9145975851     4.2561962949     9.9999545457
Ni      4.9146344446     0.0000000000     9.9999545457
Ni      6.1432746260     2.1280662261     9.9999545457
Ni      7.3719516669     4.2561962949     9.9999545457
Ni      1.6381869085     1.4187108174    12.0062941368
Ni      2.8668639494     3.5468408862    12.0062941368
Ni      4.0955041308     5.6749071123    12.0062941368
Ni      4.0954672712     1.4187108174    12.0062941368
Ni      5.3241443122     3.5468408862    12.0062941368
Ni      6.5527844935     5.6749071123    12.0062941368
Ni      6.5528213531     1.4187108174    12.0062941368
Ni      7.7814983941     3.5468408862    12.0062941368
Ni      9.0101385754     5.6749071123    12.0062941368
Ni      2.1907432797     0.4618014554    14.2094838595
Ni      3.4195369908     2.5904419281    14.2094326615
Ni      4.6477152185     4.7184428816    14.2091075492
Ni      4.6475160688     0.4621220239    14.2093809120
Ni      5.8761287777     2.5905544507    14.2097520028
Ni      7.1047711776     4.7188752947    14.2092056441
Ni      7.1048094083     0.4617801237    14.2101661659
Ni      8.3338670981     2.5905230689    14.2103111526
Ni      9.5622907700     4.7186070369    14.2093856266
Ni      0.3285800347    -0.5695791829    16.2135954379
Ni      1.5575231955     1.5593543102    16.2133224732
Ni      2.7860499655     3.6872745097    16.2131932280
Ni      2.7859676584    -0.5694164078    16.2137774030
Ni      4.0143833304     1.5594370681    16.2130444503
Ni      5.2430647978     3.6875316563    16.2138131300
Ni      5.2427402289    -0.5694527113    16.2132441398
Ni      6.4713615976     1.5594705146    16.2134693801
Ni      7.7002754701     3.6877321324    16.2136231171
36
Step 14 | ATOMIC_POSITIONS (crystal) | Cartesian Angstrom
Ni      0.0000000000     0.0000000000     9.9999545457
Ni      1.2286401814     2.1280662261     9.9999545457
Ni      2.4573172223     4.2561962949     9.9999545457
Ni      2.4572803627     0.0000000000     9.9999545457
Ni      3.6859205441     2.1280662261     9.9999545457
Ni      4.9145975851     4.2561962949     9.9999545457
Ni      4.9146344446     0.0000000000     9.9999545457
Ni      6.1432746260     2.1280662261     9.9999545457
Ni      7.3719516669     4.2561962949     9.9999545457
Ni      1.6381869085     1.4187108174    12.0062941368
Ni      2.8668639494     3.5468408862    12.0062941368
Ni      4.0955041308     5.6749071123    12.0062941368
Ni      4.0954672712     1.4187108174    12.0062941368
Ni      5.3241443122     3.5468408862    12.0062941368
Ni      6.5527844935     5.6749071123    12.0062941368
Ni      6.5528213531     1.4187108174    12.0062941368
Ni      7.7814983941     3.5468408862    12.0062941368
Ni      9.0101385754     5.6749071123    12.0062941368
Ni      2.2025534824     0.4415059845    14.1237225133
Ni      3.4317739433     2.5689102264    14.1238131329
Ni      4.6594379564     4.6975627973    14.1232893224
Ni      4.6601861372     0.4416167987    14.1235937261
Ni      5.8884716362     2.5682539760    14.1243245349
Ni      7.1171340700     4.6977534339    14.1232101018
Ni      7.1167147688     0.4412065409    14.1249327282
Ni      8.3459776359     2.5686651972    14.1250757609
Ni      9.5746476532     4.6979627950    14.1238566890
Ni      0.3488693449    -0.6047870992    16.1359513082
Ni      1.5780851017     1.5228897572    16.1358507414
Ni      2.8070448224     3.6513399788    16.1358619062
Ni      2.8065151607    -0.6045249945    16.1365188673
Ni      4.0354148574     1.5231997023    16.1355294981
Ni      5.2634018083     3.6512776040    16.1364427872
Ni      5.2640848921    -0.6045238562    16.1355195744
Ni      6.4920454054     1.5227171714    16.1355759632
Ni      7.7212210543     3.6513405758    16.1362670146
36
Step 15 | ATOMIC_POSITIONS (crystal) | Cartesian Angstrom
Ni      0.0000000000     0.0000000000     9.9999545457
Ni      1.2286401814     2.1280662261     9.9999545457
Ni      2.4573172223     4.2561962949     9.9999545457
Ni      2.4572803627     0.0000000000     9.9999545457
Ni      3.6859205441     2.1280662261     9.9999545457
Ni      4.9145975851     4.2561962949     9.9999545457
Ni      4.9146344446     0.0000000000     9.9999545457
Ni      6.1432746260     2.1280662261     9.9999545457
Ni      7.3719516669     4.2561962949     9.9999545457
Ni      1.6381869085     1.4187108174    12.0062941368
Ni      2.8668639494     3.5468408862    12.0062941368
Ni      4.0955041308     5.6749071123    12.0062941368
Ni      4.0954672712     1.4187108174    12.0062941368
Ni      5.3241443122     3.5468408862    12.0062941368
Ni      6.5527844935     5.6749071123    12.0062941368
Ni      6.5528213531     1.4187108174    12.0062941368
Ni      7.7814983941     3.5468408862    12.0062941368
Ni      9.0101385754     5.6749071123    12.0062941368
Ni      2.2216150116     0.4083376926    14.0912830750
Ni      3.4510004983     2.5353702205    14.0914097910
Ni      4.6787058420     4.6641583356    14.0910062698
Ni      4.6796956524     0.4083451405    14.0911004749
Ni      5.9079943188     2.5345265395    14.0920065905
Ni      7.1364964323     4.6640804482    14.0909311967