36
Step 1 | ATOMIC_POSITIONS (angstrom) | Cartesian Angstrom
Ni      0.0000000000     0.0000000000    10.0000000187
Ni      1.2286496544     2.1280836261    10.0000000187
Ni      2.4572993456     4.2561673160    10.0000000187
Ni      2.4572993088     0.0000000000    10.0000000187
Ni      3.6859489631     2.1280836261    10.0000000187
Ni      4.9145986544     4.2561673160    10.0000000187
Ni      4.9145986912     0.0000000000    10.0000000187
Ni      6.1432483456     2.1280836261    10.0000000187
Ni      7.3718980369     4.2561673160    10.0000000187
Ni      1.6381995392     1.4187224174    12.0063764263
Ni      2.8668492304     3.5468061073    12.0063764263
Ni      4.0954988848     5.6748897334    12.0063764263
Ni      4.0954988479     1.4187224174    12.0063764263
Ni      5.3241485392     3.5468061073    12.0063764263
Ni      6.5527981936     5.6748897334    12.0063764263
Ni      6.5527982304     1.4187224174    12.0063764263
Ni      7.7814479217     3.5468061073    12.0063764263
Ni      9.0100975760     5.6748897334    12.0063764263
Ni      2.0498028035     0.7058285951    14.0144165824
Ni      3.2784414293     2.8339117345    14.0144162155
Ni      4.5070864819     4.9619819142    14.0144175547
Ni      4.5070892321     0.7058212582    14.0144159424
Ni      5.7357396841     2.8339094071    14.0144160148
Ni      6.9644034555     4.9619869341    14.0144134404
Ni      6.9643787342     0.7058265455    14.0144194530
Ni      8.1930391645     2.8339272253    14.0144182639
Ni      9.4216789812     4.9619864622    14.0144147904
Ni      0.0072354765    -0.0125456979    16.0451233429
Ni      1.2358885487     2.1155529155    16.0451178219
Ni      2.4645341117     4.2436275837    16.0451111594
Ni      2.4645460207    -0.0125449185    16.0451199785
Ni      3.6931934468     2.1155424255    16.0451116811
Ni      4.9218385916     4.2436236803    16.0451172601
Ni      4.9218369951    -0.0125445670    16.0451103537
Ni      6.1504875034     2.1155445465    16.0451169855
Ni      7.3791457808     4.2436257575    16.0451112550
36
Step 2 | ATOMIC_POSITIONS (angstrom) | Cartesian Angstrom
Ni      0.0000000000     0.0000000000    10.0000000187
Ni      1.2286496544     2.1280836261    10.0000000187
Ni      2.4572993456     4.2561673160    10.0000000187
Ni      2.4572993088     0.0000000000    10.0000000187
Ni      3.6859489631     2.1280836261    10.0000000187
Ni      4.9145986544     4.2561673160    10.0000000187
Ni      4.9145986912     0.0000000000    10.0000000187
Ni      6.1432483456     2.1280836261    10.0000000187
Ni      7.3718980369     4.2561673160    10.0000000187
Ni      1.6381995392     1.4187224174    12.0063764263
Ni      2.8668492304     3.5468061073    12.0063764263
Ni      4.0954988848     5.6748897334    12.0063764263
Ni      4.0954988479     1.4187224174    12.0063764263
Ni      5.3241485392     3.5468061073    12.0063764263
Ni      6.5527981936     5.6748897334    12.0063764263
Ni      6.5527982304     1.4187224174    12.0063764263
Ni      7.7814479217     3.5468061073    12.0063764263
Ni      9.0100975760     5.6748897334    12.0063764263
Ni      2.0532323161     0.6998895765    14.0217709964
Ni      3.2818636768     2.8279700696    14.0217669320
Ni      4.5105178645     4.9560466042    14.0217686726
Ni      4.5105123232     0.6998788922    14.0217666801
Ni      5.7391727229     2.8279709639    14.0217711849
Ni      6.9678329874     4.9560495338    14.0217685839
Ni      6.9678137659     0.6998872211    14.0217732366
Ni      8.1964725259     2.8279851733    14.0217738783
Ni      9.4251049964     4.9560434709    14.0217646109
Ni      0.0157881862    -0.0273539274    16.0730304522
Ni      1.2444400099     2.1007452941    16.0730191321
Ni      2.4730788675     4.2288154106    16.0730154329
Ni      2.4730984279    -0.0273537285    16.0730224905
Ni      3.7017412810     2.1007309748    16.0730170617
Ni      4.9303940487     4.2288143102    16.0730257792
Ni      4.9303825243    -0.0273585028    16.0730162422
Ni      6.1590398682     2.1007385624    16.0730243611
Ni      7.3876963603     4.2288182411    16.0730128297
36
Step 3 | ATOMIC_POSITIONS (angstrom) | Cartesian Angstrom
Ni      0.0000000000     0.0000000000    10.0000000187
Ni      1.2286496544     2.1280836261    10.0000000187
Ni      2.4572993456     4.2561673160    10.0000000187
Ni      2.4572993088     0.0000000000    10.0000000187
Ni      3.6859489631     2.1280836261    10.0000000187
Ni      4.9145986544     4.2561673160    10.0000000187
Ni      4.9145986912     0.0000000000    10.0000000187
Ni      6.1432483456     2.1280836261    10.0000000187
Ni      7.3718980369     4.2561673160    10.0000000187
Ni      1.6381995392     1.4187224174    12.0063764263
Ni      2.8668492304     3.5468061073    12.0063764263
Ni      4.0954988848     5.6748897334    12.0063764263
Ni      4.0954988479     1.4187224174    12.0063764263
Ni      5.3241485392     3.5468061073    12.0063764263
Ni      6.5527981936     5.6748897334    12.0063764263
Ni      6.5527982304     1.4187224174    12.0063764263
Ni      7.7814479217     3.5468061073    12.0063764263
Ni      9.0100975760     5.6748897334    12.0063764263
Ni      2.0594653356     0.6890969866    14.0374144080
Ni      3.2880949711     2.8171786439    14.0374112189
Ni      4.5167493695     4.9452513578    14.0374117811
Ni      4.5167426287     0.6890848393    14.0374101827
Ni      5.7454042302     2.8171804148    14.0374129975
Ni      6.9740654360     4.9452567890    14.0374077791
Ni      6.9740440342     0.6890945916    14.0374178448
Ni      8.2027029237     2.8171979583    14.0374162539
Ni      9.4313331467     4.9452490056    14.0374064554
Ni      0.0293790963    -0.0508968149    16.1139154496
Ni      1.2580298763     2.0772057490    16.1139066544
Ni      2.4866703872     4.2052750143    16.1138984356
Ni      2.4866896690    -0.0508973156    16.1139079991
Ni      3.7153348962     2.0771904778    16.1139007150
Ni      4.9439868866     4.2052734878    16.1139091004
Ni      4.9439735503    -0.0509008010    16.1138999555
Ni      6.1726313380     2.0771990748    16.1139103937
Ni      7.4012878377     4.2052767933    16.1138990130
36
Step 4 | ATOMIC_POSITIONS (angstrom) | Cartesian Angstrom
Ni      0.0000000000     0.0000000000    10.0000000187
Ni      1.2286496544     2.1280836261    10.0000000187
Ni      2.4572993456     4.2561673160    10.0000000187
Ni      2.4572993088     0.0000000000    10.0000000187
Ni      3.6859489631     2.1280836261    10.0000000187
Ni      4.9145986544     4.2561673160    10.0000000187
Ni      4.9145986912     0.0000000000    10.0000000187
Ni      6.1432483456     2.1280836261    10.0000000187
Ni      7.3718980369     4.2561673160    10.0000000187
Ni      1.6381995392     1.4187224174    12.0063764263
Ni      2.8668492304     3.5468061073    12.0063764263
Ni      4.0954988848     5.6748897334    12.0063764263
Ni      4.0954988479     1.4187224174    12.0063764263
Ni      5.3241485392     3.5468061073    12.0063764263
Ni      6.5527981936     5.6748897334    12.0063764263
Ni      6.5527982304     1.4187224174    12.0063764263
Ni      7.7814479217     3.5468061073    12.0063764263
Ni      9.0100975760     5.6748897334    12.0063764263
Ni      2.0699428433     0.6709678442    14.0650432124
Ni      3.2985705314     2.7990627413    14.0650409280
Ni      4.5272004229     4.9271078132    14.0650433467
Ni      4.5272138858     0.6709548071    14.0650385140
Ni      5.7558544361     2.7990537226    14.0650450124
Ni      6.9845395875     4.9271310198    14.0650328248
Ni      6.9844956207     0.6709513209    14.0650529560
Ni      8.2131782282     2.7990868311    14.0650472182
Ni      9.4418051385     4.9271195563    14.0650353196
Ni      0.0508802853    -0.0881741939    16.1736795492
Ni      1.2795476416     2.0399532774    16.1736768853
Ni      2.5081912219     4.1680219211    16.1736509742
Ni      2.5082057824    -0.0881632491    16.1736764115
Ni      3.7368545667     2.0399388725    16.1736550970
Ni      4.9654864241     4.1680105933    16.1736670825
Ni      4.9654922236    -0.0881647326    16.1736546022
Ni      6.1941316997     2.0399359436    16.1736740615
Ni      7.4228054772     4.1680220767    16.1736629498
36
Step 5 | ATOMIC_POSITIONS (angstrom) | Cartesian Angstrom
Ni      0.0000000000     0.0000000000    10.0000000187
Ni      1.2286496544     2.1280836261    10.0000000187
Ni      2.4572993456     4.2561673160    10.0000000187
Ni      2.4572993088     0.0000000000    10.0000000187
Ni      3.6859489631     2.1280836261    10.0000000187
Ni      4.9145986544     4.2561673160    10.0000000187
Ni      4.9145986912     0.0000000000    10.0000000187
Ni      6.1432483456     2.1280836261    10.0000000187
Ni      7.3718980369     4.2561673160    10.0000000187
Ni      1.6381995392     1.4187224174    12.0063764263
Ni      2.8668492304     3.5468061073    12.0063764263
Ni      4.0954988848     5.6748897334    12.0063764263
Ni      4.0954988479     1.4187224174    12.0063764263
Ni      5.3241485392     3.5468061073    12.0063764263
Ni      6.5527981936     5.6748897334    12.0063764263
Ni      6.5527982304     1.4187224174    12.0063764263
Ni      7.7814479217     3.5468061073    12.0063764263
Ni      9.0100975760     5.6748897334    12.0063764263
Ni      2.0870644652     0.6413090846    14.1109310092
Ni      3.3157069225     2.7694099848    14.1109279484
Ni      4.5443200313     4.8974409108    14.1109281132
Ni      4.5443463746     0.6413024799    14.1109222769
Ni      5.7729758635     2.7693950009    14.1109323450
Ni      7.0016607955     4.8974641370    14.1109155946
Ni      7.0016106142     0.6412952067    14.1109400864
Ni      8.2302946645     2.7694334261    14.1109366330
Ni      9.4589309946     4.8974638969    14.1109173551
Ni      0.0850665602    -0.1474039684    16.2604361844
Ni      1.3137356934     1.9807322632    16.2604308015
Ni      2.5423907990     4.1088055221    16.2604013527
Ni      2.5423966893    -0.1473911591    16.2604343372
Ni      3.7710562158     1.9807212121    16.2604043129
Ni      4.9996741685     4.1087842997    16.2604158470
Ni      4.9996894283    -0.1473831206    16.2604037555
Ni      6.2283159384     1.9807140370    16.2604242033
Ni      7.4569958137     4.1087999954    16.2604131947
36
Step 6 | ATOMIC_POSITIONS (angstrom) | Cartesian Angstrom
Ni      0.0000000000     0.0000000000    10.0000000187
Ni      1.2286496544     2.1280836261    10.0000000187
Ni      2.4572993456     4.2561673160    10.0000000187
Ni      2.4572993088     0.0000000000    10.0000000187
Ni      3.6859489631     2.1280836261    10.0000000187
Ni      4.9145986544     4.2561673160    10.0000000187
Ni      4.9145986912     0.0000000000    10.0000000187
Ni      6.1432483456     2.1280836261    10.0000000187
Ni      7.3718980369     4.2561673160    10.0000000187
Ni      1.6381995392     1.4187224174    12.0063764263
Ni      2.8668492304     3.5468061073    12.0063764263
Ni      4.0954988848     5.6748897334    12.0063764263
Ni      4.0954988479     1.4187224174    12.0063764263
Ni      5.3241485392     3.5468061073    12.0063764263
Ni      6.5527981936     5.6748897334    12.0063764263
Ni      6.5527982304     1.4187224174    12.0063764263
Ni      7.7814479217     3.5468061073    12.0063764263
Ni      9.0100975760     5.6748897334    12.0063764263
Ni      2.1053585701     0.6096445326    14.1597198999
Ni      3.3339889247     2.7377326055    14.1597106734
Ni      4.5626053839     4.8657658225    14.1597095902
Ni      4.5626268459     0.6096302330    14.1597049972
Ni      5.7912636851     2.7377202352    14.1597144991
Ni      7.0199528737     4.8657925625    14.1596936543
Ni      7.0198937185     0.6096270739    14.1597312671
Ni      8.2485858127     2.7377654454    14.1597267371
Ni      9.4772082191     4.8657883649    14.1596964867
Ni      0.1210883205    -0.2097976928    16.3397163326
Ni      1.3497641291     1.9183417026    16.3397044498
Ni      2.5784074318     4.0464082521    16.3396693655
Ni      2.5784229181    -0.2097769224    16.3397091206
Ni      3.8070727872     1.9183218131    16.3396701466
Ni      5.0356965255     4.0463881211    16.3396909979
Ni      5.0357078287    -0.2097771809    16.3396705542
Ni      6.2643399373     1.9183168236    16.3396992031
Ni      7.4930280240     4.0464086202    16.3396830955
36
Step 7 | ATOMIC_POSITIONS (angstrom) | Cartesian Angstrom
Ni      0.0000000000     0.0000000000    10.0000000187
Ni      1.2286496544     2.1280836261    10.0000000187
Ni      2.4572993456     4.2561673160    10.0000000187
Ni      2.4572993088     0.0000000000    10.0000000187
Ni      3.6859489631     2.1280836261    10.0000000187
Ni      4.9145986544     4.2561673160    10.0000000187
Ni      4.9145986912     0.0000000000    10.0000000187
Ni      6.1432483456     2.1280836261    10.0000000187
Ni      7.3718980369     4.2561673160    10.0000000187
Ni      1.6381995392     1.4187224174    12.0063764263
Ni      2.8668492304     3.5468061073    12.0063764263
Ni      4.0954988848     5.6748897334    12.0063764263
Ni      4.0954988479     1.4187224174    12.0063764263
Ni      5.3241485392     3.5468061073    12.0063764263
Ni      6.5527981936     5.6748897334    12.0063764263
Ni      6.5527982304     1.4187224174    12.0063764263
Ni      7.7814479217     3.5468061073    12.0063764263
Ni      9.0100975760     5.6748897334    12.0063764263
Ni      2.1139504274     0.5947468970    14.1818961335
Ni      3.3425928634     2.7228317872    14.1818836002
Ni      4.5712056976     4.8508777907    14.1818783377
Ni      4.5712347949     0.5947373633    14.1818778787
Ni      5.7998696521     2.7228145402    14.1818834323
Ni      7.0285489516     4.8508946461    14.1818682640
Ni      7.0284977680     0.5947328152    14.1819021042
Ni      8.2571815267     2.7228555284    14.1819046966
Ni      9.4858144787     4.8508971766    14.1818690257
Ni      0.1380953686    -0.2392463724    16.3651244342
Ni      1.3667691932     1.8888831768    16.3651132891
Ni      2.5954111247     4.0169521897    16.3650778684
Ni      2.5954270731    -0.2392267142    16.3651195225
Ni      3.8240743207     1.8888621619    16.3650782030
Ni      5.0527032921     4.0169336645    16.3651008996
Ni      5.0527136021    -0.2392297617    16.3650777556
Ni      6.2813504628     1.8888575656    16.3651054938
Ni      7.5100353929     4.0169527633    16.3650916667
36
Step 8 | ATOMIC_POSITIONS (angstrom) | Cartesian Angstrom
Ni      0.0000000000     0.0000000000    10.0000000187
Ni      1.2286496544     2.1280836261    10.0000000187
Ni      2.4572993456     4.2561673160    10.0000000187
Ni      2.4572993088     0.0000000000    10.0000000187
Ni      3.6859489631     2.1280836261    10.0000000187
Ni      4.9145986544     4.2561673160    10.0000000187
Ni      4.9145986912     0.0000000000    10.0000000187
Ni      6.1432483456     2.1280836261    10.0000000187
Ni      7.3718980369     4.2561673160    10.0000000187
Ni      1.6381995392     1.4187224174    12.0063764263
Ni      2.8668492304     3.5468061073    12.0063764263
Ni      4.0954988848     5.6748897334    12.0063764263
Ni      4.0954988479     1.4187224174    12.0063764263
Ni      5.3241485392     3.5468061073    12.0063764263
Ni      6.5527981936     5.6748897334    12.0063764263
Ni      6.5527982304     1.4187224174    12.0063764263
Ni      7.7814479217     3.5468061073    12.0063764263
Ni      9.0100975760     5.6748897334    12.0063764263
Ni      2.1246366830     0.5762339672    14.2074812868
Ni      3.3532761383     2.7043055537    14.2074604671
Ni      4.5818990196     4.8323748638    14.2074627573
Ni      4.5819231111     0.5762200719    14.2074556970
Ni      5.8105656952     2.7042899272    14.2074644398
Ni      7.0392383586     4.8323850808    14.2074528328
Ni      7.0391964202     0.5762192236    14.2074839600
Ni      8.2678758959     2.7043228353    14.2074889929
Ni      9.4965044404     4.8323846326    14.2074473492
Ni      0.1598243471    -0.2768622114    16.3822402733
Ni      1.3884964361     1.8512492887    16.3822266405
Ni      2.6171306255     3.9793198044    16.3821920891
Ni      2.6171504631    -0.2768480136    16.3822337611
Ni      3.8457879670     1.8512286749    16.3821909017
Ni      5.0744292420     3.9793120973    16.3822197428
Ni      5.0744321852    -0.2768554538    16.3821878248
Ni      6.3030804721     1.8512298810    16.3822198332
Ni      7.5317593619     3.9793254650    16.3822054201
