36
Step 1 | ATOMIC_POSITIONS (angstrom) | Cartesian Angstrom
Ni      0.0000000000     0.0000000000    10.0000000187
Ni      1.2286496544     2.1280836261    10.0000000187
Ni      2.4572993456     4.2561673160    10.0000000187
Ni      2.4572993088     0.0000000000    10.0000000187
Ni      3.6859489631     2.1280836261    10.0000000187
Ni      4.9145986544     4.2561673160    10.0000000187
Ni      4.9145986912     0.0000000000    10.0000000187
Ni      6.1432483456     2.1280836261    10.0000000187
Ni      7.3718980369     4.2561673160    10.0000000187
Ni      1.6381995392     1.4187224174    12.0063764263
Ni      2.8668492304     3.5468061073    12.0063764263
Ni      4.0954988848     5.6748897334    12.0063764263
Ni      4.0954988479     1.4187224174    12.0063764263
Ni      5.3241485392     3.5468061073    12.0063764263
Ni      6.5527981936     5.6748897334    12.0063764263
Ni      6.5527982304     1.4187224174    12.0063764263
Ni      7.7814479217     3.5468061073    12.0063764263
Ni      9.0100975760     5.6748897334    12.0063764263
Ni      2.0505806460     0.7044624938    14.0176472639
Ni      3.2792232760     2.8325398597    14.0176472119
Ni      4.5078785402     4.9606272183    14.0176458782
Ni      4.5078780589     0.7044547611    14.0176493267
Ni      5.7365314869     2.8325378896    14.0176495694
Ni      6.9651838863     4.9606302102    14.0176472119
Ni      6.9651780711     0.7044595812    14.0176446699
Ni      8.1938322516     2.8325414065    14.0176493267
Ni      9.4224742614     4.9606272571    14.0176472639
Ni      0.0075369069    -0.0130543057    16.0334744107
Ni      1.2361888585     2.1150296480    16.0334709600
Ni      2.4648304806     4.2431132063    16.0334720612
Ni      2.4648389319    -0.0130492091    16.0334720612
Ni      3.6934841202     2.1150214717    16.0334751570
Ni      4.9221351338     4.2431137507    16.0334732169
Ni      4.9221341658    -0.0130561313    16.0334709600
Ni      6.1507866163     2.1150269582    16.0334738931
Ni      7.3794426158     4.2431106014    16.0334751570
36
Step 2 | ATOMIC_POSITIONS (angstrom) | Cartesian Angstrom
Ni      0.0000000000     0.0000000000    10.0000000187
Ni      1.2286496544     2.1280836261    10.0000000187
Ni      2.4572993456     4.2561673160    10.0000000187
Ni      2.4572993088    -0.0000000000    10.0000000187
Ni      3.6859489631     2.1280836261    10.0000000187
Ni      4.9145986544     4.2561673160    10.0000000187
Ni      4.9145986912    -0.0000000000    10.0000000187
Ni      6.1432483456     2.1280836261    10.0000000187
Ni      7.3718980369     4.2561673160    10.0000000187
Ni      1.6381995392     1.4187224174    12.0063764263
Ni      2.8668492304     3.5468061073    12.0063764263
Ni      4.0954988848     5.6748897334    12.0063764263
Ni      4.0954988479     1.4187224174    12.0063764263
Ni      5.3241485392     3.5468061073    12.0063764263
Ni      6.5527981936     5.6748897334    12.0063764263
Ni      6.5527982304     1.4187224174    12.0063764263
Ni      7.7814479217     3.5468061073    12.0063764263
Ni      9.0100975760     5.6748897334    12.0063764263
Ni      2.0540185882     0.6984845326    14.0242674925
Ni      3.2826726772     2.8265676943    14.0242728046
Ni      4.5113226560     4.9546618346    14.0242682943
Ni      4.5113359120     0.6984780882    14.0242720595
Ni      5.7399841099     2.8265577713    14.0242738190
Ni      6.9686312327     4.9546568585    14.0242728046
Ni      6.9686310592     0.6984788305    14.0242636266
Ni      8.1972792757     2.8265584814    14.0242720595
Ni      9.4259323565     4.9546609312    14.0242674925
Ni      0.0161466614    -0.0279668380    16.0485483593
Ni      1.2447967581     2.1001107639    16.0485504629
Ni      2.4734424555     4.2282025259    16.0485532515
Ni      2.4734459724    -0.0279627383    16.0485532515
Ni      3.7020960001     2.1001040538    16.0485579866
Ni      4.9307440501     4.2282026703    16.0485508064
Ni      4.9307503486    -0.0279702331    16.0485504629
Ni      6.1594005357     2.1001072122    16.0485531672
Ni      7.3880555388     4.2281937857    16.0485579866
36
Step 3 | ATOMIC_POSITIONS (angstrom) | Cartesian Angstrom
Ni      0.0000000000     0.0000000000    10.0000000187
Ni      1.2286496544     2.1280836261    10.0000000187
Ni      2.4572993456     4.2561673160    10.0000000187
Ni      2.4572993088    -0.0000000000    10.0000000187
Ni      3.6859489631     2.1280836261    10.0000000187
Ni      4.9145986544     4.2561673160    10.0000000187
Ni      4.9145986912    -0.0000000000    10.0000000187
Ni      6.1432483456     2.1280836261    10.0000000187
Ni      7.3718980369     4.2561673160    10.0000000187
Ni      1.6381995392     1.4187224174    12.0063764263
Ni      2.8668492304     3.5468061073    12.0063764263
Ni      4.0954988848     5.6748897334    12.0063764263
Ni      4.0954988479     1.4187224174    12.0063764263
Ni      5.3241485392     3.5468061073    12.0063764263
Ni      6.5527981936     5.6748897334    12.0063764263
Ni      6.5527982304     1.4187224174    12.0063764263
Ni      7.7814479217     3.5468061073    12.0063764263
Ni      9.0100975760     5.6748897334    12.0063764263
Ni      2.0596871730     0.6887083574    14.0357081828
Ni      3.2882909262     2.8167708396    14.0357028377
Ni      4.5169685881     4.9448827935    14.0357151151
Ni      4.5169594320     0.6886714229    14.0356983799
Ni      5.7456329208     2.8167737438    14.0357000078
Ni      6.9743064331     4.9448928848    14.0357028377
Ni      6.9742875905     0.6886814308    14.0357088924
Ni      8.2029603369     2.8167850376    14.0356983799
Ni      9.4315644802     4.9448637051    14.0357081828
Ni      0.0296264683    -0.0513145483    16.0698079608
Ni      1.2582900844     2.0767666900    16.0697958837
Ni      2.4869057124     4.2048729283    16.0697939225
Ni      2.4869183682    -0.0512870597    16.0697939225
Ni      3.7155443615     2.0767518881    16.0698075526
Ni      4.9442052240     4.2048872332    16.0698131704
Ni      4.9442202465    -0.0513278334    16.0697958837
Ni      6.1728830122     2.0767548778    16.0698207215
Ni      7.4015549268     4.2048710803    16.0698075526
36
Step 4 | ATOMIC_POSITIONS (angstrom) | Cartesian Angstrom
Ni      0.0000000000     0.0000000000    10.0000000187
Ni      1.2286496544     2.1280836261    10.0000000187
Ni      2.4572993456     4.2561673160    10.0000000187
Ni      2.4572993088    -0.0000000000    10.0000000187
Ni      3.6859489631     2.1280836261    10.0000000187
Ni      4.9145986544     4.2561673160    10.0000000187
Ni      4.9145986912    -0.0000000000    10.0000000187
Ni      6.1432483456     2.1280836261    10.0000000187
Ni      7.3718980369     4.2561673160    10.0000000187
Ni      1.6381995392     1.4187224174    12.0063764263
Ni      2.8668492304     3.5468061073    12.0063764263
Ni      4.0954988848     5.6748897334    12.0063764263
Ni      4.0954988479     1.4187224174    12.0063764263
Ni      5.3241485392     3.5468061073    12.0063764263
Ni      6.5527981936     5.6748897334    12.0063764263
Ni      6.5527982304     1.4187224174    12.0063764263
Ni      7.7814479217     3.5468061073    12.0063764263
Ni      9.0100975760     5.6748897334    12.0063764263
Ni      2.0685674924     0.6733565574    14.0539085296
Ni      3.2971397293     2.8014040233    14.0539022691
Ni      4.5258368077     4.9295225866    14.0539312857
Ni      4.5258076743     0.6733018349    14.0538945183
Ni      5.7544993770     2.8014165911    14.0539066482
Ni      6.9831900848     4.9295461883    14.0539022691
Ni      6.9831560540     0.6733208015    14.0539197242
Ni      8.2118466694     2.8014374410    14.0538945183
Ni      9.4404193693     4.9294972229    14.0539085296
Ni      0.0505415780    -0.0875405809    16.0998732606
Ni      1.2792086878     2.0405467860    16.0998435707
Ni      2.5078107181     4.1686621117    16.0998443055
Ni      2.5078253524    -0.0874967339    16.0998443055
Ni      3.7364407917     2.0405288099    16.0998571785
Ni      4.9651083059     4.1686820334    16.0998724147
Ni      4.9651283018    -0.0875538273    16.0998435707
Ni      6.1937918615     2.0405396886    16.0998847577
Ni      7.4224768177     4.1686627017    16.0998571785
36
Step 5 | ATOMIC_POSITIONS (angstrom) | Cartesian Angstrom
Ni      0.0000000000     0.0000000000    10.0000000187
Ni      1.2286496544     2.1280836261    10.0000000187
Ni      2.4572993456     4.2561673160    10.0000000187
Ni      2.4572993088    -0.0000000000    10.0000000187
Ni      3.6859489631     2.1280836261    10.0000000187
Ni      4.9145986544     4.2561673160    10.0000000187
Ni      4.9145986912    -0.0000000000    10.0000000187
Ni      6.1432483456     2.1280836261    10.0000000187
Ni      7.3718980369     4.2561673160    10.0000000187
Ni      1.6381995392     1.4187224174    12.0063764263
Ni      2.8668492304     3.5468061073    12.0063764263
Ni      4.0954988848     5.6748897334    12.0063764263
Ni      4.0954988479     1.4187224174    12.0063764263
Ni      5.3241485392     3.5468061073    12.0063764263
Ni      6.5527981936     5.6748897334    12.0063764263
Ni      6.5527982304     1.4187224174    12.0063764263
Ni      7.7814479217     3.5468061073    12.0063764263
Ni      9.0100975760     5.6748897334    12.0063764263
Ni      2.0822745813     0.6496755864    14.0818321832
Ni      3.3107962494     2.7776932859    14.0818233557
Ni      4.5395233724     4.9058167610    14.0818735023
Ni      4.5394568471     0.6495973123    14.0818097844
Ni      5.7681783033     2.7777239958    14.0818338883
Ni      6.9968959257     4.9058639263    14.0818233557
Ni      6.9968313892     0.6496344261    14.0818611731
Ni      8.2255508017     2.7777646493    14.0818097844
Ni      9.4540741472     4.9057860502    14.0818321832
Ni      0.0828616070    -0.1435205133    16.1422107652
Ni      1.3115363273     1.9845796416    16.1421529049
Ni      2.5401147219     4.1127010330    16.1421581115
Ni      2.5401370663    -0.1434533612    16.1421581115
Ni      3.7687326306     1.9845522494    16.1421633655
Ni      4.9974135520     4.1127277058    16.1422028853
Ni      4.9974334509    -0.1435339567    16.1421529049
Ni      6.2261029099     1.9845753112    16.1422084947
Ni      7.4548080216     4.1127088687    16.1421633655
36
Step 6 | ATOMIC_POSITIONS (angstrom) | Cartesian Angstrom
Ni      0.0000000000     0.0000000000    10.0000000187
Ni      1.2286496544     2.1280836261    10.0000000187
Ni      2.4572993456     4.2561673160    10.0000000187
Ni      2.4572993088    -0.0000000000    10.0000000187
Ni      3.6859489631     2.1280836261    10.0000000187
Ni      4.9145986544     4.2561673160    10.0000000187
Ni      4.9145986912    -0.0000000000    10.0000000187
Ni      6.1432483456     2.1280836261    10.0000000187
Ni      7.3718980369     4.2561673160    10.0000000187
Ni      1.6381995392     1.4187224174    12.0063764263
Ni      2.8668492304     3.5468061073    12.0063764263
Ni      4.0954988848     5.6748897334    12.0063764263
Ni      4.0954988479     1.4187224174    12.0063764263
Ni      5.3241485392     3.5468061073    12.0063764263
Ni      6.5527981936     5.6748897334    12.0063764263
Ni      6.5527982304     1.4187224174    12.0063764263
Ni      7.7814479217     3.5468061073    12.0063764263
Ni      9.0100975760     5.6748897334    12.0063764263
Ni      2.1032685735     0.6133323536    14.1238776096
Ni      3.3317624078     2.7413335582    14.1238706655
Ni      4.5605085441     4.8694693775    14.1239548975
Ni      4.5604257452     0.6132353451    14.1238544386
Ni      5.7891680097     2.7413687578    14.1239151370
Ni      7.0179012945     4.8695268367    14.1238706655
Ni      7.0178149454     0.6132898407    14.1239494271
Ni      8.2465567400     2.7414240672    14.1238544386
Ni      9.4750513141     4.8694331033    14.1238776096
Ni      0.1327540827    -0.2299368161    16.2011791180
Ni      1.3614185269     1.8981610559    16.2010837359
Ni      2.5900035299     4.0263122342    16.2011055869
Ni      2.5900075566    -0.2298527357    16.2011055869
Ni      3.8186151366     1.8981349643    16.2011023906
Ni      5.0472938662     4.0263324672    16.2011693594
Ni      5.0473330417    -0.2299425015    16.2010837359
Ni      6.2759906960     1.8981671309    16.2011590302
Ni      7.5047063328     4.0263007087    16.2011023906
36
Step 7 | ATOMIC_POSITIONS (angstrom) | Cartesian Angstrom
Ni      0.0000000000     0.0000000000    10.0000000187
Ni      1.2286496544     2.1280836261    10.0000000187
Ni      2.4572993456     4.2561673160    10.0000000187
Ni      2.4572993088    -0.0000000000    10.0000000187
Ni      3.6859489631     2.1280836261    10.0000000187
Ni      4.9145986544     4.2561673160    10.0000000187
Ni      4.9145986912    -0.0000000000    10.0000000187
Ni      6.1432483456     2.1280836261    10.0000000187
Ni      7.3718980369     4.2561673160    10.0000000187
Ni      1.6381995392     1.4187224174    12.0063764263
Ni      2.8668492304     3.5468061073    12.0063764263
Ni      4.0954988848     5.6748897334    12.0063764263
Ni      4.0954988479     1.4187224174    12.0063764263
Ni      5.3241485392     3.5468061073    12.0063764263
Ni      6.5527981936     5.6748897334    12.0063764263
Ni      6.5527982304     1.4187224174    12.0063764263
Ni      7.7814479217     3.5468061073    12.0063764263
Ni      9.0100975760     5.6748897334    12.0063764263
Ni      2.1356439687     0.5572903435    14.1866953349
Ni      3.3641015486     2.6852686025    14.1867038888
Ni      4.5928714068     4.8134152551    14.1868178586
Ni      4.5927612334     0.5571702965    14.1866838343
Ni      5.8215285583     2.6853186435    14.1867867750
Ni      7.0502854000     4.8134878413    14.1867038888
Ni      7.0501640701     0.5572595132    14.1868275658
Ni      8.2789427523     2.6853881887    14.1866838343
Ni      9.5073974209     4.8133741836    14.1866953349
Ni      0.2100730684    -0.3638572279    16.2806415609
Ni      1.4387298859     1.7642684795    16.2804774128
Ni      2.6672913505     3.8924225189    16.2805215578
Ni      2.6673155411    -0.3637308094    16.2805215578
Ni      3.8959127165     1.7642190653    16.2805000821
Ni      5.1246082368     3.8924200491    16.2806204311
Ni      5.1246317347    -0.3638423907    16.2804774128
Ni      6.3532854743     1.7642886477    16.2805880598
Ni      7.5820321133     3.8924010913    16.2805000821
36
Step 8 | ATOMIC_POSITIONS (angstrom) | Cartesian Angstrom
Ni      0.0000000000     0.0000000000    10.0000000187
Ni      1.2286496544     2.1280836261    10.0000000187
Ni      2.4572993456     4.2561673160    10.0000000187
Ni      2.4572993088    -0.0000000000    10.0000000187
Ni      3.6859489631     2.1280836261    10.0000000187
Ni      4.9145986544     4.2561673160    10.0000000187
Ni      4.9145986912    -0.0000000000    10.0000000187
Ni      6.1432483456     2.1280836261    10.0000000187
Ni      7.3718980369     4.2561673160    10.0000000187
Ni      1.6381995392     1.4187224174    12.0063764263
Ni      2.8668492304     3.5468061073    12.0063764263
Ni      4.0954988848     5.6748897334    12.0063764263
Ni      4.0954988479     1.4187224174    12.0063764263
Ni      5.3241485392     3.5468061073    12.0063764263
Ni      6.5527981936     5.6748897334    12.0063764263
Ni      6.5527982304     1.4187224174    12.0063764263
Ni      7.7814479217     3.5468061073    12.0063764263
Ni      9.0100975760     5.6748897334    12.0063764263
Ni      2.1491888622     0.5337871484    14.2104030223
Ni      3.3776829254     2.6617846060    14.2104174107
Ni      4.6064358875     4.7899208853    14.2105460911
Ni      4.6063418857     0.5336885493    14.2103972738
Ni      5.8350927690     2.6618247414    14.2105250981
Ni      7.0638324491     4.7899840258    14.2104174107
Ni      7.0637211623     0.5337779406    14.2105740683
Ni      8.2924882157     2.6618861252    14.2103972738
Ni      9.5209793382     4.7898923642    14.2104030223
Ni      0.2421680163    -0.4194473082    16.3023685344
Ni      1.4708020326     1.7086784022    16.3021784768
Ni      2.6993856214     3.8368513245    16.3022345300
Ni      2.6993944717    -0.4193108605    16.3022345300
Ni      3.9280276805     1.7086273618    16.3022045652
Ni      5.1567093978     3.8368192074    16.3023455792
Ni      5.1567380805    -0.4194127230    16.3021784768
Ni      6.3853701496     1.7087163599    16.3023010491
Ni      7.6141184588     3.8367928650    16.3022045652
36
Step 9 | ATOMIC_POSITIONS (angstrom) | Cartesian Angstrom
Ni      0.0000000000     0.0000000000    10.0000000187
Ni      1.2286496544     2.1280836261    10.0000000187
Ni      2.4572993456     4.2561673160    10.0000000187
Ni      2.4572993088    -0.0000000000    10.0000000187
Ni      3.6859489631     2.1280836261    10.0000000187
Ni      4.9145986544     4.2561673160    10.0000000187
Ni      4.9145986912    -0.0000000000    10.0000000187
Ni      6.1432483456     2.1280836261    10.0000000187
Ni      7.3718980369     4.2561673160    10.0000000187
Ni      1.6381995392     1.4187224174    12.0063764263
Ni      2.8668492304     3.5468061073    12.0063764263
Ni      4.0954988848     5.6748897334    12.0063764263
Ni      4.0954988479     1.4187224174    12.0063764263
Ni      5.3241485392     3.5468061073    12.0063764263
Ni      6.5527981936     5.6748897334    12.0063764263
Ni      6.5527982304     1.4187224174    12.0063764263
Ni      7.7814479217     3.5468061073    12.0063764263
Ni      9.0100975760     5.6748897334    12.0063764263
Ni      2.1650676563     0.5062045830    14.2333381039
Ni      3.3936360185     2.6342482043    14.2333627142
Ni      4.6223525281     4.7623524551    14.2335023180
Ni      4.6222860465     0.5061549313    14.2333450842
Ni      5.8509992492     2.6342739096    14.2334979934
Ni      7.0797031260     4.7624000410    14.2333627142
Ni      7.0796236794     0.5062339730    14.2335689368
Ni      8.3083609480     2.6343112679    14.2333450842
Ni      9.5369271434     4.7623496423    14.2333381039
Ni      0.2790706129    -0.4833644804    16.3126938510
Ni      1.5076723258     1.6447617541    16.3124676183
Ni      2.7362823783     3.7729533651    16.3125357439
Ni      2.7362833494    -0.4832133690    16.3125357439
Ni      3.9649675599     1.6447012913    16.3124951375
Ni      5.1936289500     3.7728726671    16.3126620750
Ni      5.1936563749    -0.4833016577    16.3124676183
Ni      6.4222579845     1.6448247558    16.3126114439
Ni      7.6510101201     3.7728389557    16.3124951375
36
Step 10 | ATOMIC_POSITIONS (angstrom) | Cartesian Angstrom
Ni      0.0000000000     0.0000000000    10.0000000187
Ni      1.2286496544     2.1280836261    10.0000000187
Ni      2.4572993456     4.2561673160    10.0000000187
Ni      2.4572993088    -0.0000000000    10.0000000187
Ni      3.6859489631     2.1280836261    10.0000000187
Ni      4.9145986544     4.2561673160    10.0000000187
Ni      4.9145986912    -0.0000000000    10.0000000187
Ni      6.1432483456     2.1280836261    10.0000000187
Ni      7.3718980369     4.2561673160    10.0000000187
Ni      1.6381995392     1.4187224174    12.0063764263
Ni      2.8668492304     3.5468061073    12.0063764263
Ni      4.0954988848     5.6748897334    12.0063764263
Ni      4.0954988479     1.4187224174    12.0063764263
Ni      5.3241485392     3.5468061073    12.0063764263
Ni      6.5527981936     5.6748897334    12.0063764263
Ni      6.5527982304     1.4187224174    12.0063764263
Ni      7.7814479217     3.5468061073    12.0063764263
Ni      9.0100975760     5.6748897334    12.0063764263
Ni      2.1855536231     0.4705449254    14.2522067252
Ni      3.4142715202     2.5986628590    14.2522503129
Ni      4.6429094302     4.7267468562    14.2523998728
Ni      4.6429420661     0.4705782426    14.2522329773
Ni      5.8715773307     2.5986316270    14.2524213808
Ni      7.1002031882     4.7267364997    14.2522503129
Ni      7.1001756315     0.4706369477    14.2525474438
Ni      8.3288432544     2.5986342859    14.2522329773
Ni      9.5575663294     4.7267784459    14.2522067252
Ni      0.3250053105    -0.5629257105    16.3011273507
Ni      1.5535502505     1.5651684456    16.3008438744
Ni      2.7822066511     3.6934174797    16.3009335598
Ni      2.7822013102    -0.5627528986    16.3009335598
Ni      4.0109867136     1.5650868511    16.3008779270
Ni      5.2396050190     3.6932397796    16.3010959259
Ni      5.2396472396    -0.5628297602    16.3008438744
Ni      6.4681901494     1.5652679124    16.3010270453
Ni      7.6969486710     3.6931779795    16.3008779270
