36
Step 1 | ATOMIC_POSITIONS (angstrom) | Cartesian Angstrom
Ni      0.0000000000     0.0000000000    10.0000000187
Ni      1.2286496544     2.1280836261    10.0000000187
Ni      2.4572993456     4.2561673160    10.0000000187
Ni      2.4572993088     0.0000000000    10.0000000187
Ni      3.6859489631     2.1280836261    10.0000000187
Ni      4.9145986544     4.2561673160    10.0000000187
Ni      4.9145986912     0.0000000000    10.0000000187
Ni      6.1432483456     2.1280836261    10.0000000187
Ni      7.3718980369     4.2561673160    10.0000000187
Ni      1.6381995392     1.4187224174    12.0063764263
Ni      2.8668492304     3.5468061073    12.0063764263
Ni      4.0954988848     5.6748897334    12.0063764263
Ni      4.0954988479     1.4187224174    12.0063764263
Ni      5.3241485392     3.5468061073    12.0063764263
Ni      6.5527981936     5.6748897334    12.0063764263
Ni      6.5527982304     1.4187224174    12.0063764263
Ni      7.7814479217     3.5468061073    12.0063764263
Ni      9.0100975760     5.6748897334    12.0063764263
Ni      2.0506696304     0.7043083683    14.0155490733
Ni      3.2793122603     2.8323857341    14.0155490213
Ni      4.5079675246     4.9604730928    14.0155476877
Ni      4.5079670434     0.7043006357    14.0155511360
Ni      5.7366204714     2.8323837641    14.0155513788
Ni      6.9652728708     4.9604760848    14.0155490213
Ni      6.9652670555     0.7043054558    14.0155464792
Ni      8.1939212359     2.8323872810    14.0155511360
Ni      9.4225632457     4.9604731316    14.0155490733
Ni      0.0077053899    -0.0133461268    16.0320621364
Ni      1.2363573414     2.1147378268    16.0320586858
Ni      2.4649989636     4.2428213855    16.0320597870
Ni      2.4650074146    -0.0133410300    16.0320597870
Ni      3.6936526029     2.1147296506    16.0320628827
Ni      4.9223036166     4.2428219300    16.0320609428
Ni      4.9223026489    -0.0133479524    16.0320586858
Ni      6.1509550994     2.1147351370    16.0320616188
Ni      7.3796110990     4.2428187806    16.0320628827
36
Step 2 | ATOMIC_POSITIONS (angstrom) | Cartesian Angstrom
Ni      0.0000000000     0.0000000000    10.0000000187
Ni      1.2286496544     2.1280836261    10.0000000187
Ni      2.4572993456     4.2561673160    10.0000000187
Ni      2.4572993088    -0.0000000000    10.0000000187
Ni      3.6859489631     2.1280836261    10.0000000187
Ni      4.9145986544     4.2561673160    10.0000000187
Ni      4.9145986912    -0.0000000000    10.0000000187
Ni      6.1432483456     2.1280836261    10.0000000187
Ni      7.3718980369     4.2561673160    10.0000000187
Ni      1.6381995392     1.4187224174    12.0063764263
Ni      2.8668492304     3.5468061073    12.0063764263
Ni      4.0954988848     5.6748897334    12.0063764263
Ni      4.0954988479     1.4187224174    12.0063764263
Ni      5.3241485392     3.5468061073    12.0063764263
Ni      6.5527981936     5.6748897334    12.0063764263
Ni      6.5527982304     1.4187224174    12.0063764263
Ni      7.7814479217     3.5468061073    12.0063764263
Ni      9.0100975760     5.6748897334    12.0063764263
Ni      2.0542969986     0.6980134499    14.0200930622
Ni      3.2829471341     2.8260912125    14.0200965630
Ni      4.5115997305     4.9541819275    14.0200893319
Ni      4.5116082894     0.6980073093    14.0201013301
Ni      5.7402584250     2.8260826435    14.0201047594
Ni      6.9689066495     4.9541809310    14.0200965630
Ni      6.9689008199     0.6980115913    14.0200937684
Ni      8.1975507934     2.8260872062    14.0201013301
Ni      9.4262011209     4.9541842793    14.0200930622
Ni      0.0165212045    -0.0286155655    16.0454239061
Ni      1.2451694268     2.0994627245    16.0454218283
Ni      2.4738136216     4.2275488198    16.0454264352
Ni      2.4738265155    -0.0286110306    16.0454264352
Ni      3.7024756649     2.0994492101    16.0454294065
Ni      4.9311247946     4.2275432015    16.0454244929
Ni      4.9311252329    -0.0286169934    16.0454218283
Ni      6.1597739934     2.0994603645    16.0454233676
Ni      7.3884328177     4.2275375644    16.0454294065
36
Step 3 | ATOMIC_POSITIONS (angstrom) | Cartesian Angstrom
Ni      0.0000000000     0.0000000000    10.0000000187
Ni      1.2286496544     2.1280836261    10.0000000187
Ni      2.4572993456     4.2561673160    10.0000000187
Ni      2.4572993088    -0.0000000000    10.0000000187
Ni      3.6859489631     2.1280836261    10.0000000187
Ni      4.9145986544     4.2561673160    10.0000000187
Ni      4.9145986912    -0.0000000000    10.0000000187
Ni      6.1432483456     2.1280836261    10.0000000187
Ni      7.3718980369     4.2561673160    10.0000000187
Ni      1.6381995392     1.4187224174    12.0063764263
Ni      2.8668492304     3.5468061073    12.0063764263
Ni      4.0954988848     5.6748897334    12.0063764263
Ni      4.0954988479     1.4187224174    12.0063764263
Ni      5.3241485392     3.5468061073    12.0063764263
Ni      6.5527981936     5.6748897334    12.0063764263
Ni      6.5527982304     1.4187224174    12.0063764263
Ni      7.7814479217     3.5468061073    12.0063764263
Ni      9.0100975760     5.6748897334    12.0063764263
Ni      2.0602809737     0.6875775919    14.0285721905
Ni      3.2889894040     2.8156845873    14.0285832651
Ni      4.5176123187     4.9437678193    14.0285600238
Ni      4.5176558258     0.6876047612    14.0285776142
Ni      5.7462772496     2.8156577335    14.0285736735
Ni      6.9748979163     4.9437448591    14.0285832651
Ni      6.9749162213     0.6875926103    14.0285553814
Ni      8.2035358962     2.8156486120    14.0285776142
Ni      9.4322468514     4.9437840759    14.0285721905
Ni      0.0302879938    -0.0524603441    16.0639444267
Ni      1.2589206787     2.0756045432    16.0639637382
Ni      2.4875954556     4.2037135763    16.0639677667
Ni      2.4875775248    -0.0524640707    16.0639677667
Ni      3.7162623352     2.0756052615    16.0639739174
Ni      4.9448920618     4.2036975953    16.0639436059
Ni      4.9449113980    -0.0524550175    16.0639637382
Ni      6.1735430380     2.0756116797    16.0639481756
Ni      7.4021889477     4.2036759834    16.0639739174
36
Step 4 | ATOMIC_POSITIONS (angstrom) | Cartesian Angstrom
Ni      0.0000000000     0.0000000000    10.0000000187
Ni      1.2286496544     2.1280836261    10.0000000187
Ni      2.4572993456     4.2561673160    10.0000000187
Ni      2.4572993088    -0.0000000000    10.0000000187
Ni      3.6859489631     2.1280836261    10.0000000187
Ni      4.9145986544     4.2561673160    10.0000000187
Ni      4.9145986912    -0.0000000000    10.0000000187
Ni      6.1432483456     2.1280836261    10.0000000187
Ni      7.3718980369     4.2561673160    10.0000000187
Ni      1.6381995392     1.4187224174    12.0063764263
Ni      2.8668492304     3.5468061073    12.0063764263
Ni      4.0954988848     5.6748897334    12.0063764263
Ni      4.0954988479     1.4187224174    12.0063764263
Ni      5.3241485392     3.5468061073    12.0063764263
Ni      6.5527981936     5.6748897334    12.0063764263
Ni      6.5527982304     1.4187224174    12.0063764263
Ni      7.7814479217     3.5468061073    12.0063764263
Ni      9.0100975760     5.6748897334    12.0063764263
Ni      2.0697920435     0.6710969025    14.0424469598
Ni      3.2985101755     2.7992142245    14.0424588285
Ni      4.5271304402     4.9272819493    14.0424245361
Ni      4.5271689757     0.6711377539    14.0424489509
Ni      5.7557834999     2.7991924251    14.0424319263
Ni      6.9844012833     4.9272644477    14.0424588285
Ni      6.9844266940     0.6711199885    14.0424123814
Ni      8.2130401679     2.7991764789    14.0424489509
Ni      9.4417640123     4.9273069032    14.0424469598
Ni      0.0515936382    -0.0893628027    16.0897255686
Ni      1.2802265804     2.0387119596    16.0897548514
Ni      2.5088959894     4.1668155644    16.0897546267
Ni      2.5088818736    -0.0893598801    16.0897546267
Ni      3.7375692659     2.0387062765    16.0897637599
Ni      4.9661950169     4.1667997947    16.0897133723
Ni      4.9662083618    -0.0893527614    16.0897548514
Ni      6.1948401088     2.0387240710    16.0897327363
Ni      7.4234909407     4.1667741477    16.0897637599
36
Step 5 | ATOMIC_POSITIONS (angstrom) | Cartesian Angstrom
Ni      0.0000000000     0.0000000000    10.0000000187
Ni      1.2286496544     2.1280836261    10.0000000187
Ni      2.4572993456     4.2561673160    10.0000000187
Ni      2.4572993088    -0.0000000000    10.0000000187
Ni      3.6859489631     2.1280836261    10.0000000187
Ni      4.9145986544     4.2561673160    10.0000000187
Ni      4.9145986912    -0.0000000000    10.0000000187
Ni      6.1432483456     2.1280836261    10.0000000187
Ni      7.3718980369     4.2561673160    10.0000000187
Ni      1.6381995392     1.4187224174    12.0063764263
Ni      2.8668492304     3.5468061073    12.0063764263
Ni      4.0954988848     5.6748897334    12.0063764263
Ni      4.0954988479     1.4187224174    12.0063764263
Ni      5.3241485392     3.5468061073    12.0063764263
Ni      6.5527981936     5.6748897334    12.0063764263
Ni      6.5527982304     1.4187224174    12.0063764263
Ni      7.7814479217     3.5468061073    12.0063764263
Ni      9.0100975760     5.6748897334    12.0063764263
Ni      2.0844861391     0.6456099880    14.0639638775
Ni      3.3132216588     2.7737573602    14.0639797926
Ni      4.5418357214     4.9018116552    14.0639289472
Ni      4.5418788048     0.6456667590    14.0639643141
Ni      5.7704831416     2.7737318988    14.0639376873
Ni      6.9990918327     4.9017954973    14.0639797926
Ni      6.9991413773     0.6456334094    14.0639151139
Ni      8.2277437819     2.7737018957    14.0639643141
Ni      9.4564892799     4.9018379858    14.0639638775
Ni      0.0843873934    -0.1461632530    16.1254938295
Ni      1.3130127032     1.9819169189    16.1255434714
Ni      2.5416932020     4.1100370512    16.1255355989
Ni      2.5416549021    -0.1461523560    16.1255355989
Ni      3.7703653072     1.9819185554    16.1255544487
Ni      4.9989753121     4.1100226579    16.1254760287
Ni      4.9990012484    -0.1461438970    16.1255434714
Ni      6.2276239386     1.9819408122    16.1255159222
Ni      7.4562725292     4.1099780823    16.1255544487
36
Step 6 | ATOMIC_POSITIONS (angstrom) | Cartesian Angstrom
Ni      0.0000000000     0.0000000000    10.0000000187
Ni      1.2286496544     2.1280836261    10.0000000187
Ni      2.4572993456     4.2561673160    10.0000000187
Ni      2.4572993088    -0.0000000000    10.0000000187
Ni      3.6859489631     2.1280836261    10.0000000187
Ni      4.9145986544     4.2561673160    10.0000000187
Ni      4.9145986912    -0.0000000000    10.0000000187
Ni      6.1432483456     2.1280836261    10.0000000187
Ni      7.3718980369     4.2561673160    10.0000000187
Ni      1.6381995392     1.4187224174    12.0063764263
Ni      2.8668492304     3.5468061073    12.0063764263
Ni      4.0954988848     5.6748897334    12.0063764263
Ni      4.0954988479     1.4187224174    12.0063764263
Ni      5.3241485392     3.5468061073    12.0063764263
Ni      6.5527981936     5.6748897334    12.0063764263
Ni      6.5527982304     1.4187224174    12.0063764263
Ni      7.7814479217     3.5468061073    12.0063764263
Ni      9.0100975760     5.6748897334    12.0063764263
Ni      2.1070354213     0.6064994334    14.0964421519
Ni      3.3358007907     2.7346843563    14.0964697355
Ni      4.5644057404     4.8627192355    14.0963900459
Ni      4.5644584924     0.6065762706    14.0964464151
Ni      5.7930481731     2.7346481177    14.0964109098
Ni      7.0216404808     4.8627048936    14.0964697355
Ni      7.0217205386     0.6065251548    14.0963787277
Ni      8.2503072941     2.7346020685    14.0964464151
Ni      9.4790853727     4.8627544572    14.0964421519
Ni      0.1347657915    -0.2334211980    16.1745214130
Ni      1.3633743405     1.8946625972    16.1745999575
Ni      2.5920783989     4.0228136650    16.1745851599
Ni      2.5919999720    -0.2333989095    16.1745851599
Ni      3.8207547058     1.8946713560    16.1746162086
Ni      5.0493369241     4.0227937872    16.1744923706
Ni      5.0493848890    -0.2333855152    16.1745999575
Ni      6.2779888934     1.8947061515    16.1745586891
Ni      7.5066361209     4.0227159833    16.1746162086
36
Step 7 | ATOMIC_POSITIONS (angstrom) | Cartesian Angstrom
Ni      0.0000000000     0.0000000000    10.0000000187
Ni      1.2286496544     2.1280836261    10.0000000187
Ni      2.4572993456     4.2561673160    10.0000000187
Ni      2.4572993088    -0.0000000000    10.0000000187
Ni      3.6859489631     2.1280836261    10.0000000187
Ni      4.9145986544     4.2561673160    10.0000000187
Ni      4.9145986912    -0.0000000000    10.0000000187
Ni      6.1432483456     2.1280836261    10.0000000187
Ni      7.3718980369     4.2561673160    10.0000000187
Ni      1.6381995392     1.4187224174    12.0063764263
Ni      2.8668492304     3.5468061073    12.0063764263
Ni      4.0954988848     5.6748897334    12.0063764263
Ni      4.0954988479     1.4187224174    12.0063764263
Ni      5.3241485392     3.5468061073    12.0063764263
Ni      6.5527981936     5.6748897334    12.0063764263
Ni      6.5527982304     1.4187224174    12.0063764263
Ni      7.7814479217     3.5468061073    12.0063764263
Ni      9.0100975760     5.6748897334    12.0063764263
Ni      2.1416520442     0.5465180766    14.1446837877
Ni      3.3704164893     2.6747222482    14.1447365533
Ni      4.5990303160     4.8027477114    14.1445935131
Ni      4.5990770692     0.5465963053    14.1446927617
Ni      5.8276714513     2.6746788408    14.1446293281
Ni      7.0562613403     4.8027457651    14.1447365533
Ni      7.0563539832     0.5465382691    14.1445821753
Ni      8.2849421794     2.6746315188    14.1446927617
Ni      9.5137224399     4.8027849041    14.1446837877
Ni      0.2122835698    -0.3676859285    16.2394712728
Ni      1.4408857060     1.7604273401    16.2395809900
Ni      2.6695748159     3.8885992125    16.2395631940
Ni      2.6694848889    -0.3676200016    16.2395631940
Ni      3.8982594214     1.7604130236    16.2396063446
Ni      5.1268240989     3.8885820634    16.2394264691
Ni      5.1268803490    -0.3676299554    16.2395809900
Ni      6.3554809910     1.7604859013    16.2395261775
Ni      7.5841548897     3.8884657644    16.2396063446
36
Step 8 | ATOMIC_POSITIONS (angstrom) | Cartesian Angstrom
Ni      0.0000000000     0.0000000000    10.0000000187
Ni      1.2286496544     2.1280836261    10.0000000187
Ni      2.4572993456     4.2561673160    10.0000000187
Ni      2.4572993088    -0.0000000000    10.0000000187
Ni      3.6859489631     2.1280836261    10.0000000187
Ni      4.9145986544     4.2561673160    10.0000000187
Ni      4.9145986912    -0.0000000000    10.0000000187
Ni      6.1432483456     2.1280836261    10.0000000187
Ni      7.3718980369     4.2561673160    10.0000000187
Ni      1.6381995392     1.4187224174    12.0063764263
Ni      2.8668492304     3.5468061073    12.0063764263
Ni      4.0954988848     5.6748897334    12.0063764263
Ni      4.0954988479     1.4187224174    12.0063764263
Ni      5.3241485392     3.5468061073    12.0063764263
Ni      6.5527981936     5.6748897334    12.0063764263
Ni      6.5527982304     1.4187224174    12.0063764263
Ni      7.7814479217     3.5468061073    12.0063764263
Ni      9.0100975760     5.6748897334    12.0063764263
Ni      2.1636575356     0.5084684349    14.1728365722
Ni      3.3923665244     2.6366370388    14.1729080018
Ni      4.6210122118     4.7646739510    14.1727120051
Ni      4.6210250834     0.5085166700    14.1728514259
Ni      5.8496551544     2.6366019500    14.1727667074
Ni      7.0782690816     4.7646938724    14.1729080018
Ni      7.0783276401     0.5084787789    14.1727122943
Ni      8.3069461038     2.6365841634    14.1728514259
Ni      9.5356716505     4.7647027686    14.1728365722
Ni      0.2613980545    -0.4527547114    16.2687135648
Ni      1.4900116192     1.6753877111    16.2688294530
Ni      2.7186509183     3.8035479598    16.2688152808
Ni      2.7186033832    -0.4526467794    16.2688152808
Ni      3.9473579563     1.6753246929    16.2688585640
Ni      5.1759260045     3.8035350682    16.2686573819
Ni      5.1759638715    -0.4526940586    16.2688294530
Ni      6.4045797508     1.6754443547    16.2687705889
Ni      7.6332942782     3.8034010206    16.2688585640
36
Step 9 | ATOMIC_POSITIONS (angstrom) | Cartesian Angstrom
Ni      0.0000000000     0.0000000000    10.0000000187
Ni      1.2286496544     2.1280836261    10.0000000187
Ni      2.4572993456     4.2561673160    10.0000000187
Ni      2.4572993088    -0.0000000000    10.0000000187
Ni      3.6859489631     2.1280836261    10.0000000187
Ni      4.9145986544     4.2561673160    10.0000000187
Ni      4.9145986912    -0.0000000000    10.0000000187
Ni      6.1432483456     2.1280836261    10.0000000187
Ni      7.3718980369     4.2561673160    10.0000000187
Ni      1.6381995392     1.4187224174    12.0063764263
Ni      2.8668492304     3.5468061073    12.0063764263
Ni      4.0954988848     5.6748897334    12.0063764263
Ni      4.0954988479     1.4187224174    12.0063764263
Ni      5.3241485392     3.5468061073    12.0063764263
Ni      6.5527981936     5.6748897334    12.0063764263
Ni      6.5527982304     1.4187224174    12.0063764263
Ni      7.7814479217     3.5468061073    12.0063764263
Ni      9.0100975760     5.6748897334    12.0063764263
Ni      2.1805636718     0.4792511266    14.1903630303
Ni      3.4092175933     2.6073782251    14.1904557062
Ni      4.6378943795     4.7354331788    14.1902064015
Ni      4.6378805224     0.4792653925    14.1903825135
Ni      5.8665465815     2.6073451401    14.1902839445
Ni      7.0951824231     4.7354710119    14.1904557062
Ni      7.0952003163     0.4792544466    14.1902237011
Ni      8.3238507337     2.6073612862    14.1903825135
Ni      9.5525215137     4.7354529711    14.1903630303
Ni      0.2985914881    -0.5171756280    16.2766756057
Ni      1.5272094080     1.6110007860    16.2768020777
Ni      2.7558026300     3.7391496130    16.2767981780
Ni      2.7557981316    -0.5170202789    16.2767981780
Ni      3.9845408569     1.6108816407    16.2768374018
Ni      5.2131085208     3.7391330608    16.2766140554
Ni      5.2131256898    -0.5171017512    16.2768020777
Ni      6.4417547202     1.6110554189    16.2767320465
Ni      7.6705121482     3.7389781580    16.2768374018
36
Step 10 | ATOMIC_POSITIONS (angstrom) | Cartesian Angstrom
Ni      0.0000000000     0.0000000000    10.0000000187
Ni      1.2286496544     2.1280836261    10.0000000187
Ni      2.4572993456     4.2561673160    10.0000000187
Ni      2.4572993088    -0.0000000000    10.0000000187
Ni      3.6859489631     2.1280836261    10.0000000187
Ni      4.9145986544     4.2561673160    10.0000000187
Ni      4.9145986912    -0.0000000000    10.0000000187
Ni      6.1432483456     2.1280836261    10.0000000187
Ni      7.3718980369     4.2561673160    10.0000000187
Ni      1.6381995392     1.4187224174    12.0063764263
Ni      2.8668492304     3.5468061073    12.0063764263
Ni      4.0954988848     5.6748897334    12.0063764263
Ni      4.0954988479     1.4187224174    12.0063764263
Ni      5.3241485392     3.5468061073    12.0063764263
Ni      6.5527981936     5.6748897334    12.0063764263
Ni      6.5527982304     1.4187224174    12.0063764263
Ni      7.7814479217     3.5468061073    12.0063764263
Ni      9.0100975760     5.6748897334    12.0063764263
Ni      2.1996296296     0.4464071907    14.2028357683
Ni      3.4281480561     2.5744188450    14.2029634603
Ni      4.6568994927     4.7025153572    14.2026403994
Ni      4.6568188314     0.4463323055    14.2028634501
Ni      5.8855647876     2.5744046408    14.2027445789
Ni      7.1142608522     4.7025970601    14.2029634603
Ni      7.1141742450     0.4463906379    14.2026935330
Ni      8.3429024692     2.5744936860    14.2028634501
Ni      9.5714322176     4.7025193993    14.2028357683
Ni      0.3394081703    -0.5878721954    16.2663941243
Ni      1.5680441834     1.5403659224    16.2665120658
Ni      2.7965310758     3.6684801564    16.2665313193
Ni      2.7966354534    -0.5876268759    16.2665313193
Ni      4.0253294332     1.5401323179    16.2665524105
Ni      5.2539119996     3.6684593625    16.2663207041
Ni      5.2538798884    -0.5877831359    16.2665120658
Ni      6.4825427299     1.5404085138    16.2664324308
Ni      7.7113885709     3.6682795534    16.2665524105
36
Step 11 | ATOMIC_POSITIONS (angstrom) | Cartesian Angstrom
Ni      0.0000000000     0.0000000000    10.0000000187
Ni      1.2286496544     2.1280836261    10.0000000187
Ni      2.4572993456     4.2561673160    10.0000000187
Ni      2.4572993088    -0.0000000000    10.0000000187
Ni      3.6859489631     2.1280836261    10.0000000187
Ni      4.9145986544     4.2561673160    10.0000000187
Ni      4.9145986912    -0.0000000000    10.0000000187
Ni      6.1432483456     2.1280836261    10.0000000187
Ni      7.3718980369     4.2561673160    10.0000000187
Ni      1.6381995392     1.4187224174    12.0063764263
Ni      2.8668492304     3.5468061073    12.0063764263
Ni      4.0954988848     5.6748897334    12.0063764263
Ni      4.0954988479     1.4187224174    12.0063764263
Ni      5.3241485392     3.5468061073    12.0063764263
Ni      6.5527981936     5.6748897334    12.0063764263
Ni      6.5527982304     1.4187224174    12.0063764263
Ni      7.7814479217     3.5468061073    12.0063764263
Ni      9.0100975760     5.6748897334    12.0063764263
Ni      2.2250878232     0.4024784842    14.2011533948
Ni      3.4534942599     2.5303770741    14.2013603366
Ni      4.6823065685     4.6585090109    14.2008766837
Ni      4.6821682517     0.4023325994    14.2011955965
Ni      5.9109889710     2.5303686635    14.2010547933
Ni      7.1397290427     4.6586257183    14.2013603366
Ni      7.1395336350     0.4024668860    14.2010302256
Ni      8.3683326223     2.5305405910    14.2011955965
Ni      9.5967464966     4.6585076037    14.2011533948
Ni      0.3906276206    -0.6765868857    16.2134906182
Ni      1.6192306412     1.4517676876    16.2136526278
Ni      2.8476196634     3.5798665295    16.2137146024
Ni      2.8478328116    -0.6761777040    16.2137146024
Ni      4.0765576419     1.4513595964    16.2137057615
Ni      5.3051074986     3.5797861570    16.2134063532
Ni      5.3050149816    -0.6764110261    16.2136526278
Ni      6.5336871670     1.4518237502    16.2135105781
Ni      7.7626538985     3.5795282625    16.2137057615
36
Step 12 | ATOMIC_POSITIONS (angstrom) | Cartesian Angstrom
Ni      0.0000000000     0.0000000000    10.0000000187
Ni      1.2286496544     2.1280836261    10.0000000187
Ni      2.4572993456     4.2561673160    10.0000000187
Ni      2.4572993088    -0.0000000000    10.0000000187
Ni      3.6859489631     2.1280836261    10.0000000187
Ni      4.9145986544     4.2561673160    10.0000000187
Ni      4.9145986912    -0.0000000000    10.0000000187
Ni      6.1432483456     2.1280836261    10.0000000187
Ni      7.3718980369     4.2561673160    10.0000000187
Ni      1.6381995392     1.4187224174    12.0063764263
Ni      2.8668492304     3.5468061073    12.0063764263
Ni      4.0954988848     5.6748897334    12.0063764263
Ni      4.0954988479     1.4187224174    12.0063764263
Ni      5.3241485392     3.5468061073    12.0063764263
Ni      6.5527981936     5.6748897334    12.0063764263
Ni      6.5527982304     1.4187224174    12.0063764263
Ni      7.7814479217     3.5468061073    12.0063764263
Ni      9.0100975760     5.6748897334    12.0063764263
Ni      2.2342471907     0.3867170314    14.1697137276
Ni      3.4625914272     2.5145516576    14.1699978808
Ni      4.6914321320     4.6427030714    14.1693714905
Ni      4.6912605474     0.3865380408    14.1697464634
Ni      5.9201226008     2.5145487526    14.1695914378
Ni      7.1488856717     4.6428346320    14.1699978808
Ni      7.1486286778     0.3867138099    14.1696285274
Ni      8.3774649635     2.5147691527    14.1697464634
Ni      9.6058166314     4.6426946324    14.1697137276
Ni      0.4026422297    -0.6973967992    16.1425600635
Ni      1.6312039243     1.4310780648    16.1427750010
Ni      2.8595143322     3.5591719493    16.1428777452
Ni      2.8598075094    -0.6968260795    16.1428777452
Ni      4.0885753170     1.4305234518    16.1428405641
Ni      5.3170873710     3.5590364094    16.1424787063
Ni      5.3169460790    -0.6971250048    16.1427750010
Ni      6.5456196365     1.4311561068    16.1425876919
Ni      7.7746896916     3.5587025782    16.1428405641
36
Step 13 | ATOMIC_POSITIONS (angstrom) | Cartesian Angstrom
Ni      0.0000000000     0.0000000000    10.0000000187
Ni      1.2286496544     2.1280836261    10.0000000187
Ni      2.4572993456     4.2561673160    10.0000000187
Ni      2.4572993088    -0.0000000000    10.0000000187
Ni      3.6859489631     2.1280836261    10.0000000187
Ni      4.9145986544     4.2561673160    10.0000000187
Ni      4.9145986912    -0.0000000000    10.0000000187
Ni      6.1432483456     2.1280836261    10.0000000187
Ni      7.3718980369     4.2561673160    10.0000000187
Ni      1.6381995392     1.4187224174    12.0063764263
Ni      2.8668492304     3.5468061073    12.0063764263
Ni      4.0954988848     5.6748897334    12.0063764263
Ni      4.0954988479     1.4187224174    12.0063764263
Ni      5.3241485392     3.5468061073    12.0063764263
Ni      6.5527981936     5.6748897334    12.0063764263
Ni      6.5527982304     1.4187224174    12.0063764263
Ni      7.7814479217     3.5468061073    12.0063764263
Ni      9.0100975760     5.6748897334    12.0063764263
Ni      2.2333312962     0.3882870080    14.1148492840
Ni      3.4616823488     2.5161393761    14.1152199397
Ni      4.6905109045     4.6442986841    14.1144520959
Ni      4.6903483080     0.3881129726    14.1148459226
Ni      5.9192087607     2.5161315701    14.1146812694
Ni      7.1479652065     4.6444157763    14.1152199397
Ni      7.1477240899     0.3882806020    14.1148216167
Ni      8.3765571522     2.5163466411    14.1148459226
Ni      9.6049149390     4.6442728085    14.1148492840
Ni      0.3898665672    -0.6752687025    16.0642658965
Ni      1.6183603289     1.4533195295    16.0645600636
Ni      2.8466345760     3.5814685436    16.0647014699
Ni      2.8469379703    -0.6745235863    16.0647014699
Ni      4.0757988364     1.4526598275    16.0646534498
Ni      5.3042460823     3.5812781739    16.0642051668
Ni      5.3041062031    -0.6748813926    16.0645600636
Ni      6.5327579963     1.4534331210    16.0643475015
Ni      7.7619072681     3.5808355228    16.0646534498
36
Step 14 | ATOMIC_POSITIONS (angstrom) | Cartesian Angstrom
Ni      0.0000000000     0.0000000000    10.0000000187
Ni      1.2286496544     2.1280836261    10.0000000187
Ni      2.4572993456     4.2561673160    10.0000000187
Ni      2.4572993088    -0.0000000000    10.0000000187
Ni      3.6859489631     2.1280836261    10.0000000187
Ni      4.9145986544     4.2561673160    10.0000000187
Ni      4.9145986912    -0.0000000000    10.0000000187
Ni      6.1432483456     2.1280836261    10.0000000187
Ni      7.3718980369     4.2561673160    10.0000000187
Ni      1.6381995392     1.4187224174    12.0063764263
Ni      2.8668492304     3.5468061073    12.0063764263
Ni      4.0954988848     5.6748897334    12.0063764263
Ni      4.0954988479     1.4187224174    12.0063764263
Ni      5.3241485392     3.5468061073    12.0063764263
Ni      6.5527981936     5.6748897334    12.0063764263
Ni      6.5527982304     1.4187224174    12.0063764263
Ni      7.7814479217     3.5468061073    12.0063764263
Ni      9.0100975760     5.6748897334    12.0063764263
Ni      2.2322942310     0.3899226809    14.0407867602
Ni      3.4607773754     2.5178917869    14.0412859597
Ni      4.6895350079     4.6459889866    14.0402989097
Ni      4.6894264198     0.3898363797    14.0407091471
Ni      5.9182073208     2.5178661148    14.0405162587
Ni      7.1469000608     4.6460757116    14.0412859597
Ni      7.1467617075     0.3899474972    14.0408358450
Ni      8.3755255820     2.5180067233    14.0407091471
Ni      9.6040169373     4.6459887698    14.0407867602
Ni      0.3751935114    -0.6498542245    15.9891077197
Ni      1.6035550573     1.4788954828    15.9895253214
Ni      2.8318463137     3.6071647933    15.9897189145
Ni      2.8320784966    -0.6488684506    15.9897189145
Ni      4.0611474771     1.4781320820    15.9896577350
Ni      5.2894640224     3.6068814525    15.9890429057
Ni      5.2893594137    -0.6492716746    15.9895253214
Ni      6.5179414956     1.4790960530    15.9892816290
Ni      7.7471733283     3.6062600994    15.9896577350
36
Step 15 | ATOMIC_POSITIONS (angstrom) | Cartesian Angstrom
Ni      0.0000000000     0.0000000000    10.0000000187
Ni      1.2286496544     2.1280836261    10.0000000187
Ni      2.4572993456     4.2561673160    10.0000000187
Ni      2.4572993088    -0.0000000000    10.0000000187
Ni      3.6859489631     2.1280836261    10.0000000187
Ni      4.9145986544     4.2561673160    10.0000000187
Ni      4.9145986912    -0.0000000000    10.0000000187
Ni      6.1432483456     2.1280836261    10.0000000187
Ni      7.3718980369     4.2561673160    10.0000000187
Ni      1.6381995392     1.4187224174    12.0063764263
Ni      2.8668492304     3.5468061073    12.0063764263
Ni      4.0954988848     5.6748897334    12.0063764263
Ni      4.0954988479     1.4187224174    12.0063764263
Ni      5.3241485392     3.5468061073    12.0063764263
Ni      6.5527981936     5.6748897334    12.0063764263
Ni      6.5527982304     1.4187224174    12.0063764263
Ni      7.7814479217     3.5468061073    12.0063764263
Ni      9.0100975760     5.6748897334    12.0063764263
Ni      2.2384237218     0.3791773555    14.0228864884
Ni      3.4670024295     2.5072355609    14.0234504032
Ni      4.6957154678     4.6352841161    14.0223594067
Ni      4.6956484924     0.3791487888    14.0227702950
Ni      5.9243710809     2.5071901692    14.0225617466
Ni      7.1530160963     4.6353565436    14.0234504032