36
Step 1 | ATOMIC_POSITIONS (angstrom) | Cartesian Angstrom
Ni      0.0000000000     0.0000000000    10.0000000187
Ni      1.2286496544     2.1280836261    10.0000000187
Ni      2.4572993456     4.2561673160    10.0000000187
Ni      2.4572993088     0.0000000000    10.0000000187
Ni      3.6859489631     2.1280836261    10.0000000187
Ni      4.9145986544     4.2561673160    10.0000000187
Ni      4.9145986912     0.0000000000    10.0000000187
Ni      6.1432483456     2.1280836261    10.0000000187
Ni      7.3718980369     4.2561673160    10.0000000187
Ni      1.6381995392     1.4187224174    12.0063764263
Ni      2.8668492304     3.5468061073    12.0063764263
Ni      4.0954988848     5.6748897334    12.0063764263
Ni      4.0954988479     1.4187224174    12.0063764263
Ni      5.3241485392     3.5468061073    12.0063764263
Ni      6.5527981936     5.6748897334    12.0063764263
Ni      6.5527982304     1.4187224174    12.0063764263
Ni      7.7814479217     3.5468061073    12.0063764263
Ni      9.0100975760     5.6748897334    12.0063764263
Ni      2.0498028035     0.7058285951    14.0144165824
Ni      3.2784414293     2.8339117345    14.0144162155
Ni      4.5070864819     4.9619819142    14.0144175547
Ni      4.5070892321     0.7058212582    14.0144159424
Ni      5.7357396841     2.8339094071    14.0144160148
Ni      6.9644034555     4.9619869341    14.0144134404
Ni      6.9643787342     0.7058265455    14.0144194530
Ni      8.1930391645     2.8339272253    14.0144182639
Ni      9.4216789812     4.9619864622    14.0144147904
Ni      0.0072354765    -0.0125456979    16.0451233429
Ni      1.2358885487     2.1155529155    16.0451178219
Ni      2.4645341117     4.2436275837    16.0451111594
Ni      2.4645460207    -0.0125449185    16.0451199785
Ni      3.6931934468     2.1155424255    16.0451116811
Ni      4.9218385916     4.2436236803    16.0451172601
Ni      4.9218369951    -0.0125445670    16.0451103537
Ni      6.1504875034     2.1155445465    16.0451169855
Ni      7.3791457808     4.2436257575    16.0451112550
36
Step 2 | ATOMIC_POSITIONS (angstrom) | Cartesian Angstrom
Ni      0.0000000000     0.0000000000    10.0000000187
Ni      1.2286496544     2.1280836261    10.0000000187
Ni      2.4572993456     4.2561673160    10.0000000187
Ni      2.4572993088     0.0000000000    10.0000000187
Ni      3.6859489631     2.1280836261    10.0000000187
Ni      4.9145986544     4.2561673160    10.0000000187
Ni      4.9145986912     0.0000000000    10.0000000187
Ni      6.1432483456     2.1280836261    10.0000000187
Ni      7.3718980369     4.2561673160    10.0000000187
Ni      1.6381995392     1.4187224174    12.0063764263
Ni      2.8668492304     3.5468061073    12.0063764263
Ni      4.0954988848     5.6748897334    12.0063764263
Ni      4.0954988479     1.4187224174    12.0063764263
Ni      5.3241485392     3.5468061073    12.0063764263
Ni      6.5527981936     5.6748897334    12.0063764263
Ni      6.5527982304     1.4187224174    12.0063764263
Ni      7.7814479217     3.5468061073    12.0063764263
Ni      9.0100975760     5.6748897334    12.0063764263
Ni      2.0532323161     0.6998895765    14.0217709964
Ni      3.2818636768     2.8279700696    14.0217669320
Ni      4.5105178645     4.9560466042    14.0217686726
Ni      4.5105123232     0.6998788922    14.0217666801
Ni      5.7391727229     2.8279709639    14.0217711849
Ni      6.9678329874     4.9560495338    14.0217685839
Ni      6.9678137659     0.6998872211    14.0217732366
Ni      8.1964725259     2.8279851733    14.0217738783
Ni      9.4251049964     4.9560434709    14.0217646109
Ni      0.0157881862    -0.0273539274    16.0730304522
Ni      1.2444400099     2.1007452941    16.0730191321
Ni      2.4730788675     4.2288154106    16.0730154329
Ni      2.4730984279    -0.0273537285    16.0730224905
Ni      3.7017412810     2.1007309748    16.0730170617
Ni      4.9303940487     4.2288143102    16.0730257792
Ni      4.9303825243    -0.0273585028    16.0730162422
Ni      6.1590398682     2.1007385624    16.0730243611
Ni      7.3876963603     4.2288182411    16.0730128297
36
Step 3 | ATOMIC_POSITIONS (angstrom) | Cartesian Angstrom
Ni      0.0000000000     0.0000000000    10.0000000187
Ni      1.2286496544     2.1280836261    10.0000000187
Ni      2.4572993456     4.2561673160    10.0000000187
Ni      2.4572993088     0.0000000000    10.0000000187
Ni      3.6859489631     2.1280836261    10.0000000187
Ni      4.9145986544     4.2561673160    10.0000000187
Ni      4.9145986912     0.0000000000    10.0000000187
Ni      6.1432483456     2.1280836261    10.0000000187
Ni      7.3718980369     4.2561673160    10.0000000187
Ni      1.6381995392     1.4187224174    12.0063764263
Ni      2.8668492304     3.5468061073    12.0063764263
Ni      4.0954988848     5.6748897334    12.0063764263
Ni      4.0954988479     1.4187224174    12.0063764263
Ni      5.3241485392     3.5468061073    12.0063764263
Ni      6.5527981936     5.6748897334    12.0063764263
Ni      6.5527982304     1.4187224174    12.0063764263
Ni      7.7814479217     3.5468061073    12.0063764263
Ni      9.0100975760     5.6748897334    12.0063764263
Ni      2.0594653356     0.6890969866    14.0374144080
Ni      3.2880949711     2.8171786439    14.0374112189
Ni      4.5167493695     4.9452513578    14.0374117811
Ni      4.5167426287     0.6890848393    14.0374101827
Ni      5.7454042302     2.8171804148    14.0374129975
Ni      6.9740654360     4.9452567890    14.0374077791
Ni      6.9740440342     0.6890945916    14.0374178448
Ni      8.2027029237     2.8171979583    14.0374162539
Ni      9.4313331467     4.9452490056    14.0374064554
Ni      0.0293790963    -0.0508968149    16.1139154496
Ni      1.2580298763     2.0772057490    16.1139066544
Ni      2.4866703872     4.2052750143    16.1138984356
Ni      2.4866896690    -0.0508973156    16.1139079991
Ni      3.7153348962     2.0771904778    16.1139007150
Ni      4.9439868866     4.2052734878    16.1139091004
Ni      4.9439735503    -0.0509008010    16.1138999555
Ni      6.1726313380     2.0771990748    16.1139103937
Ni      7.4012878377     4.2052767933    16.1138990130
36
Step 4 | ATOMIC_POSITIONS (angstrom) | Cartesian Angstrom
Ni      0.0000000000     0.0000000000    10.0000000187
Ni      1.2286496544     2.1280836261    10.0000000187
Ni      2.4572993456     4.2561673160    10.0000000187
Ni      2.4572993088     0.0000000000    10.0000000187
Ni      3.6859489631     2.1280836261    10.0000000187
Ni      4.9145986544     4.2561673160    10.0000000187
Ni      4.9145986912     0.0000000000    10.0000000187
Ni      6.1432483456     2.1280836261    10.0000000187
Ni      7.3718980369     4.2561673160    10.0000000187
Ni      1.6381995392     1.4187224174    12.0063764263
Ni      2.8668492304     3.5468061073    12.0063764263
Ni      4.0954988848     5.6748897334    12.0063764263
Ni      4.0954988479     1.4187224174    12.0063764263
Ni      5.3241485392     3.5468061073    12.0063764263
Ni      6.5527981936     5.6748897334    12.0063764263
Ni      6.5527982304     1.4187224174    12.0063764263
Ni      7.7814479217     3.5468061073    12.0063764263
Ni      9.0100975760     5.6748897334    12.0063764263
Ni      2.0699428433     0.6709678442    14.0650432124
Ni      3.2985705314     2.7990627413    14.0650409280
Ni      4.5272004229     4.9271078132    14.0650433467
Ni      4.5272138858     0.6709548071    14.0650385140
Ni      5.7558544361     2.7990537226    14.0650450124
Ni      6.9845395875     4.9271310198    14.0650328248
Ni      6.9844956207     0.6709513209    14.0650529560
Ni      8.2131782282     2.7990868311    14.0650472182
Ni      9.4418051385     4.9271195563    14.0650353196
Ni      0.0508802853    -0.0881741939    16.1736795492
Ni      1.2795476416     2.0399532774    16.1736768853
Ni      2.5081912219     4.1680219211    16.1736509742
Ni      2.5082057824    -0.0881632491    16.1736764115
Ni      3.7368545667     2.0399388725    16.1736550970
Ni      4.9654864241     4.1680105933    16.1736670825
Ni      4.9654922236    -0.0881647326    16.1736546022
Ni      6.1941316997     2.0399359436    16.1736740615
Ni      7.4228054772     4.1680220767    16.1736629498
36
Step 5 | ATOMIC_POSITIONS (angstrom) | Cartesian Angstrom
Ni      0.0000000000     0.0000000000    10.0000000187
Ni      1.2286496544     2.1280836261    10.0000000187
Ni      2.4572993456     4.2561673160    10.0000000187
Ni      2.4572993088     0.0000000000    10.0000000187
Ni      3.6859489631     2.1280836261    10.0000000187
Ni      4.9145986544     4.2561673160    10.0000000187
Ni      4.9145986912     0.0000000000    10.0000000187
Ni      6.1432483456     2.1280836261    10.0000000187
Ni      7.3718980369     4.2561673160    10.0000000187
Ni      1.6381995392     1.4187224174    12.0063764263
Ni      2.8668492304     3.5468061073    12.0063764263
Ni      4.0954988848     5.6748897334    12.0063764263
Ni      4.0954988479     1.4187224174    12.0063764263
Ni      5.3241485392     3.5468061073    12.0063764263
Ni      6.5527981936     5.6748897334    12.0063764263
Ni      6.5527982304     1.4187224174    12.0063764263
Ni      7.7814479217     3.5468061073    12.0063764263
Ni      9.0100975760     5.6748897334    12.0063764263
Ni      2.0870644652     0.6413090846    14.1109310092
Ni      3.3157069225     2.7694099848    14.1109279484
Ni      4.5443200313     4.8974409108    14.1109281132
Ni      4.5443463746     0.6413024799    14.1109222769
Ni      5.7729758635     2.7693950009    14.1109323450
Ni      7.0016607955     4.8974641370    14.1109155946
Ni      7.0016106142     0.6412952067    14.1109400864
Ni      8.2302946645     2.7694334261    14.1109366330
Ni      9.4589309946     4.8974638969    14.1109173551
Ni      0.0850665602    -0.1474039684    16.2604361844
Ni      1.3137356934     1.9807322632    16.2604308015
Ni      2.5423907990     4.1088055221    16.2604013527
Ni      2.5423966893    -0.1473911591    16.2604343372
Ni      3.7710562158     1.9807212121    16.2604043129
Ni      4.9996741685     4.1087842997    16.2604158470
Ni      4.9996894283    -0.1473831206    16.2604037555
Ni      6.2283159384     1.9807140370    16.2604242033
Ni      7.4569958137     4.1087999954    16.2604131947
36
Step 6 | ATOMIC_POSITIONS (angstrom) | Cartesian Angstrom
Ni      0.0000000000     0.0000000000    10.0000000187
Ni      1.2286496544     2.1280836261    10.0000000187
Ni      2.4572993456     4.2561673160    10.0000000187
Ni      2.4572993088     0.0000000000    10.0000000187
Ni      3.6859489631     2.1280836261    10.0000000187
Ni      4.9145986544     4.2561673160    10.0000000187
Ni      4.9145986912     0.0000000000    10.0000000187
Ni      6.1432483456     2.1280836261    10.0000000187
Ni      7.3718980369     4.2561673160    10.0000000187
Ni      1.6381995392     1.4187224174    12.0063764263
Ni      2.8668492304     3.5468061073    12.0063764263
Ni      4.0954988848     5.6748897334    12.0063764263
Ni      4.0954988479     1.4187224174    12.0063764263
Ni      5.3241485392     3.5468061073    12.0063764263
Ni      6.5527981936     5.6748897334    12.0063764263
Ni      6.5527982304     1.4187224174    12.0063764263
Ni      7.7814479217     3.5468061073    12.0063764263
Ni      9.0100975760     5.6748897334    12.0063764263
Ni      2.1053585701     0.6096445326    14.1597198999
Ni      3.3339889247     2.7377326055    14.1597106734
Ni      4.5626053839     4.8657658225    14.1597095902
Ni      4.5626268459     0.6096302330    14.1597049972
Ni      5.7912636851     2.7377202352    14.1597144991
Ni      7.0199528737     4.8657925625    14.1596936543
Ni      7.0198937185     0.6096270739    14.1597312671
Ni      8.2485858127     2.7377654454    14.1597267371
Ni      9.4772082191     4.8657883649    14.1596964867
Ni      0.1210883205    -0.2097976928    16.3397163326
Ni      1.3497641291     1.9183417026    16.3397044498
Ni      2.5784074318     4.0464082521    16.3396693655
Ni      2.5784229181    -0.2097769224    16.3397091206
Ni      3.8070727872     1.9183218131    16.3396701466
Ni      5.0356965255     4.0463881211    16.3396909979
Ni      5.0357078287    -0.2097771809    16.3396705542
Ni      6.2643399373     1.9183168236    16.3396992031
Ni      7.4930280240     4.0464086202    16.3396830955
36
Step 7 | ATOMIC_POSITIONS (angstrom) | Cartesian Angstrom
Ni      0.0000000000     0.0000000000    10.0000000187
Ni      1.2286496544     2.1280836261    10.0000000187
Ni      2.4572993456     4.2561673160    10.0000000187
Ni      2.4572993088     0.0000000000    10.0000000187
Ni      3.6859489631     2.1280836261    10.0000000187
Ni      4.9145986544     4.2561673160    10.0000000187
Ni      4.9145986912     0.0000000000    10.0000000187
Ni      6.1432483456     2.1280836261    10.0000000187
Ni      7.3718980369     4.2561673160    10.0000000187
Ni      1.6381995392     1.4187224174    12.0063764263
Ni      2.8668492304     3.5468061073    12.0063764263
Ni      4.0954988848     5.6748897334    12.0063764263
Ni      4.0954988479     1.4187224174    12.0063764263
Ni      5.3241485392     3.5468061073    12.0063764263
Ni      6.5527981936     5.6748897334    12.0063764263
Ni      6.5527982304     1.4187224174    12.0063764263
Ni      7.7814479217     3.5468061073    12.0063764263
Ni      9.0100975760     5.6748897334    12.0063764263
Ni      2.1139504274     0.5947468970    14.1818961335
Ni      3.3425928634     2.7228317872    14.1818836002
Ni      4.5712056976     4.8508777907    14.1818783377
Ni      4.5712347949     0.5947373633    14.1818778787
Ni      5.7998696521     2.7228145402    14.1818834323
Ni      7.0285489516     4.8508946461    14.1818682640
Ni      7.0284977680     0.5947328152    14.1819021042
Ni      8.2571815267     2.7228555284    14.1819046966
Ni      9.4858144787     4.8508971766    14.1818690257
Ni      0.1380953686    -0.2392463724    16.3651244342
Ni      1.3667691932     1.8888831768    16.3651132891
Ni      2.5954111247     4.0169521897    16.3650778684
Ni      2.5954270731    -0.2392267142    16.3651195225
Ni      3.8240743207     1.8888621619    16.3650782030
Ni      5.0527032921     4.0169336645    16.3651008996
Ni      5.0527136021    -0.2392297617    16.3650777556
Ni      6.2813504628     1.8888575656    16.3651054938
Ni      7.5100353929     4.0169527633    16.3650916667
36
Step 8 | ATOMIC_POSITIONS (angstrom) | Cartesian Angstrom
Ni      0.0000000000     0.0000000000    10.0000000187
Ni      1.2286496544     2.1280836261    10.0000000187
Ni      2.4572993456     4.2561673160    10.0000000187
Ni      2.4572993088     0.0000000000    10.0000000187
Ni      3.6859489631     2.1280836261    10.0000000187
Ni      4.9145986544     4.2561673160    10.0000000187
Ni      4.9145986912     0.0000000000    10.0000000187
Ni      6.1432483456     2.1280836261    10.0000000187
Ni      7.3718980369     4.2561673160    10.0000000187
Ni      1.6381995392     1.4187224174    12.0063764263
Ni      2.8668492304     3.5468061073    12.0063764263
Ni      4.0954988848     5.6748897334    12.0063764263
Ni      4.0954988479     1.4187224174    12.0063764263
Ni      5.3241485392     3.5468061073    12.0063764263
Ni      6.5527981936     5.6748897334    12.0063764263
Ni      6.5527982304     1.4187224174    12.0063764263
Ni      7.7814479217     3.5468061073    12.0063764263
Ni      9.0100975760     5.6748897334    12.0063764263
Ni      2.1246366830     0.5762339672    14.2074812868
Ni      3.3532761383     2.7043055537    14.2074604671
Ni      4.5818990196     4.8323748638    14.2074627573
Ni      4.5819231111     0.5762200719    14.2074556970
Ni      5.8105656952     2.7042899272    14.2074644398
Ni      7.0392383586     4.8323850808    14.2074528328
Ni      7.0391964202     0.5762192236    14.2074839600
Ni      8.2678758959     2.7043228353    14.2074889929
Ni      9.4965044404     4.8323846326    14.2074473492
Ni      0.1598243471    -0.2768622114    16.3822402733
Ni      1.3884964361     1.8512492887    16.3822266405
Ni      2.6171306255     3.9793198044    16.3821920891
Ni      2.6171504631    -0.2768480136    16.3822337611
Ni      3.8457879670     1.8512286749    16.3821909017
Ni      5.0744292420     3.9793120973    16.3822197428
Ni      5.0744321852    -0.2768554538    16.3821878248
Ni      6.3030804721     1.8512298810    16.3822198332
Ni      7.5317593619     3.9793254650    16.3822054201
36
Step 9 | ATOMIC_POSITIONS (angstrom) | Cartesian Angstrom
Ni      0.0000000000     0.0000000000    10.0000000187
Ni      1.2286496544     2.1280836261    10.0000000187
Ni      2.4572993456     4.2561673160    10.0000000187
Ni      2.4572993088     0.0000000000    10.0000000187
Ni      3.6859489631     2.1280836261    10.0000000187
Ni      4.9145986544     4.2561673160    10.0000000187
Ni      4.9145986912     0.0000000000    10.0000000187
Ni      6.1432483456     2.1280836261    10.0000000187
Ni      7.3718980369     4.2561673160    10.0000000187
Ni      1.6381995392     1.4187224174    12.0063764263
Ni      2.8668492304     3.5468061073    12.0063764263
Ni      4.0954988848     5.6748897334    12.0063764263
Ni      4.0954988479     1.4187224174    12.0063764263
Ni      5.3241485392     3.5468061073    12.0063764263
Ni      6.5527981936     5.6748897334    12.0063764263
Ni      6.5527982304     1.4187224174    12.0063764263
Ni      7.7814479217     3.5468061073    12.0063764263
Ni      9.0100975760     5.6748897334    12.0063764263
Ni      2.1405787709     0.5485458890    14.2409809269
Ni      3.3692433750     2.6766314256    14.2409490439
Ni      4.5978977492     4.8047456289    14.2409597899
Ni      4.5978948259     0.5485480999    14.2409476070
Ni      5.8265608475     2.6766303652    14.2409527038
Ni      7.0551793603     4.8047238237    14.2409516413
Ni      7.0552074493     0.5485526389    14.2409770355
Ni      8.2838360974     2.6766172384    14.2409847069
Ni      9.5124896912     4.8047285021    14.2409412594
Ni      0.1939843614    -0.3359667641    16.3857683581
Ni      1.4226244533     1.7920975956    16.3857574470
Ni      2.6512676340     3.9201931935    16.3857289905
Ni      2.6512664395    -0.3359728355    16.3857581034
Ni      3.8799085056     1.7920914487    16.3857304356
Ni      5.1085785215     3.9202087704    16.3857501950
Ni      5.1085645778    -0.3359801038    16.3857211776
Ni      6.3372384989     1.7921049021    16.3857502252
Ni      7.5658767724     3.9201991418    16.3857343173
36
Step 10 | ATOMIC_POSITIONS (angstrom) | Cartesian Angstrom
Ni      0.0000000000     0.0000000000    10.0000000187
Ni      1.2286496544     2.1280836261    10.0000000187
Ni      2.4572993456     4.2561673160    10.0000000187
Ni      2.4572993088     0.0000000000    10.0000000187
Ni      3.6859489631     2.1280836261    10.0000000187
Ni      4.9145986544     4.2561673160    10.0000000187
Ni      4.9145986912     0.0000000000    10.0000000187
Ni      6.1432483456     2.1280836261    10.0000000187
Ni      7.3718980369     4.2561673160    10.0000000187
Ni      1.6381995392     1.4187224174    12.0063764263
Ni      2.8668492304     3.5468061073    12.0063764263
Ni      4.0954988848     5.6748897334    12.0063764263
Ni      4.0954988479     1.4187224174    12.0063764263
Ni      5.3241485392     3.5468061073    12.0063764263
Ni      6.5527981936     5.6748897334    12.0063764263
Ni      6.5527982304     1.4187224174    12.0063764263
Ni      7.7814479217     3.5468061073    12.0063764263
Ni      9.0100975760     5.6748897334    12.0063764263
Ni      2.1541928206     0.5248900500    14.2610095880
Ni      3.3828868231     2.6529851224    14.2609697303
Ni      4.6115707208     4.7811411045    14.2609869789
Ni      4.6115439810     0.5249098233    14.2609692669
Ni      5.8402295206     2.6529955261    14.2609743377
Ni      7.0687934124     4.7810882331    14.2609865433
Ni      7.0688913093     0.5249174943    14.2609952213
Ni      8.2974698477     2.6529356878    14.2610102381
Ni      9.5261544005     4.7810994556    14.2609684719
Ni      0.2259325954    -0.3912381348    16.3647160031
Ni      1.4545401740     1.7367747971    16.3647137476
Ni      2.6831956896     3.8648917320    16.3646940772
Ni      2.6831710171    -0.3912683846    16.3647081310
Ni      3.9118210331     1.7367856019    16.3646978164
Ni      5.1405181395     3.8649290173    16.3647046832
Ni      5.1404896537    -0.3912734272    16.3646855414
Ni      6.3691842405     1.7368127196    16.3647021884
Ni      7.5977802704     3.8648968436    16.3646912244
36
Step 11 | ATOMIC_POSITIONS (angstrom) | Cartesian Angstrom
Ni      0.0000000000     0.0000000000    10.0000000187
Ni      1.2286496544     2.1280836261    10.0000000187
Ni      2.4572993456     4.2561673160    10.0000000187
Ni      2.4572993088     0.0000000000    10.0000000187
Ni      3.6859489631     2.1280836261    10.0000000187
Ni      4.9145986544     4.2561673160    10.0000000187
Ni      4.9145986912     0.0000000000    10.0000000187
Ni      6.1432483456     2.1280836261    10.0000000187
Ni      7.3718980369     4.2561673160    10.0000000187
Ni      1.6381995392     1.4187224174    12.0063764263
Ni      2.8668492304     3.5468061073    12.0063764263
Ni      4.0954988848     5.6748897334    12.0063764263
Ni      4.0954988479     1.4187224174    12.0063764263
Ni      5.3241485392     3.5468061073    12.0063764263
Ni      6.5527981936     5.6748897334    12.0063764263
Ni      6.5527982304     1.4187224174    12.0063764263
Ni      7.7814479217     3.5468061073    12.0063764263
Ni      9.0100975760     5.6748897334    12.0063764263
Ni      2.1632391812     0.5091792146    14.2601021091
Ni      3.3919540278     2.6372814908    14.2600624246
Ni      4.6206483631     4.7654549899    14.2600845252
Ni      4.6206124439     0.5092143520    14.2600615651
Ni      5.8492980668     2.6372969922    14.2600693033
Ni      7.0778380942     4.7653897217    14.2600940652
Ni      7.0779722293     0.5092171932    14.2600777385
Ni      8.3065263572     2.6372110519    14.2601017233
Ni      9.5352365915     4.7654045555    14.2600678329
Ni      0.2509487759    -0.4345333811    16.3273120628
Ni      1.4795385826     1.6934498637    16.3273213190
Ni      2.7082081052     3.8215812801    16.3273048127
Ni      2.7081626317    -0.4345793703    16.3273085153
Ni      3.9368222473     1.6934779215    16.3273114279
Ni      5.1655280898     3.8216267006    16.3273037440
Ni      5.1654976042    -0.4345774230    16.3272983104
Ni      6.3941944714     1.6935089872    16.3273005247
Ni      7.6227655749     3.8215839862    16.3272994035
36
Step 12 | ATOMIC_POSITIONS (angstrom) | Cartesian Angstrom
Ni      0.0000000000     0.0000000000    10.0000000187
Ni      1.2286496544     2.1280836261    10.0000000187
Ni      2.4572993456     4.2561673160    10.0000000187
Ni      2.4572993088     0.0000000000    10.0000000187
Ni      3.6859489631     2.1280836261    10.0000000187
Ni      4.9145986544     4.2561673160    10.0000000187
Ni      4.9145986912     0.0000000000    10.0000000187
Ni      6.1432483456     2.1280836261    10.0000000187
Ni      7.3718980369     4.2561673160    10.0000000187
Ni      1.6381995392     1.4187224174    12.0063764263
Ni      2.8668492304     3.5468061073    12.0063764263
Ni      4.0954988848     5.6748897334    12.0063764263
Ni      4.0954988479     1.4187224174    12.0063764263
Ni      5.3241485392     3.5468061073    12.0063764263
Ni      6.5527981936     5.6748897334    12.0063764263
Ni      6.5527982304     1.4187224174    12.0063764263
Ni      7.7814479217     3.5468061073    12.0063764263
Ni      9.0100975760     5.6748897334    12.0063764263
Ni      2.1701916254     0.4971404611    14.2391445524
Ni      3.3989106395     2.6252354274    14.2391196992
Ni      4.6276011793     4.7534037600    14.2391412733
Ni      4.6275727650     0.4971780706    14.2391176575
Ni      5.8562430867     2.6252478754    14.2391275704
Ni      7.0847941591     4.7533442555    14.2391614421
Ni      7.0849216242     0.4971736752    14.2391127322
Ni      8.3134821488     2.6251603046    14.2391461171
Ni      9.5422028679     4.7533587024    14.2391327771
Ni      0.2745101091    -0.4753509476    16.2773417243
Ni      1.5031091803     1.6526290044    16.2773665546
Ni      2.7317841304     3.7807569111    16.2773479771
Ni      2.7317342213    -0.4753997394    16.2773486526
Ni      3.9603955529     1.6526650907    16.2773572337
Ni      5.1890905791     3.7807942567    16.2773365640
Ni      5.1890727566    -0.4753926265    16.2773461321
Ni      6.4177515406     1.6526905492    16.2773316368
Ni      7.6463268299     3.7807590573    16.2773449888
36
Step 13 | ATOMIC_POSITIONS (angstrom) | Cartesian Angstrom
Ni      0.0000000000     0.0000000000    10.0000000187
Ni      1.2286496544     2.1280836261    10.0000000187
Ni      2.4572993456     4.2561673160    10.0000000187
Ni      2.4572993088     0.0000000000    10.0000000187
Ni      3.6859489631     2.1280836261    10.0000000187
Ni      4.9145986544     4.2561673160    10.0000000187
Ni      4.9145986912     0.0000000000    10.0000000187
Ni      6.1432483456     2.1280836261    10.0000000187
Ni      7.3718980369     4.2561673160    10.0000000187
Ni      1.6381995392     1.4187224174    12.0063764263
Ni      2.8668492304     3.5468061073    12.0063764263
Ni      4.0954988848     5.6748897334    12.0063764263
Ni      4.0954988479     1.4187224174    12.0063764263
Ni      5.3241485392     3.5468061073    12.0063764263
Ni      6.5527981936     5.6748897334    12.0063764263
Ni      6.5527982304     1.4187224174    12.0063764263
Ni      7.7814479217     3.5468061073    12.0063764263
Ni      9.0100975760     5.6748897334    12.0063764263
Ni      2.1789060089     0.4820533275    14.1850236131
Ni      3.4076199176     2.6101592918    14.1850176368
Ni      4.6363184321     4.7383067777    14.1850371040
Ni      4.6362738327     0.4820971700    14.1850155017
Ni      5.8649340064     2.6101857877    14.1850264610
Ni      7.0935006866     4.7382642483    14.1850759473
Ni      7.0936282170     0.4820864905    14.1849807524
Ni      8.3221923240     2.6100913129    14.1850274633
Ni      9.5509204681     4.7382682919    14.1850422428
Ni      0.3079492407    -0.5332709472    16.1989497945
Ni      1.5365486380     1.5947114941    16.1990023915
Ni      2.7652332080     3.7228422699    16.1989867580
Ni      2.7651707723    -0.5333240142    16.1989701007
Ni      3.9938395562     1.5947610595    16.1989994919
Ni      5.2225272177     3.7228748881    16.1989503328
Ni      5.2225149829    -0.5333086803    16.1989944766
Ni      6.4511757613     1.5947844382    16.1989512303
Ni      7.6797478488     3.7228438117    16.1989803525
36
Step 14 | ATOMIC_POSITIONS (angstrom) | Cartesian Angstrom
Ni      0.0000000000     0.0000000000    10.0000000187
Ni      1.2286496544     2.1280836261    10.0000000187
Ni      2.4572993456     4.2561673160    10.0000000187
Ni      2.4572993088     0.0000000000    10.0000000187
Ni      3.6859489631     2.1280836261    10.0000000187
Ni      4.9145986544     4.2561673160    10.0000000187
Ni      4.9145986912     0.0000000000    10.0000000187
Ni      6.1432483456     2.1280836261    10.0000000187
Ni      7.3718980369     4.2561673160    10.0000000187
Ni      1.6381995392     1.4187224174    12.0063764263
Ni      2.8668492304     3.5468061073    12.0063764263
Ni      4.0954988848     5.6748897334    12.0063764263
Ni      4.0954988479     1.4187224174    12.0063764263
Ni      5.3241485392     3.5468061073    12.0063764263
Ni      6.5527981936     5.6748897334    12.0063764263
Ni      6.5527982304     1.4187224174    12.0063764263
Ni      7.7814479217     3.5468061073    12.0063764263
Ni      9.0100975760     5.6748897334    12.0063764263
Ni      2.1903577637     0.4622726236    14.1105978154
Ni      3.4190527363     2.5903677525    14.1106336925
Ni      4.6477437479     4.7184695670    14.1106304608
Ni      4.6477035852     0.4623060174    14.1106307351
Ni      5.8763433726     2.5903985055    14.1106320234
Ni      7.1049563434     4.7184560679    14.1106812429
Ni      7.1050336160     0.4622952576    14.1105521207
Ni      8.3336278438     2.5903284738    14.1106122512
Ni      9.5623486177     4.7184557974    14.1106650501
Ni      0.3461848920    -0.5995487545    16.1309563018
Ni      1.5748099368     1.5284706458    16.1310267785
Ni      2.8035010963     3.6565767278    16.1310209377
Ni      2.8034411324    -0.5995902714    16.1309954696
Ni      4.0321167032     1.5285205061    16.1310337582
Ni      5.2607719343     3.6565857860    16.1309623421
Ni      5.2607825743    -0.5995692218    16.1310369055
Ni      6.4894054397     1.5285263654    16.1309613714
Ni      7.7180066011     3.6565718198    16.1310121668
36
Step 15 | ATOMIC_POSITIONS (angstrom) | Cartesian Angstrom
Ni      0.0000000000     0.0000000000    10.0000000187
Ni      1.2286496544     2.1280836261    10.0000000187
Ni      2.4572993456     4.2561673160    10.0000000187
Ni      2.4572993088     0.0000000000    10.0000000187
Ni      3.6859489631     2.1280836261    10.0000000187
Ni      4.9145986544     4.2561673160    10.0000000187
Ni      4.9145986912     0.0000000000    10.0000000187
Ni      6.1432483456     2.1280836261    10.0000000187
Ni      7.3718980369     4.2561673160    10.0000000187
Ni      1.6381995392     1.4187224174    12.0063764263
Ni      2.8668492304     3.5468061073    12.0063764263
Ni      4.0954988848     5.6748897334    12.0063764263
Ni      4.0954988479     1.4187224174    12.0063764263
Ni      5.3241485392     3.5468061073    12.0063764263
Ni      6.5527981936     5.6748897334    12.0063764263
Ni      6.5527982304     1.4187224174    12.0063764263
Ni      7.7814479217     3.5468061073    12.0063764263
Ni      9.0100975760     5.6748897334    12.0063764263
Ni      2.2032356515     0.4399974254    14.0983853979
Ni      3.4319232187     2.5680927762    14.0984261225
Ni      4.6605955906     4.6961691131    14.0984099246
Ni      4.6605744302     0.4400260514    14.0984266513
Ni      5.8891986075     2.5681134694    14.0984120832
Ni      7.1178385904     4.6961686289    14.0984572181