72
Step 1 | ATOMIC_POSITIONS (angstrom) | Cartesian Angstrom
Ni      1.2286390390     0.7093535490     9.0125970590
Ni      2.4572760100     2.8374169220     9.0125970590
Ni      3.6859498400     4.9655441370     9.0125970590
Ni      3.6859144660     0.7093535490     9.0125970590
Ni      4.9145514370     2.8374169220     9.0125970590
Ni      6.1432252670     4.9655441370     9.0125970590
Ni      6.1432636120     0.7093535490     9.0125970590
Ni      7.3719005830     2.8374169220     9.0125970590
Ni      8.6005744130     4.9655441370     9.0125970590
Ni      0.0000019230    -0.0000011100    11.0191845730
Ni      1.2286511800     2.1280835430    11.0191845730
Ni      2.4573004380     4.2561681970    11.0191845730
Ni      2.4573019230    -0.0000011100    11.0191845730
Ni      3.6859511800     2.1280835430    11.0191845730
Ni      4.9146004380     4.2561681970    11.0191845730
Ni      4.9146019230    -0.0000011100    11.0191845730
Ni      6.1432511800     2.1280835430    11.0191845730
Ni      7.3719004380     4.2561681970    11.0191845730
Ni      2.4572797630     1.4187081710    13.0254295065
Ni      3.6859533324     3.5468281438    13.0254314286
Ni      4.9145951253     5.6748977512    13.0254285058
Ni      4.9146201703     1.4187129779    13.0254327938
Ni      6.1432943406     3.5468331459    13.0254327465
Ni      7.3719277238     5.6748981044    13.0254311348
Ni      7.3719057687     1.4187126668    13.0254296085
Ni      8.6005716314     3.5468280165    13.0254309373
Ni      9.8292126150     5.6748972612    13.0254301658
Ni      1.2286427533     0.7093531570    15.0308674559
Ni      2.4572784339     2.8374191753    15.0308662085
Ni      3.6859524079     4.9655397771    15.0308679895
Ni      3.6859184109     0.7093514812    15.0308669676
Ni      4.9145598175     2.8374210069    15.0308651975
Ni      6.1432315522     4.9655401358    15.0308652879
Ni      6.1432612051     0.7093552138    15.0308685795
Ni      7.3719004790     2.8374233505    15.0308652275
Ni      8.6005684796     4.9655405161    15.0308675532
Ni      0.0000042358    -0.0000016749    17.0392100456
Ni      1.2286528995     2.1280815124    17.0392104827
Ni      2.4573022356     4.2561672722    17.0392084845
Ni      2.4573032080    -0.0000018360    17.0392107906
Ni      3.6859503925     2.1280806762    17.0392134999
Ni      4.9146023979     4.2561676960    17.0392098063
Ni      4.9146014491    -0.0000005794    17.0392089794
Ni      6.1432511105     2.1280834277    17.0392099381
Ni      7.3719018013     4.2561697206    17.0392055697
Ni      2.4572844214     1.4187082115    19.0446438386
Ni      3.6859543358     3.5468271749    19.0446466227
Ni      4.9145932310     5.6748959822    19.0446442769
Ni      4.9146212336     1.4187107088    19.0446471357
Ni      6.1432926106     3.5468306043    19.0446479243
Ni      7.3719326962     5.6748999781    19.0446463508
Ni      7.3719028322     1.4187095610    19.0446441844
Ni      8.6005750745     3.5468299992    19.0446455233
Ni      9.8292126885     5.6748978790    19.0446453649
Ni      1.2286425936     0.7093504808    21.0548661475
Ni      2.4572834395     2.8374205940    21.0548648821
Ni      3.6859514330     4.9655392342    21.0548676065
Ni      3.6859238258     0.7093515896    21.0548658162
Ni      4.9145597834     2.8374188202    21.0548645819
Ni      6.1432317214     4.9655398093    21.0548655287
Ni      6.1432595546     0.7093527693    21.0548676052
Ni      7.3718994616     2.8374222762    21.0548648736
Ni      8.6005726946     4.9655437672    21.0548673616
Ni      0.0000018127    -0.0000042560    23.0492051221
Ni      1.2286535783     2.1280806574    23.0492061007
Ni      2.4573042343     4.2561689978    23.0492037286
Ni      2.4573048712    -0.0000033275    23.0492051537
Ni      3.6859545114     2.1280806201    23.0492050390
Ni      4.9146010979     4.2561666902    23.0492037169
Ni      4.9146037966    -0.0000009877    23.0492026104
Ni      6.1432495334     2.1280803581    23.0492038267
Ni      7.3719023520     4.2561702399    23.0492023089
72
Step 2 | ATOMIC_POSITIONS (angstrom) | Cartesian Angstrom
Ni      1.2286390390     0.7093535490     9.0125970590
Ni      2.4572760100     2.8374169220     9.0125970590
Ni      3.6859498400     4.9655441370     9.0125970590
Ni      3.6859144660     0.7093535490     9.0125970590
Ni      4.9145514370     2.8374169220     9.0125970590
Ni      6.1432252670     4.9655441370     9.0125970590
Ni      6.1432636120     0.7093535490     9.0125970590
Ni      7.3719005830     2.8374169220     9.0125970590
Ni      8.6005744130     4.9655441370     9.0125970590
Ni      0.0000019230    -0.0000011100    11.0191845730
Ni      1.2286511800     2.1280835430    11.0191845730
Ni      2.4573004380     4.2561681970    11.0191845730
Ni      2.4573019230    -0.0000011100    11.0191845730
Ni      3.6859511800     2.1280835430    11.0191845730
Ni      4.9146004380     4.2561681970    11.0191845730
Ni      4.9146019230    -0.0000011100    11.0191845730
Ni      6.1432511800     2.1280835430    11.0191845730
Ni      7.3719004380     4.2561681970    11.0191845730
Ni      2.4572822832     1.4187114235    13.0253829041
Ni      3.6859555381     3.5468225772    13.0253872907
Ni      4.9145998492     5.6748950009    13.0253812087
Ni      4.9146159653     1.4187197831    13.0253903025
Ni      6.1432875774     3.5468298591    13.0253890382
Ni      7.3719197246     5.6748954724    13.0253865744
Ni      7.3719078295     1.4187186793    13.0253834498
Ni      8.6005674547     3.5468218275    13.0253857746
Ni      9.8292131282     5.6748951360    13.0253855893
Ni      1.2286429576     0.7093537877    15.0299032736
Ni      2.4572808693     2.8374250163    15.0299011247
Ni      3.6859525566     4.9655347927    15.0299044010
Ni      3.6859242916     0.7093514079    15.0299033408
Ni      4.9145682479     2.8374263855    15.0299002715
Ni      6.1432361786     4.9655337719    15.0298994968
Ni      6.1432578634     0.7093578476    15.0299065088
Ni      7.3718981421     2.8374304924    15.0298995040
Ni      8.6005634868     4.9655366391    15.0299037837
Ni      0.0000023534    -0.0000018453    17.0401964236
Ni      1.2286515328     2.1280822597    17.0401967580
Ni      2.4573035719     4.2561677087    17.0401931757
Ni      2.4573038425    -0.0000028963    17.0401978221
Ni      3.6859514787     2.1280805936    17.0402030441
Ni      4.9146026050     4.2561651500    17.0401955293
Ni      4.9146026474     0.0000011187    17.0401952452
Ni      6.1432491232     2.1280840501    17.0401966583
Ni      7.3719024500     4.2561699797    17.0401880828
Ni      2.4572922129     1.4187110997    19.0451003826
Ni      3.6859573264     3.5468201890    19.0451050036
Ni      4.9145949868     5.6748926940    19.0451003039
Ni      4.9146174097     1.4187148736    19.0451069115
Ni      6.1432824320     3.5468239882    19.0451067693
Ni      7.3719295482     5.6749019374    19.0451043654
Ni      7.3718987591     1.4187122945    19.0451007340
Ni      8.6005731963     3.5468267276    19.0451025572
Ni      9.8292110647     5.6748992658    19.0451029688
Ni      1.2286415489     0.7093492113    21.0580235911
Ni      2.4572908436     2.8374270041    21.0580207339
Ni      3.6859496765     4.9655351798    21.0580251774
Ni      3.6859354071     0.7093530650    21.0580225196
Ni      4.9145675815     2.8374203216    21.0580205988
Ni      6.1432354943     4.9655344900    21.0580218970
Ni      6.1432521932     0.7093545851    21.0580256930
Ni      7.3718937666     2.8374274030    21.0580207478
Ni      8.6005708646     4.9655457884    21.0580248526
Ni     -0.0000033500    -0.0000056425    23.0401052272
Ni      1.2286524341     2.1280791405    23.0401077971
Ni      2.4573067010     4.2561718783    23.0401022387
Ni      2.4573064242    -0.0000039698    23.0401058967
Ni      3.6859585534     2.1280792804    23.0401048960
Ni      4.9145988362     4.2561638225    23.0401018676
Ni      4.9146054997     0.0000025402    23.0401000565
Ni      6.1432443323     2.1280769027    23.0401016111
Ni      7.3719017709     4.2561725145    23.0400997807
72
Step 3 | ATOMIC_POSITIONS (angstrom) | Cartesian Angstrom
Ni      1.2286390390     0.7093535490     9.0125970590
Ni      2.4572760100     2.8374169220     9.0125970590
Ni      3.6859498400     4.9655441370     9.0125970590
Ni      3.6859144660     0.7093535490     9.0125970590
Ni      4.9145514370     2.8374169220     9.0125970590
Ni      6.1432252670     4.9655441370     9.0125970590
Ni      6.1432636120     0.7093535490     9.0125970590
Ni      7.3719005830     2.8374169220     9.0125970590
Ni      8.6005744130     4.9655441370     9.0125970590
Ni      0.0000019230    -0.0000011100    11.0191845730
Ni      1.2286511800     2.1280835430    11.0191845730
Ni      2.4573004380     4.2561681970    11.0191845730
Ni      2.4573019230    -0.0000011100    11.0191845730
Ni      3.6859511800     2.1280835430    11.0191845730
Ni      4.9146004380     4.2561681970    11.0191845730
Ni      4.9146019230    -0.0000011100    11.0191845730
Ni      6.1432511800     2.1280835430    11.0191845730
Ni      7.3719004380     4.2561681970    11.0191845730
Ni      2.4572904782     1.4187158808    13.0251595105
Ni      3.6859579581     3.5468133087    13.0251657020
Ni      4.9146040424     5.6748918105    13.0251580087
Ni      4.9146095019     1.4187260218    13.0251688827
Ni      6.1432750932     3.5468222605    13.0251687625
Ni      7.3719126139     5.6748960528    13.0251648596
Ni      7.3719066052     1.4187239398    13.0251603051
Ni      8.6005638385     3.5468153081    13.0251640450
Ni      9.8292114938     5.6748948564    13.0251628790
Ni      1.2286438308     0.7093540781    15.0287042715
Ni      2.4572859334     2.8374324797    15.0287004250
Ni      3.6859524340     4.9655288587    15.0287045190
Ni      3.6859331520     0.7093519647    15.0287023262
Ni      4.9145792889     2.8374329184    15.0286984017
Ni      6.1432422124     4.9655269987    15.0286990669
Ni      6.1432526446     0.7093605584    15.0287062628
Ni      7.3718952951     2.8374392831    15.0286990014
Ni      8.6005574255     4.9655331352    15.0287032646
Ni      0.0000027330    -0.0000021572    17.0415604442
Ni      1.2286500076     2.1280828934    17.0415630031
Ni      2.4573048681     4.2561671412    17.0415559076
Ni      2.4573029786    -0.0000046812    17.0415636294
Ni      3.6859503015     2.1280806780    17.0415696590
Ni      4.9146036194     4.2561636714    17.0415595916
Ni      4.9146030173     0.0000018582    17.0415576129
Ni      6.1432485617     2.1280863104    17.0415608224
Ni      7.3719030983     4.2561701029    17.0415501676
Ni      2.4572972985     1.4187150446    19.0462368722
Ni      3.6859593827     3.5468117489    19.0462418095
Ni      4.9146002657     5.6748895751    19.0462355556
Ni      4.9146110314     1.4187219083    19.0462437042
Ni      6.1432717378     3.5468180452    19.0462448887
Ni      7.3719202684     5.6749000747    19.0462412704
Ni      7.3718997526     1.4187188093    19.0462365408
Ni      8.6005679718     3.5468191979    19.0462399781
Ni      9.8292102404     5.6748976474    19.0462379345
Ni      1.2286431423     0.7093513247    21.0610561919
Ni      2.4572933455     2.8374338954    21.0610528671
Ni      3.6859507555     4.9655290924    21.0610564735
Ni      3.6859416915     0.7093532960    21.0610539121
Ni      4.9145801618     2.8374290432    21.0610505459
Ni      6.1432425559     4.9655277417    21.0610527952
Ni      6.1432493657     0.7093582125    21.0610573874
Ni      7.3718933600     2.8374370441    21.0610524155
Ni      8.6005631644     4.9655390536    21.0610572083
Ni     -0.0000034816    -0.0000056689    23.0264571684
Ni      1.2286508674     2.1280793004    23.0264584397
Ni      2.4573059942     4.2561698526    23.0264516959
Ni      2.4573048675    -0.0000049633    23.0264573937
Ni      3.6859563173     2.1280792011    23.0264574937
Ni      4.9145992277     4.2561624189    23.0264508246
Ni      4.9146041368     0.0000026056    23.0264513381
Ni      6.1432444774     2.1280785336    23.0264513943
Ni      7.3719016295     4.2561715469    23.0264459486
72
Step 4 | ATOMIC_POSITIONS (angstrom) | Cartesian Angstrom
Ni      1.2286390390     0.7093535490     9.0125970590
Ni      2.4572760100     2.8374169220     9.0125970590
Ni      3.6859498400     4.9655441370     9.0125970590
Ni      3.6859144660     0.7093535490     9.0125970590
Ni      4.9145514370     2.8374169220     9.0125970590
Ni      6.1432252670     4.9655441370     9.0125970590
Ni      6.1432636120     0.7093535490     9.0125970590
Ni      7.3719005830     2.8374169220     9.0125970590
Ni      8.6005744130     4.9655441370     9.0125970590
Ni      0.0000019230    -0.0000011100    11.0191845730
Ni      1.2286511800     2.1280835430    11.0191845730
Ni      2.4573004380     4.2561681970    11.0191845730
Ni      2.4573019230    -0.0000011100    11.0191845730
Ni      3.6859511800     2.1280835430    11.0191845730
Ni      4.9146004380     4.2561681970    11.0191845730
Ni      4.9146019230    -0.0000011100    11.0191845730
Ni      6.1432511800     2.1280835430    11.0191845730
Ni      7.3719004380     4.2561681970    11.0191845730
Ni      2.4572995295     1.4187211496    13.0246361831
Ni      3.6859574625     3.5468017425    13.0246438474
Ni      4.9146100391     5.6748904052    13.0246343320
Ni      4.9146007371     1.4187305654    13.0246479433
Ni      6.1432607553     3.5468122363    13.0246471142
Ni      7.3719032550     5.6748953701    13.0246424721
Ni      7.3719069752     1.4187306931    13.0246368983
Ni      8.6005571202     3.5468066435    13.0246410625
Ni      9.8292072969     5.6748940731    13.0246402523
Ni      1.2286462627     0.7093559146    15.0273481909
Ni      2.4572917424     2.8374416987    15.0273437807
Ni      3.6859504691     4.9655228988    15.0273480693
Ni      3.6859452549     0.7093521152    15.0273462087
Ni      4.9145947727     2.8374404617    15.0273421936
Ni      6.1432528155     4.9655210244    15.0273424084
Ni      6.1432456666     0.7093627662    15.0273497314
Ni      7.3718946122     2.8374505324    15.0273415632
Ni      8.6005488650     4.9655291164    15.0273456117
Ni      0.0000017424    -0.0000023643    17.0434351230
Ni      1.2286494796     2.1280835660    17.0434390621
Ni      2.4573051737     4.2561670708    17.0434302421
Ni      2.4573042608    -0.0000057180    17.0434402335
Ni      3.6859482484     2.1280783943    17.0434479181
Ni      4.9146044153     4.2561617709    17.0434356301
Ni      4.9146025069     0.0000028719    17.0434319493
Ni      6.1432466669     2.1280872329    17.0434363039
Ni      7.3719058539     4.2561724234    17.0434236512
Ni      2.4573079576     1.4187198021    19.0484251508
Ni      3.6859609007     3.5467989824    19.0484306048
Ni      4.9146073985     5.6748855255    19.0484222158
Ni      4.9145996341     1.4187288571    19.0484320364
Ni      6.1432547488     3.5468094828    19.0484330808
Ni      7.3719088646     5.6749000804    19.0484286105
Ni      7.3718997538     1.4187256997    19.0484225324
Ni      8.6005621467     3.5468106641    19.0484269889
Ni      9.8292065295     5.6748955828    19.0484236610
Ni      1.2286487600     0.7093524464    21.0623830372
Ni      2.4573035505     2.8374423189    21.0623804167
Ni      3.6859513894     4.9655196124    21.0623825929
Ni      3.6859524397     0.7093562961    21.0623806967
Ni      4.9145937934     2.8374388922    21.0623765749
Ni      6.1432511634     4.9655220031    21.0623782481
Ni      6.1432413462     0.7093612381    21.0623829982
Ni      7.3718921772     2.8374494948    21.0623781328
Ni      8.6005543509     4.9655343728    21.0623831631
Ni     -0.0000049581    -0.0000082564    23.0059827181
Ni      1.2286526280     2.1280781920    23.0059824592
Ni      2.4573084539     4.2561671124    23.0059736546
Ni      2.4573047963    -0.0000051327    23.0059811031
Ni      3.6859545956     2.1280783238    23.0059810303
Ni      4.9145972118     4.2561590727    23.0059717421
Ni      4.9146008465     0.0000053453    23.0059747319
Ni      6.1432387804     2.1280794459    23.0059739210
Ni      7.3719009392     4.2561735024    23.0059652007
72
Step 5 | ATOMIC_POSITIONS (angstrom) | Cartesian Angstrom
Ni      1.2286390390     0.7093535490     9.0125970590
Ni      2.4572760100     2.8374169220     9.0125970590
Ni      3.6859498400     4.9655441370     9.0125970590
Ni      3.6859144660     0.7093535490     9.0125970590
Ni      4.9145514370     2.8374169220     9.0125970590
Ni      6.1432252670     4.9655441370     9.0125970590
Ni      6.1432636120     0.7093535490     9.0125970590
Ni      7.3719005830     2.8374169220     9.0125970590
Ni      8.6005744130     4.9655441370     9.0125970590
Ni      0.0000019230    -0.0000011100    11.0191845730
Ni      1.2286511800     2.1280835430    11.0191845730
Ni      2.4573004380     4.2561681970    11.0191845730
Ni      2.4573019230    -0.0000011100    11.0191845730
Ni      3.6859511800     2.1280835430    11.0191845730
Ni      4.9146004380     4.2561681970    11.0191845730
Ni      4.9146019230    -0.0000011100    11.0191845730
Ni      6.1432511800     2.1280835430    11.0191845730
Ni      7.3719004380     4.2561681970    11.0191845730
Ni      2.4573029407     1.4187228789    13.0242434256
Ni      3.6859582086     3.5467981810    13.0242503673
Ni      4.9146105808     5.6748897685    13.0242413869
Ni      4.9145979491     1.4187328309    13.0242545665
Ni      6.1432515091     3.5468069575    13.0242528925
Ni      7.3718976431     5.6748952988    13.0242489981
Ni      7.3719065753     1.4187313093    13.0242440384
Ni      8.6005541408     3.5468019665    13.0242475837
Ni      9.8292078910     5.6748945393    13.0242474553
Ni      1.2286470646     0.7093561468    15.0271023645
Ni      2.4572962250     2.8374443933    15.0270987450
Ni      3.6859517503     4.9655215464    15.0271017478
Ni      3.6859495980     0.7093545446    15.0271011201
Ni      4.9146013892     2.8374445407    15.0270978509
Ni      6.1432541133     4.9655198430    15.0270973051
Ni      6.1432451628     0.7093643254    15.0271034565
Ni      7.3718942587     2.8374524724    15.0270965514
Ni      8.6005466914     4.9655278190    15.0270993908
Ni      0.0000025111    -0.0000021798    17.0442313951
Ni      1.2286487783     2.1280824278    17.0442355890
Ni      2.4573067600     4.2561668571    17.0442276911
Ni      2.4573026426    -0.0000058663    17.0442364523
Ni      3.6859475345     2.1280783267    17.0442433814
Ni      4.9146042482     4.2561616242    17.0442320408
Ni      4.9146032184     0.0000040484    17.0442294274
Ni      6.1432465373     2.1280874886    17.0442329979
Ni      7.3719056029     4.2561721784    17.0442222661
Ni      2.4573100090     1.4187214320    19.0495899291
Ni      3.6859606987     3.5467954683    19.0495938420
Ni      4.9146087542     5.6748847877    19.0495862277
Ni      4.9145964009     1.4187309516    19.0495955011
Ni      6.1432476970     3.5468054443    19.0495956073
Ni      7.3719031328     5.6748986808    19.0495923204
Ni      7.3719002914     1.4187274791    19.0495867977
Ni      8.6005584817     3.5468061472    19.0495907764
Ni      9.8292061439     5.6748947995    19.0495876353
Ni      1.2286497804     0.7093534323    21.0593661650
Ni      2.4573062831     2.8374451313    21.0593644144
Ni      3.6859520691     4.9655186332    21.0593644112
Ni      3.6859559731     0.7093577309    21.0593643808
Ni      4.9146010043     2.8374435116    21.0593600241
Ni      6.1432539089     4.9655211929    21.0593612395
Ni      6.1432413502     0.7093621046    21.0593652065
Ni      7.3718936148     2.8374524340    21.0593619348
Ni      8.6005512601     4.9655319964    21.0593659693
Ni     -0.0000051621    -0.0000084490    22.9959940082
Ni      1.2286519781     2.1280773475    22.9959928908
Ni      2.4573085525     4.2561659999    22.9959854808
Ni      2.4573034295    -0.0000053686    22.9959924407
Ni      3.6859531609     2.1280778729    22.9959932175
Ni      4.9145969696     4.2561587124    22.9959831112
Ni      4.9145999083     0.0000057155    22.9959877265
Ni      6.1432384232     2.1280796930    22.9959856137
Ni      7.3719007670     4.2561734298    22.9959763424
72
Step 6 | ATOMIC_POSITIONS (angstrom) | Cartesian Angstrom
Ni      1.2286390390     0.7093535490     9.0125970590
Ni      2.4572760100     2.8374169220     9.0125970590
Ni      3.6859498400     4.9655441370     9.0125970590
Ni      3.6859144660     0.7093535490     9.0125970590
Ni      4.9145514370     2.8374169220     9.0125970590
Ni      6.1432252670     4.9655441370     9.0125970590
Ni      6.1432636120     0.7093535490     9.0125970590
Ni      7.3719005830     2.8374169220     9.0125970590
Ni      8.6005744130     4.9655441370     9.0125970590
Ni      0.0000019230    -0.0000011100    11.0191845730
Ni      1.2286511800     2.1280835430    11.0191845730
Ni      2.4573004380     4.2561681970    11.0191845730
Ni      2.4573019230    -0.0000011100    11.0191845730
Ni      3.6859511800     2.1280835430    11.0191845730
Ni      4.9146004380     4.2561681970    11.0191845730
Ni      4.9146019230    -0.0000011100    11.0191845730
Ni      6.1432511800     2.1280835430    11.0191845730
Ni      7.3719004380     4.2561681970    11.0191845730
Ni      2.4573054842     1.4187240365    13.0237569415
Ni      3.6859583454     3.5467963315    13.0237619737
Ni      4.9146095435     5.6748896523    13.0237544835
Ni      4.9145960536     1.4187338038    13.0237661266
Ni      6.1432415006     3.5468015662    13.0237628330
Ni      7.3718918184     5.6748947928    13.0237608274
Ni      7.3719060732     1.4187300931    13.0237571805
Ni      8.6005509025     3.5467975126    13.0237595378
Ni      9.8292091463     5.6748951295    13.0237606824
Ni      1.2286481542     0.7093564535    15.0272262060
Ni      2.4573016775     2.8374460162    15.0272245903
Ni      3.6859538808     4.9655214799    15.0272252218
Ni      3.6859532096     0.7093584121    15.0272268125
Ni      4.9146074194     2.8374486347    15.0272253887
Ni      6.1432536962     4.9655204576    15.0272229405
Ni      6.1432463940     0.7093657334    15.0272270453
Ni      7.3718948253     2.8374522444    15.0272225101
Ni      8.6005457928     4.9655270336    15.0272231313
Ni      0.0000036838    -0.0000018802    17.0449775586
Ni      1.2286482617     2.1280805902    17.0449812652
Ni      2.4573088489     4.2561665345    17.0449760754
Ni      2.4573001830    -0.0000054476    17.0449815898
Ni      3.6859469847     2.1280787443    17.0449868115
Ni      4.9146034550     4.2561618995    17.0449782712
Ni      4.9146043136     0.0000054594    17.0449778678
Ni      6.1432467039     2.1280872459    17.0449797209
Ni      7.3719047002     4.2561713028    17.0449729241
Ni      2.4573105165     1.4187226720    19.0504409316
Ni      3.6859594546     3.5467934650    19.0504421067
Ni      4.9146085515     5.6748849143    19.0504364095
Ni      4.9145942181     1.4187317691    19.0504441809
Ni      6.1432409106     3.5468012795    19.0504423377
Ni      7.3718974081     5.6748966051    19.0504413702
Ni      7.3719009891     1.4187278860    19.0504374264
Ni      8.6005544432     3.5468015289    19.0504398168
Ni      9.8292060970     5.6748939764    19.0504378751
Ni      1.2286504405     0.7093547157    21.0526238831
Ni      2.4573089663     2.8374467832    21.0526239281
Ni      3.6859529109     4.9655196440    21.0526203482
Ni      3.6859585980     0.7093601176    21.0526234888
Ni      4.9146079173     2.8374476467    21.0526193530
Ni      6.1432552020     4.9655223606    21.0526194251
Ni      6.1432434723     0.7093626033    21.0526218799
Ni      7.3718961885     2.8374526489    21.0526215206
Ni      8.6005495644     4.9655301806    21.0526235315
Ni     -0.0000050736    -0.0000083179    22.9850065907
Ni      1.2286508881     2.1280761312    22.9850043657
Ni      2.4573085177     4.2561649292    22.9850003243
Ni      2.4573013603    -0.0000052024    22.9850055348
Ni      3.6859516115     2.1280775266    22.9850076395
Ni      4.9145965349     4.2561588886    22.9849974059
Ni      4.9145991999     0.0000058728    22.9850040936
Ni      6.1432389928     2.1280797344    22.9849999788
Ni      7.3719006491     4.2561728286    22.9849915214
72
Step 7 | ATOMIC_POSITIONS (angstrom) | Cartesian Angstrom
Ni      1.2286390390     0.7093535490     9.0125970590
Ni      2.4572760100     2.8374169220     9.0125970590
Ni      3.6859498400     4.9655441370     9.0125970590
Ni      3.6859144660     0.7093535490     9.0125970590
Ni      4.9145514370     2.8374169220     9.0125970590
Ni      6.1432252670     4.9655441370     9.0125970590
Ni      6.1432636120     0.7093535490     9.0125970590
Ni      7.3719005830     2.8374169220     9.0125970590
Ni      8.6005744130     4.9655441370     9.0125970590
Ni      0.0000019230    -0.0000011100    11.0191845730
Ni      1.2286511800     2.1280835430    11.0191845730
Ni      2.4573004380     4.2561681970    11.0191845730
Ni      2.4573019230    -0.0000011100    11.0191845730
Ni      3.6859511800     2.1280835430    11.0191845730
Ni      4.9146004380     4.2561681970    11.0191845730
Ni      4.9146019230    -0.0000011100    11.0191845730
Ni      6.1432511800     2.1280835430    11.0191845730
Ni      7.3719004380     4.2561681970    11.0191845730
Ni      2.4573073977     1.4187243296    13.0230734599
Ni      3.6859562582     3.5467967841    13.0230744023
Ni      4.9146065319     5.6748907798    13.0230709430
Ni      4.9145948490     1.4187313135    13.0230779853
Ni      6.1432295116     3.5467952052    13.0230722981
Ni      7.3718851326     5.6748927837    13.0230740449
Ni      7.3719053944     1.4187262027    13.0230735761
Ni      8.6005456803     3.5467934073    13.0230732258
Ni      9.8292097467     5.6748956495    13.0230768238
Ni      1.2286499712     0.7093570134    15.0278733097
Ni      2.4573081813     2.8374473853    15.0278755097
Ni      3.6859567659     4.9655244365    15.0278720019
Ni      3.6859568873     0.7093633178    15.0278772416
Ni      4.9146152044     2.8374540137    15.0278796114
Ni      6.1432525009     4.9655243555    15.0278738165
Ni      6.1432507276     0.7093660660    15.0278737936
Ni      7.3718979304     2.8374498862    15.0278739885
Ni      8.6005458042     4.9655266523    15.0278704790
Ni      0.0000057001    -0.0000013306    17.0458116962
Ni      1.2286472459     2.1280777043    17.0458139183
Ni      2.4573100921     4.2561671010    17.0458147310
Ni      2.4572960081    -0.0000049080    17.0458131759
Ni      3.6859454723     2.1280792391    17.0458150267
Ni      4.9146023201     4.2561648063    17.0458126754
Ni      4.9146061095     0.0000052519    17.0458163877
Ni      6.1432493089     2.1280858465    17.0458148444
Ni      7.3719036981     4.2561699789    17.0458159371
Ni      2.4573077853     1.4187231535    19.0502427655
Ni      3.6859550366     3.5467943049    19.0502390917
Ni      4.9146063955     5.6748869219    19.0502371429
Ni      4.9145931979     1.4187293854    19.0502417091
Ni      6.1432347171     3.5467970444    19.0502361756
Ni      7.3718904648     5.6748916608    19.0502393370
Ni      7.3719029530     1.4187265126    19.0502389591
Ni      8.6005479100     3.5467965049    19.0502381075
Ni      9.8292055205     5.6748920403    19.0502386835
Ni      1.2286508797     0.7093568326    21.0382961264
Ni      2.4573102707     2.8374484035    21.0383000607
Ni      3.6859534879     4.9655242258    21.0382897916
Ni      3.6859604848     0.7093626420    21.0382989530
Ni      4.9146167177     2.8374529199    21.0382961012
Ni      6.1432564605     4.9655265785    21.0382933772
Ni      6.1432493017     0.7093614539    21.0382927508
Ni      7.3719025827     2.8374509766    21.0382979861
Ni      8.6005484685     4.9655276584    21.0382958767
Ni     -0.0000045506    -0.0000076615    22.9685257367
Ni      1.2286487274     2.1280748444    22.9685215781
Ni      2.4573067903     4.2561637834    22.9685243068
Ni      2.4572977676    -0.0000052241    22.9685258247
Ni      3.6859485812     2.1280773266    22.9685308668
Ni      4.9145965849     4.2561608965    22.9685213464
Ni      4.9145987443     0.0000042016    22.9685307806
Ni      6.1432422810     2.1280795920    22.9685238597
Ni      7.3719011217     4.2561714934    22.9685169136
72
Step 8 | ATOMIC_POSITIONS (angstrom) | Cartesian Angstrom
Ni      1.2286390390     0.7093535490     9.0125970590
Ni      2.4572760100     2.8374169220     9.0125970590
Ni      3.6859498400     4.9655441370     9.0125970590
Ni      3.6859144660     0.7093535490     9.0125970590
Ni      4.9145514370     2.8374169220     9.0125970590
Ni      6.1432252670     4.9655441370     9.0125970590
Ni      6.1432636120     0.7093535490     9.0125970590
Ni      7.3719005830     2.8374169220     9.0125970590
Ni      8.6005744130     4.9655441370     9.0125970590
Ni      0.0000019230    -0.0000011100    11.0191845730
Ni      1.2286511800     2.1280835430    11.0191845730
Ni      2.4573004380     4.2561681970    11.0191845730
Ni      2.4573019230    -0.0000011100    11.0191845730
Ni      3.6859511800     2.1280835430    11.0191845730
Ni      4.9146004380     4.2561681970    11.0191845730
Ni      4.9146019230    -0.0000011100    11.0191845730
Ni      6.1432511800     2.1280835430    11.0191845730
Ni      7.3719004380     4.2561681970    11.0191845730
Ni      2.4573077971     1.4187241101    13.0226388165
Ni      3.6859516663     3.5468009464    13.0226348922
Ni      4.9146007505     5.6748923797    13.0226358896
Ni      4.9145956258     1.4187251525    13.0226373923
Ni      6.1432205272     3.5467905357    13.0226290683
Ni      7.3718817830     5.6748895046    13.0226357251
Ni      7.3719040095     1.4187199190    13.0226382736
Ni      8.6005412794     3.5467926141    13.0226356957
Ni      9.8292089690     5.6748950451    13.0226416660
Ni      1.2286525143     0.7093583803    15.0290501603
Ni      2.4573145204     2.8374481537    15.0290573751
Ni      3.6859585658     4.9655289020    15.0290493116
Ni      3.6859597722     0.7093688641    15.0290584632
Ni      4.9146195734     2.8374576343    15.0290658332