36
Step 1 | ATOMIC_POSITIONS (angstrom) | Cartesian Angstrom
Ni      0.0000000000     0.0000000000    10.0000000187
Ni      1.2286496544     2.1280836261    10.0000000187
Ni      2.4572993456     4.2561673160    10.0000000187
Ni      2.4572993088     0.0000000000    10.0000000187
Ni      3.6859489631     2.1280836261    10.0000000187
Ni      4.9145986544     4.2561673160    10.0000000187
Ni      4.9145986912     0.0000000000    10.0000000187
Ni      6.1432483456     2.1280836261    10.0000000187
Ni      7.3718980369     4.2561673160    10.0000000187
Ni      1.6381995392     1.4187224174    12.0063764263
Ni      2.8668492304     3.5468061073    12.0063764263
Ni      4.0954988848     5.6748897334    12.0063764263
Ni      4.0954988479     1.4187224174    12.0063764263
Ni      5.3241485392     3.5468061073    12.0063764263
Ni      6.5527981936     5.6748897334    12.0063764263
Ni      6.5527982304     1.4187224174    12.0063764263
Ni      7.7814479217     3.5468061073    12.0063764263
Ni      9.0100975760     5.6748897334    12.0063764263
Ni      2.0498028035     0.7058285951    14.0144165824
Ni      3.2784414293     2.8339117345    14.0144162155
Ni      4.5070864819     4.9619819142    14.0144175547
Ni      4.5070892321     0.7058212582    14.0144159424
Ni      5.7357396841     2.8339094071    14.0144160148
Ni      6.9644034555     4.9619869341    14.0144134404
Ni      6.9643787342     0.7058265455    14.0144194530
Ni      8.1930391645     2.8339272253    14.0144182639
Ni      9.4216789812     4.9619864622    14.0144147904
Ni      0.0072354765    -0.0125456979    16.0451233429
Ni      1.2358885487     2.1155529155    16.0451178219
Ni      2.4645341117     4.2436275837    16.0451111594
Ni      2.4645460207    -0.0125449185    16.0451199785
Ni      3.6931934468     2.1155424255    16.0451116811
Ni      4.9218385916     4.2436236803    16.0451172601
Ni      4.9218369951    -0.0125445670    16.0451103537
Ni      6.1504875034     2.1155445465    16.0451169855
Ni      7.3791457808     4.2436257575    16.0451112550
36
Step 2 | ATOMIC_POSITIONS (angstrom) | Cartesian Angstrom
Ni      0.0000000000     0.0000000000    10.0000000187
Ni      1.2286496544     2.1280836261    10.0000000187
Ni      2.4572993456     4.2561673160    10.0000000187
Ni      2.4572993088     0.0000000000    10.0000000187
Ni      3.6859489631     2.1280836261    10.0000000187
Ni      4.9145986544     4.2561673160    10.0000000187
Ni      4.9145986912     0.0000000000    10.0000000187
Ni      6.1432483456     2.1280836261    10.0000000187
Ni      7.3718980369     4.2561673160    10.0000000187
Ni      1.6381995392     1.4187224174    12.0063764263
Ni      2.8668492304     3.5468061073    12.0063764263
Ni      4.0954988848     5.6748897334    12.0063764263
Ni      4.0954988479     1.4187224174    12.0063764263
Ni      5.3241485392     3.5468061073    12.0063764263
Ni      6.5527981936     5.6748897334    12.0063764263
Ni      6.5527982304     1.4187224174    12.0063764263
Ni      7.7814479217     3.5468061073    12.0063764263
Ni      9.0100975760     5.6748897334    12.0063764263
Ni      2.0532323161     0.6998895765    14.0217709964
Ni      3.2818636768     2.8279700696    14.0217669320
Ni      4.5105178645     4.9560466042    14.0217686726
Ni      4.5105123232     0.6998788922    14.0217666801
Ni      5.7391727229     2.8279709639    14.0217711849
Ni      6.9678329874     4.9560495338    14.0217685839
Ni      6.9678137659     0.6998872211    14.0217732366
Ni      8.1964725259     2.8279851733    14.0217738783
Ni      9.4251049964     4.9560434709    14.0217646109
Ni      0.0157881862    -0.0273539274    16.0730304522
Ni      1.2444400099     2.1007452941    16.0730191321
Ni      2.4730788675     4.2288154106    16.0730154329
Ni      2.4730984279    -0.0273537285    16.0730224905
Ni      3.7017412810     2.1007309748    16.0730170617
Ni      4.9303940487     4.2288143102    16.0730257792
Ni      4.9303825243    -0.0273585028    16.0730162422
Ni      6.1590398682     2.1007385624    16.0730243611
Ni      7.3876963603     4.2288182411    16.0730128297
