72
Step 1 | ATOMIC_POSITIONS (angstrom) | Cartesian Angstrom
Ni      1.2286390390     0.7093535490     9.0128649340
Ni      0.0000019230    -0.0000011100    11.0189462060
Ni      2.4571123413     1.4186169478    13.0254955103
Ni      1.2337085754     0.7122827815    15.0213743020
Ni      2.4572760100     2.8374169220     9.0128649340
Ni      1.2286511800     2.1280835430    11.0189462060
Ni      3.6858193288     3.5469875771    13.0252337501
Ni      2.4638416632     2.8411931704    15.0204220507
Ni      3.6859498400     4.9655441370     9.0128649340
Ni      2.4573004370     4.2561681970    11.0189462060
Ni      4.9145441525     5.6749661250    13.0251302622
Ni      3.6939596021     4.9675877176    15.0151599199
Ni      3.6859144660     0.7093535490     9.0128649340
Ni      2.4573019230    -0.0000011100    11.0189462060
Ni      4.9146957399     1.4185200300    13.0252352623
Ni      3.6924695337     0.7131527513    15.0204235207
Ni      4.9145514370     2.8374169220     9.0128649340
Ni      3.6859511800     2.1280835430    11.0189462060
Ni      6.1434205845     3.5469009819    13.0249552643
Ni      4.9226968156     2.8421174711    15.0190088742
Ni      6.1432252670     4.9655441370     9.0128649340
Ni      4.9146004370     4.2561681970    11.0189462060
Ni      7.3721440405     5.6749017561    13.0248334652
Ni      6.1527802600     4.9685902287    15.0133010648
Ni      6.1432636120     0.7093535490     9.0128649340
Ni      4.9146019230    -0.0000011100    11.0189462060
Ni      7.3719397288     1.4186396016    13.0251311786
Ni      6.1490415352     0.7152688761    15.0151595361
Ni      7.3719005830     2.8374169220     9.0128649340
Ni      6.1432511800     2.1280835430    11.0189462060
Ni      8.6006832060     3.5470082900    13.0248329544
Ni      7.3793193792     2.8441647213    15.0132992269
Ni      8.6005744130     4.9655441370     9.0128649340
Ni      7.3719004370     4.2561681970    11.0189462060
Ni      9.8293873595     5.6749978790    13.0246978884
Ni      8.6093404203     4.9706013513    15.0071588783
Cu      0.1339299666     0.0773198128    23.2405651094
Cu      1.3941002386     2.2471363797    23.2340838251
Cu      2.6565868980     4.4132770667    23.2357801938
Cu      2.6431312335     0.0837519568    23.2340836571
Cu      0.1362258201     0.0786475869    17.0335533177
Cu      2.6638680124     1.5379818956    19.1029261719
Cu      1.4013443543     0.8090626314    21.1841060393
Cu      3.9034584194     2.2536589117    23.2276816013
Cu      1.3903500255     2.2470042510    17.0424409134
Cu      3.9232147986     3.7072339428    19.1037762762
Cu      2.6613024902     2.9758378905    21.1791701693
Cu      5.1632767542     4.4245378543    23.2291713545
Cu      5.1503075333     0.0940281033    23.2357801587
Cu      2.6411402362     0.0805732196    17.0424430016
Cu      5.1721691903     1.5439829422    19.1037760911
Cu      3.9078058349     0.8168315789    21.1791702237
Cu      6.4134037130     2.2592551455    23.2291713550
Cu      3.8959749274     2.2493401005    17.0486024136
Cu      6.4317918908     3.7133941479    19.1045222423
Cu      5.1675483783     2.9834823765    21.1741529585
Cu      7.6731326437     4.4300822568    23.2307935262
Cu      2.6508809395     4.4111222421    17.0443422052
Cu      5.1828932503     5.8696623380    19.1028518944
Cu      3.9240812584     5.1388505010    21.1740210886
Cu      5.1536897649     4.4181487399    17.0509189889
Cu      7.6885528977     5.8804527230    19.1038009374
Cu      6.4276186527     5.1513612818    21.1691892747
Cu      5.1455887257     0.0901660445    17.0443424786
Cu      7.6747260946     1.5536832046    19.1028515327
Cu      6.4124190572     0.8289246889    21.1740212442
Cu      6.4030774391     2.2541487053    17.0509171661
Cu      8.9368999927     3.7182528897    19.1038006099
Cu      7.6750217267     2.9907966071    21.1691891219
Cu      7.6605440723     4.4228141100    17.0539370436
Cu     10.1929740146     5.8849147447    19.1061322227
Cu      8.9349585174     5.1585985363    21.1640375589
72
Step 2 | ATOMIC_POSITIONS (angstrom) | Cartesian Angstrom
Ni      1.2286390390     0.7093535490     9.0128649340
Ni      0.0000019230    -0.0000011100    11.0189462060
Ni      2.4572808969     1.4187121789    13.0229957570
Ni      1.2432293220     0.7177778242    15.0053782567
Ni      2.4572760100     2.8374169220     9.0128649340
Ni      1.2286511800     2.1280835430    11.0189462060
Ni      3.6860508627     3.5470133593    13.0222792163
Ni      2.4745008072     2.8468326634    15.0049390622
Ni      3.6859498400     4.9655441370     9.0128649340
Ni      2.4573004370     4.2561681970    11.0189462060
Ni      4.9149453414     5.6755762385    13.0217325809
Ni      3.7058520453     4.9716816903    14.9951335810
Ni      3.6859144660     0.7093535490     9.0128649340
Ni      2.4573019230    -0.0000011100    11.0189462060
Ni      4.9148326136     1.4187063167    13.0222803137
Ni      3.7026824794     0.7195626306    15.0049397431
Ni      4.9145514370     2.8374169220     9.0128649340
Ni      3.6859511800     2.1280835430    11.0189462060
Ni      6.1436399605     3.5470290805    13.0214919761
Ni      4.9342802511     2.8488059255    15.0036346007
Ni      6.1432252670     4.9655441370     9.0128649340
Ni      4.9146004370     4.2561681970    11.0189462060
Ni      7.3725591227     5.6756717564    13.0209615812
Ni      6.1654663959     4.9737187792    14.9935853874
Ni      6.1432636120     0.7093535490     9.0128649340
Ni      4.9146019230    -0.0000011100    11.0189462060
Ni      7.3726681522     1.4186802506    13.0217324939
Ni      6.1585320163     0.7235198983    14.9951331316
Ni      7.3719005830     2.8374169220     9.0128649340
Ni      6.1432511800     2.1280835430    11.0189462060
Ni      8.6015569684     3.5469845236    13.0209603755
Ni      7.3901028977     2.8525881062    14.9935841345
Ni      8.6005744130     4.9655441370     9.0128649340
Ni      7.3719004370     4.2561681970    11.0189462060
Ni      9.8305189189     5.6756519298    13.0204073259
Ni      8.6212091863     4.9774547897    14.9835656761
Cu      0.1636647249     0.0944871104    23.2456183878
Cu      1.4188293448     2.2407477654    23.2337838388
Cu      2.6753643099     4.3828179915    23.2359232230
Cu      2.6499630352     0.1083624716    23.2337837065
Cu      0.1645526379     0.0950013345    17.0310913515
Cu      2.6911247263     1.5537184784    19.1047388330
Cu      1.4323374443     0.8269565746    21.1986076446
Cu      3.9046274088     2.2543337750    23.2214378640
Cu      1.4076960141     2.2388664295    17.0456862651
Cu      3.9445919156     3.6984686528    19.1060394444
Cu      2.6868293047     2.9680757085    21.1899402017
Cu      5.1584313299     4.4014651671    23.2235696812
Cu      5.1333180278     0.1255192981    23.2359232721
Cu      2.6427658131     0.0996632856    17.0456871465
Cu      5.1752667692     1.5668786119    19.1060391806
Cu      3.9138469243     0.8428195659    21.1899402692
Cu      6.3909995352     2.2665953049    23.2235695811
Cu      3.8861660191     2.2436767454    17.0572739054
Cu      6.4286367103     3.7115726721    19.1073698728
Cu      5.1675510878     2.9834839217    21.1806869222
Cu      7.6450205287     4.4138517026    23.2256342736
Cu      2.6604085477     4.3781945133    17.0482548079
Cu      5.1940848482     5.8363508714    19.1049735184
Cu      3.9436681436     5.1061718478    21.1812303747
Cu      5.1361452624     4.3875259731    17.0600464003
Cu      7.6756072694     5.8535089416    19.1064569175
Cu      6.4219264656     5.1258995464    21.1719357349
Cu      5.1218352508     0.1148806378    17.0482545976
Cu      7.6514734592     1.5800311650    19.1049730163
Cu      6.3939119726     0.8622266898    21.1812305283
Cu      6.3677843150     2.2542664440    17.0600452232
Cu      8.9070932142     3.7205135325    19.1064566831
Cu      7.6501251273     2.9985977752    21.1719356266
Cu      7.6182796565     4.3984135917    17.0638000913
Cu     10.1540837634     5.8624614175    19.1092028816
Cu      8.9047303016     5.1411462808    21.1636100462
72
Step 3 | ATOMIC_POSITIONS (angstrom) | Cartesian Angstrom
Ni      1.2286390390     0.7093535490     9.0128649340
Ni      0.0000019230    -0.0000011100    11.0189462060
Ni      2.4581594483     1.4192179791    13.0175997083
Ni      1.2542230222     0.7241239409    14.9901459721
Ni      2.4572760100     2.8374169220     9.0128649340
Ni      1.2286511800     2.1280835430    11.0189462060
Ni      3.6869861707     3.5470396615    13.0165114928
Ni      2.4857412828     2.8525697854    14.9915277769
Ni      3.6859498400     4.9655441370     9.0128649340
Ni      2.4573004370     4.2561681970    11.0189462060
Ni      4.9161660809     5.6766222576    13.0154061773
Ni      3.7176179902     4.9769257959    14.9802102605
Ni      3.6859144660     0.7093535490     9.0128649340
Ni      2.4573019230    -0.0000011100    11.0189462060
Ni      4.9153222576     1.4195022071    13.0165123272
Ni      3.7132708209     0.7264277189    14.9915278018
Ni      4.9145514370     2.8374169220     9.0128649340
Ni      3.6859511800     2.1280835430    11.0189462060
Ni      6.1442354420     3.5473737884    13.0153051670
Ni      4.9453239029     2.8551822908    14.9918597115
Ni      6.1432252670     4.9655441370     9.0128649340
Ni      4.9146004370     4.2561681970    11.0189462060
Ni      7.3734577783     5.6770719858    13.0142605712
Ni      6.1769866496     4.9796034104    14.9805812823
Ni      6.1432636120     0.7093535490     9.0128649340
Ni      4.9146019230    -0.0000011100    11.0189462060
Ni      7.3741840875     1.4192131852    13.0154056156
Ni      6.1689557412     0.7310868615    14.9802096550
Ni      7.3719005830     2.8374169220     9.0128649340
Ni      6.1432511800     2.1280835430    11.0189462060
Ni      8.6032184298     3.5470639209    13.0142589527
Ni      7.4009585972     2.8596233361    14.9805804818
Ni      8.6005744130     4.9655441370     9.0128649340
Ni      7.3719004370     4.2561681970    11.0189462060
Ni      9.8325357105     5.6768167751    13.0131882384
Ni      8.6326178716     4.9840424057    14.9697544038
Cu      0.1865223474     0.1076840659    23.2475402585
Cu      1.4368543768     2.2383155348    23.2342202584
Cu      2.6870137305     4.3651048166    23.2352371546
Cu      2.6568691994     0.1251888547    23.2342201879
Cu      0.1818809343     0.1050055727    17.0317514690
Cu      2.7085673931     1.5637889307    19.1093408932
Cu      1.4543232006     0.8396500393    21.2061186743
Cu      3.9063816754     2.2553466646    23.2200262879
Cu      1.4169522211     2.2328952526    17.0465737430
Cu      3.9564635338     3.6920285859    19.1103196068
Cu      2.7032609283     2.9651652632    21.1962348771
Cu      5.1548003183     4.3855328347    23.2210946518
Cu      5.1238026929     0.1444646249    23.2352372342
Cu      2.6422229365     0.1106647577    17.0465738985
Cu      5.1756252499     1.5803796499    19.1103192509
Cu      3.9195422096     0.8585050417    21.1962349473
Cu      6.3753863320     2.2714168804    23.2210945912
Cu      3.8770214273     2.2383968959    17.0593757813
Cu      6.4232318121     3.7084521051    19.1113983428
Cu      5.1677551699     2.9836018099    21.1857478617
Cu      7.6240862612     4.4017653725    23.2218215358
Cu      2.6624058880     4.3577840396    17.0483332579
Cu      5.1966752562     5.8170520567    19.1090066441
Cu      3.9537066649     5.0891189914    21.1878750127
Cu      5.1208835390     4.3657039112    17.0609154695
Cu      7.6622935769     5.8355363201    19.1102721826
Cu      6.4166944568     5.1099729193    21.1771104306
Cu      5.1051574579     0.1268156418    17.0483328306
Cu      7.6360553240     1.5919238430    19.1090060861
Cu      6.3841630596     0.8794467799    21.1878751348
Cu      6.3412547200     2.2519605908    17.0609145988
Cu      8.8848716804     3.7179697492    19.1102719788
Cu      7.6337162990     3.0020300108    21.1771103403
Cu      7.5859351114     4.3797398444    17.0635432125
Cu     10.1244598385     5.8453580686    19.1117455570
Cu      8.8829593975     5.1285769066    21.1693512149
72
Step 4 | ATOMIC_POSITIONS (angstrom) | Cartesian Angstrom
Ni      1.2286390390     0.7093535490     9.0128649340
Ni      0.0000019230    -0.0000011100    11.0189462060
Ni      2.4595140341     1.4199995335    13.0120642673
Ni      1.2620750880     0.7286569530    14.9814402185
Ni      2.4572760100     2.8374169220     9.0128649340
Ni      1.2286511800     2.1280835430    11.0189462060
Ni      3.6883509004     3.5473031588    13.0109467413
Ni      2.4932793526     2.8564709378    14.9843524762
Ni      3.6859498400     4.9655441370     9.0128649340
Ni      2.4573004370     4.2561681970    11.0189462060
Ni      4.9178045732     5.6775542472    13.0095132792
Ni      3.7251133788     4.9812410939    14.9739634631
Ni      3.6859144660     0.7093535490     9.0128649340
Ni      2.4573019230    -0.0000011100    11.0189462060
Ni      4.9162323864     1.4205520670    13.0109473204
Ni      3.7204181539     0.7310050661    14.9843523116
Ni      4.9145514370     2.8374169220     9.0128649340
Ni      3.6859511800     2.1280835430    11.0189462060
Ni      6.1452148815     3.5479397557    13.0097001963
Ni      4.9522120518     2.8591593501    14.9862351246
Ni      6.1432252670     4.9655441370     9.0128649340
Ni      4.9146004370     4.2561681970    11.0189462060
Ni      7.3747086999     5.6783007176    13.0083504719
Ni      6.1838762839     4.9840180041    14.9759655775
Ni      6.1432636120     0.7093535490     9.0128649340
Ni      4.9146019230    -0.0000011100    11.0189462060
Ni      7.3758103935     1.4201656284    13.0095125833
Ni      6.1764403903     0.7354202006    14.9739627844
Ni      7.3719005830     2.8374169220     9.0128649340
Ni      6.1432511800     2.1280835430    11.0189462060
Ni      8.6049079381     3.5475333990    13.0083489057
Ni      7.4082263436     2.8633829461    14.9759649487
Ni      8.6005744130     4.9655441370     9.0128649340
Ni      7.3719004370     4.2561681970    11.0189462060
Ni      9.8344945706     5.6779478029    13.0069640442
Ni      8.6399565478     4.9882795821    14.9662162353
Cu      0.1969180772     0.1136860656    23.2469814651
Cu      1.4437793027     2.2398884230    23.2353048777
Cu      2.6899982532     4.3620646510    23.2347974283
Cu      2.6616938780     0.1303996025    23.2353048030
Cu      0.1858545479     0.1072996632    17.0333722026
Cu      2.7130918782     1.5664010882    19.1136463056
Cu      1.4626939228     0.8444828356    21.2065415915
Cu      3.9078910514     2.2562181731    23.2227719000
Cu      1.4172271661     2.2308026329    17.0455880454
Cu      3.9571901076     3.6900200631    19.1138922673
Cu      2.7076972834     2.9668611956    21.1974075631
Cu      5.1528776312     4.3808109226    23.2222185832
Cu      5.1226620377     0.1485693943    23.2347974704
Cu      2.6405480826     0.1119490001    17.0455880217
Cu      5.1742490927     1.5820130834    19.1138919339
Cu      3.9232290898     0.8614991114    21.1974076150
Cu      6.3703356876     2.2721127324    23.2222185276
Cu      3.8715238448     2.2352228383    17.0564811810
Cu      6.4180910771     3.7054841387    19.1141920573
Cu      5.1678522552     2.9836578531    21.1879818626
Cu      7.6154820119     4.3967977746    23.2211644984
Cu      2.6587144020     4.3523988268    17.0461618271
Cu      5.1928989888     5.8129346361    19.1121670470
Cu      3.9540707003     5.0879213906    21.1916086405
Cu      5.1120345814     4.3580897017    17.0566063495
Cu      7.6532690407     5.8296458238    19.1127668391
Cu      6.4130255580     5.1064912902    21.1818602834
Cu      5.0986479760     0.1263113214    17.0461613214
Cu      7.6306013175     1.5907121091    19.1121665568
Cu      6.3833078949     0.8803608667    21.1916086894
Cu      6.3302360913     2.2481041617    17.0566054912
Cu      8.8752581103     3.7130996026    19.1127666893
Cu      7.6288667139     3.0005935182    21.1818601759
Cu      7.5713623046     4.3713263652    17.0577927815
Cu     10.1109054337     5.8375324101    19.1130122249
Cu      8.8742328896     5.1235386159    21.1766247366
72
Step 5 | ATOMIC_POSITIONS (angstrom) | Cartesian Angstrom
Ni      1.2286390390     0.7093535490     9.0128649340
Ni      0.0000019230    -0.0000011100    11.0189462060
Ni      2.4619065727     1.4213804551    13.0041779732
Ni      1.2721875057     0.7344951491    14.9714882824
Ni      2.4572760100     2.8374169220     9.0128649340
Ni      1.2286511800     2.1280835430    11.0189462060
Ni      3.6907287465     3.5480290826    13.0032580804
Ni      2.5028181629     2.8615902905    14.9760897776
Ni      3.6859498400     4.9655441370     9.0128649340
Ni      2.4573004370     4.2561681970    11.0189462060
Ni      4.9205497673     5.6788653864    13.0015185958
Ni      3.7344347400     4.9872658016    14.9677593197
Ni      3.6859144660     0.7093535490     9.0128649340
Ni      2.4573019230    -0.0000011100    11.0189462060
Ni      4.9180495939     1.4222481621    13.0032584088
Ni      3.7296209497     0.7367061091    14.9760895162
Ni      4.9145514370     2.8374169220     9.0128649340
Ni      3.6859511800     2.1280835430    11.0189462060
Ni      6.1470966907     3.5490266266    13.0022110657
Ni      4.9608342380     2.8641374507    14.9797724197
Ni      6.1432252670     4.9655441370     9.0128649340
Ni      4.9146004370     4.2561681970    11.0189462060
Ni      7.3769480932     5.6799465164    13.0005754592
Ni      6.1923604891     4.9899311973    14.9716132145
Ni      6.1432636120     0.7093535490     9.0128649340
Ni      4.9146019230    -0.0000011100    11.0189462060
Ni      7.3783183979     1.4218870290    13.0015179515
Ni      6.1863184875     0.7404802571    14.9677586130
Ni      7.3719005830     2.8374169220     9.0128649340
Ni      6.1432511800     2.1280835430    11.0189462060
Ni      8.6074529306     3.5486502847    13.0005741349
Ni      7.4175893211     2.8677741097    14.9716127025
Ni      8.6005744130     4.9655441370     9.0128649340
Ni      7.3719004370     4.2561681970    11.0189462060
Ni      9.8373746074     5.6796106390    12.9988827196
Ni      8.6492594117     4.9936507551    14.9639481679
Cu      0.2077098535     0.1199167549    23.2455998571
Cu      1.4500120090     2.2435213007    23.2371915554
Cu      2.6913958710     4.3628974285    23.2346616595
Cu      2.6679564168     0.1339808369    23.2371914752
Cu      0.1868443727     0.1078711893    17.0353750125
Cu      2.7149059323     1.5674483837    19.1189768216
Cu      1.4702032979     0.8488183488    21.2052031433
Cu      3.9098988733     2.2573774618    23.2280070781
Cu      1.4144249322     2.2290181100    17.0434311016
Cu      3.9541703617     3.6886906035    19.1180928548
Cu      2.7101994467     2.9706151865    21.1977973113
Cu      5.1505441285     4.3781729952    23.2253315953
Cu      5.1240819888     0.1493633821    23.2346616782
Cu      2.6376015856     0.1104144440    17.0434310293
Cu      5.1715878539     1.5800625837    19.1180925060
Cu      3.9277312262     0.8617890573    21.1977973240
Cu      6.3668843789     2.2714108358    23.2253315649
Cu      3.8647930352     2.2313367356    17.0509303084
Cu      6.4106903442     3.7012113466    19.1172022566
Cu      5.1677912200     2.9836226097    21.1905188024
Cu      7.6075016704     4.3921903870    23.2219527513
Cu      2.6513348009     4.3495888780    17.0423794651
Cu      5.1852274650     5.8115906193    19.1159363255
Cu      3.9514019079     5.0912855139    21.1959303865
Cu      5.1013314433     4.3520888752    17.0492214659
Cu      7.6417599981     5.8246371293    19.1154856814
Cu      6.4080672886     5.1055237873    21.1883120636
Cu      5.0925247317     0.1213254351    17.0423789289
Cu      7.6256015343     1.5847402613    19.1159359348
Cu      6.3848868791     0.8763675940    21.1959303440
Cu      6.3196876271     2.2418352367    17.0492206634
Cu      8.8651659204     3.7056368876    19.1154856154
Cu      7.6255496940     2.9967833497    21.1883119381
Cu      7.5564743654     4.3627308636    17.0484603770
Cu     10.0964884725     5.8292087848    19.1143523713
Cu      8.8658837658     5.1187182337    21.1869162263
72
Step 6 | ATOMIC_POSITIONS (angstrom) | Cartesian Angstrom
Ni      1.2286390390     0.7093535490     9.0128649340
Ni      0.0000019230    -0.0000011100    11.0189462060
Ni      2.4670839857     1.4243692282    12.9904269578
Ni      1.2891265393     0.7442747465    14.9565104985
Ni      2.4572760100     2.8374169220     9.0128649340
Ni      1.2286511800     2.1280835430    11.0189462060
Ni      3.6958301962     3.5501279412    12.9902394743
Ni      2.5186713246     2.8705078411    14.9631112094
Ni      3.6859498400     4.9655441370     9.0128649340
Ni      2.4573004370     4.2561681970    11.0189462060
Ni      4.9262359155     5.6812927199    12.9882402193
Ni      3.7497687140     4.9980766563    14.9589592808
Ni      3.6859144660     0.7093535490     9.0128649340
Ni      2.4573019230    -0.0000011100    11.0189462060
Ni      4.9224176014     1.4256165703    12.9902394593
Ni      3.7452703610     0.7459765142    14.9631108352
Ni      4.9145514370     2.8374169220     9.0128649340
Ni      3.6859511800     2.1280835430    11.0189462060
Ni      6.1515113279     3.5515758562    12.9899428839
Ni      4.9752722476     2.8724731481    14.9690487602
Ni      6.1432252670     4.9655441370     9.0128649340
Ni      4.9146004370     4.2561681970    11.0189462060
Ni      7.3819166161     5.6827580868    12.9880642723
Ni      6.2064072304     5.0002124447    14.9651251289
Ni      6.1432636120     0.7093535490     9.0128649340
Ni      4.9146019230    -0.0000011100    11.0189462060
Ni      7.3832634623     1.4255972568    12.9882398688
Ni      6.2033477706     0.7483545038    14.9589585343
Ni      7.3719005830     2.8374169220     9.0128649340
Ni      6.1432511800     2.1280835430    11.0189462060
Ni      8.6123720550     3.5515477814    12.9880634536
Ni      7.4335162500     2.8747984555    14.9651247134
Ni      8.6005744130     4.9655441370     9.0128649340
Ni      7.3719004370     4.2561681970    11.0189462060
Ni      9.8427986718     5.6827422840    12.9860836538
Ni      8.6648964352     5.0026790718    14.9615722244
Cu      0.2233184183     0.1289284135    23.2430999823
Cu      1.4578713549     2.2512359189    23.2410166651
Cu      2.6913116708     4.3695567363    23.2355735542
Cu      2.6785671673     0.1369298837    23.2410165929
Cu      0.1837536860     0.1060869284    17.0376967321
Cu      2.7132291655     1.5664802155    19.1264607926
Cu      1.4795322998     0.8542044214    21.2018161959
Cu      3.9132565137     2.2593161383    23.2382832144
Cu      1.4062226176     2.2266894730    17.0386234253
Cu      3.9445405459     3.6875750557    19.1236831881
Cu      2.7113563151     2.9780600884    21.1980569992
Cu      5.1466469223     4.3776845149    23.2326364708
Cu      5.1298068748     0.1459608622    23.2355735014
Cu      2.6314838234     0.1044753766    17.0386233341
Cu      5.1658068418     1.5722805889    19.1236828460
Cu      3.9347571733     0.8590685052    21.1980569287
Cu      6.3645126669     2.2682800502    23.2326364586
Cu      3.8537324804     2.2249508074    17.0400580753
Cu      6.3971276973     3.6933809486    19.1208403355
Cu      5.1672288577     2.9832979113    21.1949746058
Cu      7.5975943377     4.3864704763    23.2259979918
Cu      2.6359958629     4.3488214884    17.0350339027
Cu      5.1691994924     5.8125431067    19.1212822142
Cu      3.9438094714     5.1014222178    21.2025784891
Cu      5.0839285503     4.3459555363    17.0356209002
Cu      7.6224230601     5.8179199594    19.1190218935
Cu      6.3992379070     5.1070455789    21.1991322040
Cu      5.0841908455     0.1084253553    17.0350333317
Cu      7.6184123345     1.5703832039    19.1212820033
Cu      6.3898692619     0.8647240277    21.2025783001
Cu      6.3056745708     2.2298302346    17.0356200959
Cu      8.8496801421     3.6922492907    19.1190219493
Cu      7.6224529380     2.9883760951    21.1991320565
Cu      7.5355417258     4.3506454102    17.0318267511
Cu     10.0748402972     5.8167102168    19.1162151887
Cu      8.8544083227     5.1120928399    21.2040054845
72
Step 7 | ATOMIC_POSITIONS (angstrom) | Cartesian Angstrom
Ni      1.2286390390     0.7093535490     9.0128649340
Ni      0.0000019230    -0.0000011100    11.0189462060
Ni      2.4727047459     1.4276143054    12.9799850166
Ni      1.3020880476     0.7517580247    14.9470504991
Ni      2.4572760100     2.8374169220     9.0128649340
Ni      1.2286511800     2.1280835430    11.0189462060
Ni      3.7013357378     3.5531201954    12.9808216957
Ni      2.5307038241     2.8778784348    14.9539044072
Ni      3.6859498400     4.9655441370     9.0128649340
Ni      2.4573004370     4.2561681970    11.0189462060
Ni      4.9320583392     5.6836084962    12.9790039531
Ni      3.7612242147     5.0071508908    14.9533557458
Ni      3.6859144660     0.7093535490     9.0128649340
Ni      2.4573019230    -0.0000011100    11.0189462060
Ni      4.9277615108     1.4288884323    12.9808213948
Ni      3.7576697149     0.7527116836    14.9539040779
Ni      4.9145514370     2.8374169220     9.0128649340
Ni      3.6859511800     2.1280835430    11.0189462060
Ni      6.1567775179     3.5546165468    12.9815766070
Ni      4.9865234280     2.8789690116    14.9602884549
Ni      6.1432252670     4.9655441370     9.0128649340
Ni      4.9146004370     4.2561681970    11.0189462060
Ni      7.3874818218     5.6850692885    12.9798646385
Ni      6.2171283723     5.0084735276    14.9600091723
Ni      6.1432636120     0.7093535490     9.0128649340
Ni      4.9146019230    -0.0000011100    11.0189462060
Ni      7.3881802336     1.4294815744    12.9790038074
Ni      6.2169339827     0.7537381682    14.9533550174
Ni      7.3719005830     2.8374169220     9.0128649340
Ni      6.1432511800     2.1280835430    11.0189462060
Ni      8.6171563204     3.5552119413    12.9798642741
Ni      7.4460310392     2.8799528119    14.9600087877
Ni      8.6005744130     4.9655441370     9.0128649340
Ni      7.3719004370     4.2561681970    11.0189462060
Ni      9.8478499870     5.6856585835    12.9780112856
Ni      8.6769435806     5.0096346204    14.9600002558
Cu      0.2332803612     0.1346800011    23.2418091769
Cu      1.4618490394     2.2584655479    23.2447719275
Cu      2.6893629645     4.3795117511    23.2382183360
Cu      2.6868170547     0.1367598454    23.2447718642
Cu      0.1764991861     0.1018985505    17.0375062262
Cu      2.7070158670     1.5628929534    19.1293678507
Cu      1.4837855931     0.8566600508    21.1992499441
Cu      3.9157880918     2.2607778411    23.2471898454
Cu      1.3966392462     2.2250155107    17.0335516219
Cu      3.9325676594     3.6872389704    19.1254768615
Cu      2.7097783029     2.9841042800    21.1987752474
Cu      5.1436506950     4.3811028879    23.2404591875
Cu      5.1374537130     0.1392958028    23.2382182137
Cu      2.6252424356     0.0970129211    17.0335515600
Cu      5.1595293227     1.5620797808    19.1254765481
Cu      3.9392026168     0.8546798079    21.1987751323
Cu      6.3659748840     2.2639761036    23.2404591713
Cu      3.8453579301     2.2201157573    17.0306236953
Cu      6.3851847143     3.6864856600    19.1214931167
Cu      5.1660116387     2.9825951380    21.1991504174
Cu      7.5934148072     4.3840574768    23.2327068676
Cu      2.6215923402     4.3509976587    17.0285437904
Cu      5.1539322379     5.8148146277    19.1236875439
Cu      3.9355569375     5.1119533999    21.2069078217
Cu      5.0710834417     4.3445526525    17.0248362747
Cu      7.6073432088     5.8131749391    19.1202274036
Cu      6.3917570679     5.1102115939    21.2069223980
Cu      5.0788738109     0.0948634473    17.0285432750
Cu      7.6127459124     1.5560255295    19.1236874897
Cu      6.3948632470     0.8523115504    21.2069075691
Cu      6.2980371092     2.2194073607    17.0248355559
Cu      8.8380308642     3.6815623083    19.1202275634
Cu      7.6214543569     2.9803145649    21.2069222646
Cu      7.5231761083     4.3435060918    17.0193659773
Cu     10.0598682797     5.8080660824    19.1171278407
Cu      8.8472229592     5.1079443450    21.2154018839
72
Step 8 | ATOMIC_POSITIONS (angstrom) | Cartesian Angstrom
Ni      1.2286390390     0.7093535490     9.0128649340
Ni      0.0000019230    -0.0000011100    11.0189462060
Ni      2.4766068351     1.4298677089    12.9768156940
Ni      1.3069648597     0.7545737622    14.9454771810
Ni      2.4572760100     2.8374169220     9.0128649340
Ni      1.2286511800     2.1280835430    11.0189462060
Ni      3.7051494711     3.5558117327    12.9783699892
Ni      2.5351516499     2.8812094540    14.9510527863
Ni      3.6859498400     4.9655441370     9.0128649340
Ni      2.4573004370     4.2561681970    11.0189462060
Ni      4.9358018349     5.6851410821    12.9770109141
Ni      3.7652748401     5.0111740079    14.9518749080
Ni      3.6859144660     0.7093535490     9.0128649340
Ni      2.4573019230    -0.0000011100    11.0189462060
Ni      4.9319992382     1.4308459870    12.9783697243
Ni      3.7627781939     0.7548983167    14.9510527596
Ni      4.9145514370     2.8374169220     9.0128649340
Ni      3.6859511800     2.1280835430    11.0189462060
Ni      6.1608734615     3.5569814158    12.9798761388
Ni      4.9910455880     2.8815801089    14.9562054666
Ni      6.1432252670     4.9655441370     9.0128649340
Ni      4.9146004370     4.2561681970    11.0189462060
Ni      7.3915012432     5.6862541915    12.9785895627
Ni      6.2211985913     5.0118148998    14.9572870971
Ni      6.1432636120     0.7093535490     9.0128649340
Ni      4.9146019230    -0.0000011100    11.0189462060
Ni      7.3913797330     1.4319575315    12.9770109123
Ni      6.2224437225     0.7552345075    14.9518743933
Ni      7.3719005830     2.8374169220     9.0128649340
Ni      6.1432511800     2.1280835430    11.0189462060
Ni      8.6201926676     3.5581001756    12.9785892582
Ni      7.4509600897     2.8818071411    14.9572865831