88
Step 1 | ATOMIC_POSITIONS (angstrom) | Cartesian Angstrom
NI      1.2249697659     1.5785704584     2.1155906714
NI      2.4499129846     0.8859487093     4.0817085140
NI      3.6747047508     1.5786040947     2.1156652637
NI      4.8994698995     0.8860274547     4.0820438224
NI      6.1242867639     1.5781187194     2.1156068720
NI      7.3492403833     0.8859078680     4.0823764313
NI      8.5743208822     1.5780117585     2.1155013233
NI      9.7993463820     0.8862295549     4.0822040249
NI      2.4499648705     3.7001733039     2.1157478716
NI      3.6743842913     3.0069742750     4.0810025512
NI      4.8992371650     3.7000235994     2.1155508205
NI      6.1248767436     3.0077009408     4.0829961816
NI      7.3495228002     3.7001212468     2.1151812970
NI      8.5738626163     3.0079063168     4.0830148432
NI      9.7992878891     3.7000272953     2.1153107435
NI     11.0245600843     3.0072552325     4.0821472495
NI      3.6744654690     5.8215249292     2.1154281772
NI      4.8997984921     5.1289143485     4.0833078672
NI      6.1247992012     5.8216655819     2.1150146374
NI      7.3496607189     5.1287408181     4.0810168575
NI      8.5739793769     5.8216570565     2.1148951655
NI      9.7986702987     5.1288936470     4.0834132502
NI     11.0242471562     5.8216036786     2.1153643524
NI     12.2491418508     5.1288155097     4.0818805576
NI      4.8995979906     7.9431389074     2.1154361883
NI      6.1247504957     7.2504760217     4.0824130431
NI      7.3493633146     7.9429985269     2.1150737652
NI      8.5741477176     7.2507747989     4.0820216264
NI      9.7992964775     7.9432227970     2.1153861754
NI     11.0237404990     7.2509966968     4.0825664997
NI     12.2489534743     7.9430236863     2.1152580067
NI     13.4741304307     7.2507959613     4.0824083323
AG      1.2253028889     2.1062385598     6.2633633567
AG      2.4497394648     1.4175497988     8.6609235217
AG      3.6743669749     2.1064191025     6.2640716765
AG      4.8996340528     1.4138500411     8.6621224175
AG      6.1240678170     2.1059489430     6.2632807483
AG      7.3494462544     1.4123747305     8.6623839033
AG      8.5747539393     2.1060619636     6.2629968424
AG      9.7995216975     1.4136955036     8.6632797642
AG      2.4503696814     4.2274869214     6.2631520146
AG      3.6746055831     3.5354094744     8.6616135150
AG      4.8992857675     4.2276878282     6.2631861735
AG      6.1178008662     3.5304679732     8.6541231020
AG      7.3495565752     4.2305318793     6.2660644869
AG      8.5845880275     3.5228487004     8.6437528803
AG      9.7986765528     4.2281466793     6.2633013078
AG     11.0246839098     3.5359415789     8.6623849406
AG      3.6730323197     6.3493770303     6.2630572868
AG      4.8923481271     5.6570184280     8.6589816701
AG      6.1260173164     6.3484503706     6.2645703240
AG      7.3344025560     5.6499734559     8.5896471581
AG      8.5733709485     6.3482283352     6.2645296301
AG      9.8093488558     5.6581113749     8.6575031820
AG     11.0255890581     6.3496124655     6.2627898956
AG     12.2488049883     5.6578220111     8.6622367875
AG      4.8995158994     8.4712608012     6.2638485083
AG      6.1166822915     7.7849639027     8.6575658711
AG      7.3498336326     8.4707116887     6.2650651804
AG      8.5851647682     7.7886371838     8.6508517972
AG      9.7985527169     8.4708243824     6.2648711533
AG     11.0253773328     7.7804226166     8.6611929426
AG     12.2492207454     8.4705699649     6.2637918931
AG     13.4742240299     7.7799333740     8.6611923888
O       7.5899653115     6.7097109008    10.4954793518
C       7.5590756541     5.3358612846    10.8752879489
C       6.7911338120     4.8681966809    12.1184399381
O       6.8909763010     6.1829813711    13.0253705886
C       7.6943656830     3.2952889055    12.8159647483
O       7.9367092344     2.1233586405    11.7814091289
C       6.7000166754     2.5187438318    13.9261483701
O       7.6202588014     1.2122029449    14.3795539678
C       6.1133706645     3.6043098758    15.0746595906
O       5.0262891817     2.7198811019    15.8330768995
C       7.4739609943     4.4138251002    15.9505936956
O       6.8476873740     5.6008963398    16.7888667131
H       7.6887823646     4.3528987585    10.1437698474
H       5.5644109074     4.6376630812    11.9114307752
H       6.2432585765     6.9430525855    12.7720476498
H       8.8205984424     3.6264573951    13.1841934517
H       8.5336412755     1.3437235990    12.1046133283
H       5.6928995587     1.9975308089    13.4754015624
H       7.3831775017     0.9527429977    15.3121451507
H       5.3998889785     4.4909386139    14.6217640441
H       5.1174183500     2.9318882029    16.7801602787
H       8.1653568563     3.5932114448    16.5275705253
H       8.3501788299     4.9853300389    15.3405843305
H       7.5513558405     6.0221941237    17.2974132166
88
Step 2 | ATOMIC_POSITIONS (angstrom) | Cartesian Angstrom
NI      1.2249966575     1.5794427342     2.1027769482
NI      2.4500216123     0.9003500223     4.0442783146
NI      3.6746916567     1.5794467591     2.1028572456
NI      4.8993294376     0.9006697595     4.0449141831
NI      6.1241796714     1.5785792794     2.1028621374
NI      7.3491263543     0.9004351036     4.0452955527
NI      8.5742696732     1.5783377649     2.1026808127
NI      9.7995009492     0.9011277473     4.0450050839
NI      2.4500629136     3.7010656194     2.1029977054
NI      3.6740112599     3.0208627471     4.0428601741
NI      4.8989702872     3.7007571012     2.1027990532
NI      6.1253110580     3.0224938293     4.0463963610
NI      7.3496092597     3.7010237625     2.1020207704
NI      8.5734688173     3.0228830322     4.0463751875
NI      9.7993602792     3.7007129961     2.1023659581
NI     11.0249986397     3.0215864211     4.0448424451
NI      3.6742279260     5.8221835147     2.1025395993
NI      4.9001531425     5.1433034097     4.0469001465
NI      6.1251900030     5.8224082499     2.1016536681
NI      7.3499497787     5.1427502824     4.0429680107
NI      8.5735411406     5.8224310904     2.1014361565
NI      9.7980665758     5.1432595724     4.0469886842
NI     11.0243800505     5.8223105367     2.1024401895
NI     12.2492030593     5.1430689226     4.0443221354
NI      4.8996317665     7.9437863372     2.1025679504
NI      6.1251374667     7.2646647366     4.0455229082
NI      7.3493327881     7.9434634324     2.1018005542
NI      8.5739365923     7.2652085060     4.0447914274
NI      9.7992966015     7.9439049457     2.1024635898
NI     11.0234428050     7.2659388434     4.0455147270
NI     12.2489246401     7.9435579229     2.1021470842
NI     13.4742566218     7.2656225337     4.0452749013
AG      1.2254620275     2.0911754382     6.2658230306
AG      2.4493869197     1.4193346686     8.7067721924
AG      3.6743327784     2.0913145289     6.2671253504
AG      4.9000756795     1.4146559248     8.7095021085
AG      6.1241588375     2.0906378309     6.2654833590
AG      7.3489203276     1.4103961986     8.7101130616
AG      8.5745122727     2.0905669256     6.2643437616
AG      9.8007819583     1.4119997342     8.7118342297
AG      2.4503522482     4.2120038095     6.2656976492
AG      3.6732022853     3.5345384024     8.7080463186
AG      4.8986987175     4.2123309274     6.2648274300
AG      6.1148161040     3.5249340768     8.6935039783
AG      7.3493063393     4.2136586133     6.2671642922
AG      8.5889056285     3.5173996850     8.6716034484
AG      9.7994985787     4.2131808030     6.2646849251
AG     11.0272061030     3.5357455930     8.7101591452
AG      3.6727828534     6.3342029087     6.2650499618
AG      4.8851393167     5.6569390745     8.7039029793
AG      6.1237724341     6.3348624318     6.2645644015
AG      7.3291613968     5.6489102982     8.5579895514
AG      8.5755738744     6.3343224868     6.2654010262
AG      9.8104266115     5.6581571237     8.7004445899
AG     11.0260241506     6.3345756697     6.2643778924
AG     12.2495515949     5.6579069342     8.7092453802
AG      4.8993713957     8.4560363578     6.2662559518
AG      6.1161451807     7.7872661112     8.7011610670
AG      7.3496812914     8.4556106752     6.2687377000
AG      8.5856419167     7.7878914397     8.6890725104
AG      9.7988283946     8.4555882421     6.2676721580
AG     11.0289125455     7.7814862442     8.7075815762
AG     12.2492374968     8.4556854617     6.2668068522
AG     13.4729437344     7.7805578781     8.7070921120
O       7.5914562999     6.6147962640    10.5713385611
C       7.5382605848     5.3473636858    10.9146451597
C       6.7673740448     4.9128807749    12.0969898100
O       6.8584643062     6.1528584814    13.0129944312
C       7.7059425789     3.2498276171    12.8439580396
O       7.9486830091     2.1456514687    11.7960904132
C       6.6892894949     2.5242133454    13.9238231898
O       7.5770937638     1.2834222025    14.3785585964
C       6.1126630632     3.6095731381    15.0669869001
O       5.0963065056     2.7622263263    15.8148889579
C       7.4915520172     4.4253380985    15.9610705149
O       6.8780921528     5.5338316659    16.7653478665
H       7.6933749103     4.4040555424    10.1975563519
H       5.6500010143     4.6432488658    11.9300589785
H       6.2823674464     6.8739448442    12.7730643159
H       8.7366929926     3.6120734947    13.1673402055
H       8.4916888888     1.4134372551    12.1053828202
H       5.7653471189     2.0349007216    13.4936948017
H       7.3792719585     0.9656509920    15.2940577093
H       5.4597037001     4.4331591263    14.6408389022
H       5.1160658481     2.9343535985    16.7819179818
H       8.1067695050     3.6393300721    16.5111821071
H       8.2808142868     4.9452727701    15.3494824147
H       7.5426880749     6.0113891212    17.2862057193
