88
Step 1 | ATOMIC_POSITIONS (angstrom) | Cartesian Angstrom
NI      1.2249697659     1.5785704584     2.1155906714
NI      2.4499129846     0.8859487093     4.0817085140
NI      3.6747047508     1.5786040947     2.1156652637
NI      4.8994698995     0.8860274547     4.0820438224
NI      6.1242867639     1.5781187194     2.1156068720
NI      7.3492403833     0.8859078680     4.0823764313
NI      8.5743208822     1.5780117585     2.1155013233
NI      9.7993463820     0.8862295549     4.0822040249
NI      2.4499648705     3.7001733039     2.1157478716
NI      3.6743842913     3.0069742750     4.0810025512
NI      4.8992371650     3.7000235994     2.1155508205
NI      6.1248767436     3.0077009408     4.0829961816
NI      7.3495228002     3.7001212468     2.1151812970
NI      8.5738626163     3.0079063168     4.0830148432
NI      9.7992878891     3.7000272953     2.1153107435
NI     11.0245600843     3.0072552325     4.0821472495
NI      3.6744654690     5.8215249292     2.1154281772
NI      4.8997984921     5.1289143485     4.0833078672
NI      6.1247992012     5.8216655819     2.1150146374
NI      7.3496607189     5.1287408181     4.0810168575
NI      8.5739793769     5.8216570565     2.1148951655
NI      9.7986702987     5.1288936470     4.0834132502
NI     11.0242471562     5.8216036786     2.1153643524
NI     12.2491418508     5.1288155097     4.0818805576
NI      4.8995979906     7.9431389074     2.1154361883
NI      6.1247504957     7.2504760217     4.0824130431
NI      7.3493633146     7.9429985269     2.1150737652
NI      8.5741477176     7.2507747989     4.0820216264
NI      9.7992964775     7.9432227970     2.1153861754
NI     11.0237404990     7.2509966968     4.0825664997
NI     12.2489534743     7.9430236863     2.1152580067
NI     13.4741304307     7.2507959613     4.0824083323
AG      1.2253028889     2.1062385598     6.2633633567
AG      2.4497394648     1.4175497988     8.6609235217
AG      3.6743669749     2.1064191025     6.2640716765
AG      4.8996340528     1.4138500411     8.6621224175
AG      6.1240678170     2.1059489430     6.2632807483
AG      7.3494462544     1.4123747305     8.6623839033
AG      8.5747539393     2.1060619636     6.2629968424
AG      9.7995216975     1.4136955036     8.6632797642
AG      2.4503696814     4.2274869214     6.2631520146
AG      3.6746055831     3.5354094744     8.6616135150
AG      4.8992857675     4.2276878282     6.2631861735
AG      6.1178008662     3.5304679732     8.6541231020
AG      7.3495565752     4.2305318793     6.2660644869
AG      8.5845880275     3.5228487004     8.6437528803
AG      9.7986765528     4.2281466793     6.2633013078
AG     11.0246839098     3.5359415789     8.6623849406
AG      3.6730323197     6.3493770303     6.2630572868
AG      4.8923481271     5.6570184280     8.6589816701
AG      6.1260173164     6.3484503706     6.2645703240
AG      7.3344025560     5.6499734559     8.5896471581
AG      8.5733709485     6.3482283352     6.2645296301
AG      9.8093488558     5.6581113749     8.6575031820
AG     11.0255890581     6.3496124655     6.2627898956
AG     12.2488049883     5.6578220111     8.6622367875
AG      4.8995158994     8.4712608012     6.2638485083
AG      6.1166822915     7.7849639027     8.6575658711
AG      7.3498336326     8.4707116887     6.2650651804
AG      8.5851647682     7.7886371838     8.6508517972
AG      9.7985527169     8.4708243824     6.2648711533
AG     11.0253773328     7.7804226166     8.6611929426
AG     12.2492207454     8.4705699649     6.2637918931
AG     13.4742240299     7.7799333740     8.6611923888
O       7.5899653115     6.7097109008    10.4954793518
C       7.5590756541     5.3358612846    10.8752879489
C       6.7911338120     4.8681966809    12.1184399381
O       6.8909763010     6.1829813711    13.0253705886
C       7.6943656830     3.2952889055    12.8159647483
O       7.9367092344     2.1233586405    11.7814091289
C       6.7000166754     2.5187438318    13.9261483701
O       7.6202588014     1.2122029449    14.3795539678
C       6.1133706645     3.6043098758    15.0746595906
O       5.0262891817     2.7198811019    15.8330768995
C       7.4739609943     4.4138251002    15.9505936956
O       6.8476873740     5.6008963398    16.7888667131
H       7.6887823646     4.3528987585    10.1437698474
H       5.5644109074     4.6376630812    11.9114307752
H       6.2432585765     6.9430525855    12.7720476498
H       8.8205984424     3.6264573951    13.1841934517
H       8.5336412755     1.3437235990    12.1046133283
H       5.6928995587     1.9975308089    13.4754015624
H       7.3831775017     0.9527429977    15.3121451507
H       5.3998889785     4.4909386139    14.6217640441
H       5.1174183500     2.9318882029    16.7801602787
H       8.1653568563     3.5932114448    16.5275705253
H       8.3501788299     4.9853300389    15.3405843305
H       7.5513558405     6.0221941237    17.2974132166
88
Step 2 | ATOMIC_POSITIONS (angstrom) | Cartesian Angstrom
NI      1.2249966575     1.5794427342     2.1027769482
NI      2.4500216123     0.9003500223     4.0442783146
NI      3.6746916567     1.5794467591     2.1028572456
NI      4.8993294376     0.9006697595     4.0449141831
NI      6.1241796714     1.5785792794     2.1028621374
NI      7.3491263543     0.9004351036     4.0452955527
NI      8.5742696732     1.5783377649     2.1026808127
NI      9.7995009492     0.9011277473     4.0450050839
NI      2.4500629136     3.7010656194     2.1029977054
NI      3.6740112599     3.0208627471     4.0428601741
NI      4.8989702872     3.7007571012     2.1027990532
NI      6.1253110580     3.0224938293     4.0463963610
NI      7.3496092597     3.7010237625     2.1020207704
NI      8.5734688173     3.0228830322     4.0463751875
NI      9.7993602792     3.7007129961     2.1023659581
NI     11.0249986397     3.0215864211     4.0448424451
NI      3.6742279260     5.8221835147     2.1025395993
NI      4.9001531425     5.1433034097     4.0469001465
NI      6.1251900030     5.8224082499     2.1016536681
NI      7.3499497787     5.1427502824     4.0429680107
NI      8.5735411406     5.8224310904     2.1014361565
NI      9.7980665758     5.1432595724     4.0469886842
NI     11.0243800505     5.8223105367     2.1024401895
NI     12.2492030593     5.1430689226     4.0443221354
NI      4.8996317665     7.9437863372     2.1025679504
NI      6.1251374667     7.2646647366     4.0455229082
NI      7.3493327881     7.9434634324     2.1018005542
NI      8.5739365923     7.2652085060     4.0447914274
NI      9.7992966015     7.9439049457     2.1024635898
NI     11.0234428050     7.2659388434     4.0455147270
NI     12.2489246401     7.9435579229     2.1021470842
NI     13.4742566218     7.2656225337     4.0452749013
AG      1.2254620275     2.0911754382     6.2658230306
AG      2.4493869197     1.4193346686     8.7067721924
AG      3.6743327784     2.0913145289     6.2671253504
AG      4.9000756795     1.4146559248     8.7095021085
AG      6.1241588375     2.0906378309     6.2654833590
AG      7.3489203276     1.4103961986     8.7101130616
AG      8.5745122727     2.0905669256     6.2643437616
AG      9.8007819583     1.4119997342     8.7118342297
AG      2.4503522482     4.2120038095     6.2656976492
AG      3.6732022853     3.5345384024     8.7080463186
AG      4.8986987175     4.2123309274     6.2648274300
AG      6.1148161040     3.5249340768     8.6935039783
AG      7.3493063393     4.2136586133     6.2671642922
AG      8.5889056285     3.5173996850     8.6716034484
AG      9.7994985787     4.2131808030     6.2646849251
AG     11.0272061030     3.5357455930     8.7101591452
AG      3.6727828534     6.3342029087     6.2650499618
AG      4.8851393167     5.6569390745     8.7039029793
AG      6.1237724341     6.3348624318     6.2645644015
AG      7.3291613968     5.6489102982     8.5579895514
AG      8.5755738744     6.3343224868     6.2654010262
AG      9.8104266115     5.6581571237     8.7004445899
AG     11.0260241506     6.3345756697     6.2643778924
AG     12.2495515949     5.6579069342     8.7092453802
AG      4.8993713957     8.4560363578     6.2662559518
AG      6.1161451807     7.7872661112     8.7011610670
AG      7.3496812914     8.4556106752     6.2687377000
AG      8.5856419167     7.7878914397     8.6890725104
AG      9.7988283946     8.4555882421     6.2676721580
AG     11.0289125455     7.7814862442     8.7075815762
AG     12.2492374968     8.4556854617     6.2668068522
AG     13.4729437344     7.7805578781     8.7070921120
O       7.5914562999     6.6147962640    10.5713385611
C       7.5382605848     5.3473636858    10.9146451597
C       6.7673740448     4.9128807749    12.0969898100
O       6.8584643062     6.1528584814    13.0129944312
C       7.7059425789     3.2498276171    12.8439580396
O       7.9486830091     2.1456514687    11.7960904132
C       6.6892894949     2.5242133454    13.9238231898
O       7.5770937638     1.2834222025    14.3785585964
C       6.1126630632     3.6095731381    15.0669869001
O       5.0963065056     2.7622263263    15.8148889579
C       7.4915520172     4.4253380985    15.9610705149
O       6.8780921528     5.5338316659    16.7653478665
H       7.6933749103     4.4040555424    10.1975563519
H       5.6500010143     4.6432488658    11.9300589785
H       6.2823674464     6.8739448442    12.7730643159
H       8.7366929926     3.6120734947    13.1673402055
H       8.4916888888     1.4134372551    12.1053828202
H       5.7653471189     2.0349007216    13.4936948017
H       7.3792719585     0.9656509920    15.2940577093
H       5.4597037001     4.4331591263    14.6408389022
H       5.1160658481     2.9343535985    16.7819179818
H       8.1067695050     3.6393300721    16.5111821071
H       8.2808142868     4.9452727701    15.3494824147
H       7.5426880749     6.0113891212    17.2862057193
88
Step 3 | ATOMIC_POSITIONS (angstrom) | Cartesian Angstrom
NI      1.2249396589     1.5817453598     2.0687575768
NI      2.4502534976     0.9263138981     3.9859630776
NI      3.6747574146     1.5815256772     2.0687526291
NI      4.8991650082     0.9274825706     3.9869065604
NI      6.1241341712     1.5801599159     2.0691519475
NI      7.3489962801     0.9269539858     3.9872934726
NI      8.5740634167     1.5798245550     2.0688309620
NI      9.7996843765     0.9281886686     3.9868357323
NI      2.4501499901     3.7034134906     2.0688085073
NI      3.6733822252     3.0461676793     3.9836720639
NI      4.8987601322     3.7028779711     2.0691216150
NI      6.1259847853     3.0490728836     3.9888594280
NI      7.3497527167     3.7034189112     2.0674758193
NI      8.5731137182     3.0498666579     3.9887309397
NI      9.7993174262     3.7025145715     2.0684105842
NI     11.0255945934     3.0478499676     3.9867237278
NI      3.6739537086     5.8242790214     2.0685972409
NI      4.9007585527     5.1695645054     3.9894294948
NI      6.1258133312     5.8243894427     2.0668635717
NI      7.3504507740     5.1686356714     3.9837435085
NI      8.5727381576     5.8245585672     2.0664627508
NI      9.7970903043     5.1696008131     3.9893295918
NI     11.0245717352     5.8244636176     2.0684842805
NI     12.2493094734     5.1690710680     3.9858988488
NI      4.8996802309     7.9456991677     2.0686751196
NI      6.1260274960     7.2908880651     3.9869206333
NI      7.3493164150     7.9451347325     2.0672269801
NI      8.5734894499     7.2916714857     3.9860046685
NI      9.7992377650     7.9459226944     2.0684050757
NI     11.0231866081     7.2932943181     3.9874273100
NI     12.2488844568     7.9453689792     2.0678114014
NI     13.4741872242     7.2929626893     3.9871485496
AG      1.2251638126     2.0628921115     6.2652992769
AG      2.4501625827     1.4193868982     8.7961558395
AG      3.6747067326     2.0625216840     6.2678796158
AG      4.8984734705     1.4120549991     8.8019040893
AG      6.1233891897     2.0613110006     6.2645417443
AG      7.3494424756     1.4081821142     8.8036924113
AG      8.5749383635     2.0610092507     6.2612485998
AG      9.8026205269     1.4098063407     8.8066342612
AG      2.4501748953     4.1836590607     6.2658055284
AG      3.6718284904     3.5325570942     8.7980823371
AG      4.8976171680     4.1833465705     6.2622160925
AG      6.1129395087     3.5210395395     8.7718318590
AG      7.3488746971     4.1805973748     6.2565752397
AG      8.5915598453     3.5133994466     8.7264771506
AG      9.8013301541     4.1847882097     6.2605768130
AG     11.0294710311     3.5364532751     8.8041885050
AG      3.6717765356     6.3057417330     6.2635735900
AG      4.8792752106     5.6568036230     8.7940555922
AG      6.1184438303     6.3093582356     6.2527583274
AG      7.3216211076     5.6478688791     8.4925292860
AG      8.5801816094     6.3090189670     6.2558212207
AG      9.8095757852     5.6571832903     8.7847081786
AG     11.0276072739     6.3066186438     6.2622718568
AG     12.2483186273     5.6576648453     8.8000972975
AG      4.8982373618     8.4288766219     6.2654543447
AG      6.1165830259     7.7878254288     8.7869695826
AG      7.3492761869     8.4281092391     6.2699646740
AG      8.5840505626     7.7841805968     8.7653655266
AG      9.8002668793     8.4282707653     6.2670970283
AG     11.0306355192     7.7811019873     8.7985349808
AG     12.2494673558     8.4276504452     6.2675030059
AG     13.4731788782     7.7817981160     8.7962397254
O       7.6089983109     6.4893063956    10.7023623773
C       7.4922817258     5.3248371663    10.9825832530
C       6.7479966597     4.9894969674    12.1081770703
O       6.8510009466     6.0185147354    13.0190156017
C       7.6764233733     3.1586772188    12.8678145820
O       7.9221128190     2.2580794884    11.8058232946
C       6.7185127398     2.5596155085    13.9447853288
O       7.5047892682     1.4144902537    14.3704010876
C       6.1569571052     3.5914176486    15.0722665206
O       5.2176450733     2.8300375980    15.8014491272
C       7.4690217652     4.4333364225    15.9665573871
O       6.9360987668     5.4279908814    16.7448207389
H       7.7096484318     4.4989721847    10.3017642222
H       5.7814013668     4.6477422922    11.9563835132
H       6.2971789851     6.8145087313    12.7492973262
H       8.6114823489     3.5925568621    13.1544545322
H       8.4590881566     1.4821192589    12.1341237294
H       5.8655355333     2.0922165842    13.5078233043
H       7.3627460807     0.9963096046    15.2659216977
H       5.5541058279     4.3575857050    14.6575072179
H       5.1197613137     2.9433990402    16.7675212060
H       8.0141390023     3.7019943484    16.4989084530
H       8.1805542862     4.8865863239    15.3388271418
H       7.5139403700     5.9805602754    17.2528084422
88
Step 4 | ATOMIC_POSITIONS (angstrom) | Cartesian Angstrom
NI      1.2250161637     1.5842710187     2.0344457942
NI      2.4502387200     0.9427093936     3.9600898963
NI      3.6747055786     1.5838001206     2.0341645418
NI      4.8989376035     0.9445640162     3.9609111647
NI      6.1242106033     1.5825010062     2.0350534215
NI      7.3490811292     0.9438349107     3.9611555333
NI      8.5738617853     1.5822609218     2.0347534067
NI      9.7999828750     0.9452184388     3.9604300825
NI      2.4499995300     3.7060121053     2.0341405417
NI      3.6730251143     3.0625462704     3.9575930555
NI      4.8988888499     3.7054608976     2.0352544009
NI      6.1260937179     3.0657949822     3.9624933822
NI      7.3498664623     3.7060049808     2.0328979809
NI      8.5733020511     3.0668735605     3.9621540193
NI      9.7991494095     3.7047616189     2.0345132566
NI     11.0258687744     3.0649183536     3.9606624573
NI      3.6738938493     5.8267781689     2.0346698443
NI      4.9008009583     5.1864412711     3.9626540734
NI      6.1260259981     5.8267078536     2.0323305485
NI      7.3505852348     5.1858966189     3.9567725541
NI      8.5724978430     5.8269855264     2.0317547157
NI      9.7968896388     5.1867900308     3.9622784930
NI     11.0245289317     5.8268683046     2.0345552531
NI     12.2494909766     5.1857396815     3.9597690363
NI      4.8997956429     7.9479123667     2.0346193264
NI      6.1266331185     7.3082825864     3.9589062165
NI      7.3494001321     7.9474360334     2.0326909228
NI      8.5730859953     7.3090066984     3.9583404321
NI      9.7990521530     7.9481351063     2.0341350858
NI     11.0230826799     7.3105673833     3.9609475716
NI     12.2487531460     7.9475495604     2.0335761208
NI     13.4741768821     7.3103490253     3.9607676895
AG      1.2251750707     2.0436882930     6.2606130622
AG      2.4507332607     1.4170721034     8.8593272371
AG      3.6745105492     2.0429494243     6.2636511073
AG      4.8976002545     1.4092704788     8.8676851383
AG      6.1231990513     2.0409681518     6.2595895275
AG      7.3493563268     1.4083936456     8.8701228889
AG      8.5752154602     2.0406799559     6.2544103734
AG      9.8038795645     1.4101078157     8.8742065716
AG      2.4500885921     4.1641597404     6.2621670053
AG      3.6721354799     3.5320484666     8.8613769594
AG      4.8968785011     4.1634600944     6.2554049011
AG      6.1151758231     3.5233896394     8.8278669775
AG      7.3486626210     4.1560407687     6.2355307027
AG      8.5883198043     3.5169856801     8.7619042388
AG      9.8026155219     4.1653208199     6.2517206979
AG     11.0294585571     3.5365975841     8.8719647016
AG      3.6714552309     6.2864617131     6.2588536547
AG      4.8832933525     5.6565453852     8.8614435567
AG      6.1125867213     6.2925756379     6.2297239445
AG      7.3228666594     5.6505819721     8.4431628285
AG      8.5848065600     6.2922538448     6.2356842338
AG      9.8017511835     5.6558896344     8.8447042838
AG     11.0284864448     6.2876638096     6.2566112953
AG     12.2467187254     5.6575561420     8.8632729892
AG      4.8975154350     8.4104362698     6.2607602384
AG      6.1200729540     7.7830386710     8.8489836902
AG      7.3488304952     8.4094980768     6.2659079191
AG      8.5786893602     7.7769108144     8.8200834901
AG      9.8015037070     8.4098993513     6.2617257855
AG     11.0298377982     7.7794859429     8.8630344997
AG     12.2496132484     8.4086529113     6.2643482577
AG     13.4736772770     7.7814711883     8.8587369546
O       7.6497878656     6.5123689572    10.7662097088
C       7.4553470103     5.2533499245    11.0291023711
C       6.7769344302     4.9919133360    12.1662719359
O       6.8140137995     5.9963390992    13.0471365537
C       7.6302873784     3.1350822018    12.8707204697
O       7.9164541501     2.2949472177    11.8181400199
C       6.7490910065     2.6012266201    13.9721712672
O       7.4874456765     1.4650653448    14.3916046854
C       6.2387603033     3.5829123009    15.0908293501
O       5.2713416374     2.8379315837    15.8115425127
C       7.4199847529     4.4045063470    15.9383728273
O       6.9080228547     5.3857488152    16.7509288896
H       7.7306681578     4.5337986188    10.3585547812
H       5.7994975382     4.6230647438    11.9607966388
H       6.3321802764     6.7481168669    12.7477314885
H       8.5597749045     3.5940528808    13.1653509512
H       8.4220241184     1.5438300919    12.1392474902
H       5.8922746361     2.1232537498    13.4993751704
H       7.3454362452     1.0322229946    15.2334422286
H       5.5989148482     4.3452044142    14.6435215182
H       5.1325321556     2.9586137898    16.7544586849
H       7.9794827191     3.7027515111    16.5151037446
H       8.1476508302     4.8640739097    15.2938970479
H       7.5198156102     5.9709013282    17.2416035371
88
Step 5 | ATOMIC_POSITIONS (angstrom) | Cartesian Angstrom
NI      1.2251830774     1.5905698168     1.9586095374
NI      2.4501978922     0.9730718167     3.9228422756
NI      3.6746413958     1.5895069078     1.9577743875
NI      4.8984737791     0.9761057007     3.9227973595
NI      6.1244214267     1.5885935530     1.9595976184
NI      7.3493123175     0.9750725449     3.9229436846
NI      8.5734388811     1.5885975492     1.9592809610
NI      9.8006171899     0.9766418244     3.9215397492
NI      2.4495702061     3.7124707762     1.9574855406
NI      3.6724620444     3.0930739347     3.9199064234
NI      4.8993591400     3.7118200225     1.9603675211
NI      6.1257960804     3.0963228249     3.9231268221
NI      7.3499938838     3.7121405151     1.9565376215
NI      8.5741308849     3.0979659638     3.9221618692
NI      9.7988328403     3.7105392175     1.9596287196
NI     11.0263402023     3.0966940740     3.9225123714
NI      3.6737635400     5.8330373108     1.9596529893
NI      4.9003801213     5.2174991925     3.9220480902
NI      6.1260978715     5.8324727833     1.9559973984
NI      7.3507646011     5.2187976058     3.9152384271
NI      8.5725212709     5.8330686958     1.9551073691
NI      9.7972241196     5.2188139944     3.9209258895
NI     11.0243762961     5.8329115073     1.9595365522
NI     12.2497184844     5.2165342705     3.9217721645
NI      4.8997618959     7.9536681278     1.9589961751
NI      6.1277427178     7.3420201695     3.9142781600
NI      7.3497406712     7.9534691252     1.9561141091
NI      8.5724889961     7.3422779360     3.9150372490
NI      9.7988272315     7.9537681158     1.9581988977
NI     11.0229037404     7.3422372858     3.9216529080
NI     12.2484161642     7.9531740856     1.9581221061
NI     13.4741272254     7.3423138638     3.9219904638
AG      1.2253185128     2.0067793985     6.2492315977
AG      2.4516588818     1.4113812127     8.9807908133
AG      3.6738844921     2.0054898358     6.2529356965
AG      4.8964351367     1.4030658415     8.9953216315
AG      6.1224378835     2.0015452702     6.2482742968
AG      7.3489385108     1.4101914173     8.9997523682
AG      8.5763009039     2.0012811068     6.2386452867
AG      9.8053184651     1.4112272174     9.0059512400
AG      2.4501438216     4.1265466801     6.2535170772
AG      3.6739363958     3.5313740624     8.9828976092
AG      4.8958375221     4.1250045514     6.2398972351
AG      6.1221022924     3.5335510444     8.9372411774
AG      7.3483413104     4.1103713408     6.1812912078
AG      8.5798037003     3.5262884128     8.8219756440
AG      9.8045866420     4.1276927026     6.2306550671
AG     11.0265272414     3.5367430546     9.0056243911
AG      3.6699379186     6.2492839453     6.2485798625
AG      4.8998003697     5.6548887218     8.9980820967
AG      6.1024020276     6.2586361377     6.1678815826
AG      7.3274678503     5.6577151628     8.3530996361
AG      8.5928899772     6.2589674525     6.1806679388
AG      9.7814887014     5.6527052322     8.9655104384
AG     11.0306148572     6.2509255000     6.2438876210
AG     12.2435170284     5.6571182409     8.9837219509
AG      4.8961839884     8.3755478409     6.2502587506
AG      6.1287278305     7.7681306194     8.9746480180
AG      7.3483462239     8.3727747480     6.2562324919
AG      8.5666140675     7.7589607270     8.9299791245
AG      9.8032410667     8.3748003823     6.2493099805
AG     11.0254493762     7.7751544120     8.9875976063
AG     12.2500464211     8.3716835348     6.2566192545
AG     13.4757873716     7.7794778131     8.9779326554
O       7.7250408874     6.4883801702    10.8922077598
C       7.4290847152     5.2911021719    11.0968857711
C       6.7951389891     4.9052478738    12.3049503622
O       6.7747980056     5.9472352686    13.1723059146
C       7.5651420575     3.1736440823    12.8847125922
O       7.8759415855     2.3631031551    11.8133308694
C       6.7749548008     2.6588039744    14.0182339661
O       7.5089750189     1.5362906191    14.4101229256
C       6.3823221076     3.6152810250    15.1260875217
O       5.3594581795     2.8147574040    15.8226949484
C       7.3416650283     4.3222478813    15.8643930609
O       6.8209082265     5.3546414640    16.7972038768
H       7.7865461314     4.5313949047    10.4213014573
H       5.8082898625     4.5599358622    11.9707404801
H       6.3683876422     6.6802878363    12.7260687759
H       8.4785776932     3.6062629863    13.2003782516
H       8.3704904775     1.6273099725    12.1558219683
H       5.9206197173     2.1917011742    13.4859896954
H       7.2957296350     1.0933188446    15.2085264673
H       5.6913904968     4.3298133357    14.6099419496
H       5.1662415065     3.0007119843    16.7489014324
H       7.9317634053     3.6787220741    16.5535311784
H       8.0929078213     4.8227842779    15.1951061634
H       7.5232670759     5.9307764110    17.2009442573
88
Step 6 | ATOMIC_POSITIONS (angstrom) | Cartesian Angstrom
NI      1.2254455466     1.5985151779     1.8728187946
NI      2.4500420136     1.0044514861     3.8914959238
NI      3.6744914531     1.5970411587     1.8714649575
NI      4.8979360812     1.0084397332     3.8898101680
NI      6.1246491324     1.5966852988     1.8739026232
NI      7.3496577380     1.0071844812     3.8902737137
NI      8.5730683031     1.5968733376     1.8734869566
NI      9.8013879422     1.0088003395     3.8879549662
NI      2.4491576764     3.7206975195     1.8706321795
NI      3.6720601786     3.1247680168     3.8880252190
NI      4.8999409446     3.7199867254     1.8751885697
NI      6.1246660448     3.1268226976     3.8879515066
NI      7.3500073031     3.7199533579     1.8698842929
NI      8.5756313629     3.1289953408     3.8859537670
NI      9.7984696070     3.7182590247     1.8744531050
NI     11.0268202340     3.1291864810     3.8897391052
NI      3.6736101881     5.8414315031     1.8743437839
NI      4.8988319976     5.2488517268     3.8849317320
NI      6.1257888582     5.8401519720     1.8689977553
NI      7.3508181548     5.2540120057     3.8745055344
NI      8.5729530834     5.8410625916     1.8677070547
NI      9.7986804836     5.2515195171     3.8829782246
NI     11.0242573541     5.8409511970     1.8740949479
NI     12.2500739530     5.2480778365     3.8893668665
NI      4.8993395225     7.9615999289     1.8725117562
NI      6.1285347684     7.3797826331     3.8701889583
NI      7.3501636491     7.9618113997     1.8683589010
NI      8.5720360327     7.3790398656     3.8734149165
NI      9.7988033968     7.9614877092     1.8714987343
NI     11.0228799029     7.3745070776     3.8873380201
NI     12.2481136302     7.9608961822     1.8726715649
NI     13.4741922484     7.3747452687     3.8885002049
AG      1.2259330064     1.9670324221     6.2360416353
AG      2.4521271812     1.4041553820     9.1077096492
AG      3.6728916398     1.9654242440     6.2401378691
AG      4.8956611601     1.3979158788     9.1313562763
AG      6.1216470506     1.9600493531     6.2367851491
AG      7.3482739169     1.4122124096     9.1392765343
AG      8.5775411198     1.9602614698     6.2214724858
AG      9.8054084859     1.4112611690     9.1479097127
AG      2.4504778095     4.0863581279     6.2446765806
AG      3.6769341836     3.5313777384     9.1098368364
AG      4.8956811652     4.0840274240     6.2238466843
AG      6.1318702178     3.5490127685     9.0537954891
AG      7.3483150783     4.0661689731     6.1097807050
AG      8.5706652274     3.5348700866     8.8697394605
AG      9.8052813695     4.0872807132     6.2066421913
AG     11.0208837966     3.5368192037     9.1520532089
AG      3.6676953686     6.2095143393     6.2393970164
AG      4.9241911559     5.6522165443     9.1520235728
AG      6.0955611527     6.2189819345     6.0798800732
AG      7.3283188420     5.6621373907     8.2510705277
AG      8.5986427279     6.2202691865     6.1015124665
AG      9.7606860073     5.6479711811     9.0983042572
AG     11.0328967944     6.2113009448     6.2305979276
AG     12.2411494233     5.6558493953     9.1086749986
AG      4.8955343669     8.3376380395     6.2399768713
AG      6.1362417732     7.7500792373     9.1127674537
AG      7.3480724668     8.3315836934     6.2474371173
AG      8.5565339424     7.7437337597     9.0457825725
AG      9.8041717608     8.3368748832     6.2359951755
AG     11.0184074376     7.7693902823     9.1192117482
AG     12.2502791970     8.3315204191     6.2484851502
AG     13.4789670070     7.7757454707     9.1008309391
O       7.8021411382     6.5027591356    11.0285207965
C       7.4307120119     5.2906554452    11.1818592604
C       6.8198353036     4.7577528202    12.4273796679
O       6.7295867586     5.8928125396    13.3448883408
C       7.5041336156     3.3090637827    12.8849122013
O       7.8019682657     2.4412190529    11.7942292300
C       6.7895979211     2.6858064291    14.0411642240
O       7.5842788351     1.5939877250    14.4109722811
C       6.3897109441     3.6173745817    15.1070860709
O       5.4534619919     2.7720944169    15.8394863300
C       7.3713236364     4.3057184920    15.8794752857
O       6.7216010314     5.3153598508    16.8232207967
H       7.8369126285     4.5291011063    10.4963820679
H       5.7977143050     4.4879014968    11.9863385255
H       6.4060781387     6.6277738347    12.6972012778
H       8.4351393548     3.6342399975    13.2564384460
H       8.3320643138     1.6874745489    12.1795536757
H       5.9242808920     2.2731656702    13.4869378925
H       7.2235668485     1.1460284572    15.2149223276
H       5.7950973920     4.3246282556    14.5784776291
H       5.2097851576     3.0573794711    16.7460233110
H       7.8847121915     3.6481598703    16.5782249582
H       8.0277962593     4.7744224361    15.1015426858
H       7.5224044911     5.8738074125    17.1474839831
88
Step 7 | ATOMIC_POSITIONS (angstrom) | Cartesian Angstrom
NI      1.2256394488     1.6070917412     1.7951083839
NI      2.4499152149     1.0335728911     3.8619899393
NI      3.6743364172     1.6055683041     1.7935304404
NI      4.8976179682     1.0377017072     3.8580012877
NI      6.1247441572     1.6055735141     1.7958328747
NI      7.3499362137     1.0360874491     3.8592308542
NI      8.5729545923     1.6057632720     1.7951513491
NI      9.8019693057     1.0378995884     3.8558514624
NI      2.4489781236     3.7295546557     1.7919861020