80
Step 1 | ATOMIC_POSITIONS (angstrom) | Cartesian Angstrom
Ni      1.2286497520     0.7093615510    11.2500000000
Ni      2.4572990100     2.8374462050    11.2500000000
Ni      3.6859482670     4.9655308580    11.2500000000
Ni      4.9145975240     7.0936155120    11.2500000000
Ni      3.6859497520     0.7093615510    11.2500000000
Ni      4.9145990100     2.8374462050    11.2500000000
Ni      6.1432482670     4.9655308580    11.2500000000
Ni      7.3718975240     7.0936155120    11.2500000000
Ni      6.1432497520     0.7093615510    11.2500000000
Ni      7.3718990100     2.8374462050    11.2500000000
Ni      8.6005482670     4.9655308580    11.2500000000
Ni      9.8291975240     7.0936155120    11.2500000000
Ni      8.6005497520     0.7093615510    11.2500000000
Ni      9.8291990100     2.8374462050    11.2500000000
Ni     11.0578482670     4.9655308580    11.2500000000
Ni     12.2864975240     7.0936155120    11.2500000000
Ni      9.8231926171     0.0024995243    13.3023445018
Ni     11.0518089828     2.1302240239    13.3047084143
Ni     12.2800508463     4.2570722555    13.3044621731
Ni     13.5092872810     6.3850384707    13.3032135992
Ni      2.4517697468     0.0021660604    13.3026623602
Ni      3.6803279060     2.1303359400    13.3041136817
Ni      4.9088074779     4.2579363993    13.3054287219
Ni      6.1372745399     6.3857876859    13.3032783461
Ni      4.9086517489     0.0018312679    13.3024059973
Ni      6.1374036900     2.1309748259    13.3056096279
Ni      7.3661494965     4.2582451225    13.3069521294
Ni      8.5943412642     6.3854189356    13.3048452032
Ni      7.3652045598     0.0023769347    13.3020218594
Ni      8.5942385870     2.1304695640    13.3043867892
Ni      9.8231946460     4.2572739586    13.3057508082
Ni     11.0517679487     6.3857120742    13.3033345673
Ni      2.4490340007     1.4222228898    15.3362210296
Ni      3.6772966341     3.5494520402    15.3385526486
Ni      4.9062018309     5.6779299863    15.3378107865
Ni      6.1346571371     7.8070605965    15.3335997660
Ni      4.9058225440     1.4219700119    15.3362205140
Ni      6.1346426161     3.5508505239    15.3401416952
Ni      7.3625330181     5.6784279340    15.3395242275
Ni      8.5915701699     7.8062468637    15.3354849978
Ni      7.3627070876     1.4224398614    15.3370387851
Ni      8.5913286878     3.5492678034    15.3408173342
Ni      9.8201850892     5.6778143966    15.3377748313
Ni     11.0486432903     7.8070022870    15.3347461742
Ni      9.8200953687     1.4222882767    15.3366655971
Ni     11.0486075170     3.5492992344    15.3407266613
Ni     12.2774144290     5.6772885475    15.3359640395
Ni     13.5061541408     7.8063455598    15.3319300907
Ni      1.2190885434     0.7144103291    17.3884577490
Ni      2.4468093672     2.8416456690    17.3921357135
Ni      3.6741370274     4.9733650805    17.3898454600
Ni      4.9040790291     7.0987322653    17.3864759059
Ni      3.6743809140     0.7117898526    17.3888504032
Ni      4.8904793119     2.8448643595    17.3842397959
Ni      6.1283405344     4.9857165077    17.3845377367
Ni      7.3597662144     7.1019705992    17.3890494182
Ni      6.1330831184     0.6938878793    17.3762586517
Ni      7.3751134826     2.8395577349    17.3813637850
Ni      8.5956469667     4.9795324397    17.4339677685
Ni      9.8220760413     7.1040287912    17.3875840080
Ni      8.5924071697     0.7108802678    17.3868279433
Ni      9.8226630646     2.8378835565    17.3938706469
Ni     11.0518982344     4.9704851219    17.3918640595
Ni     12.2762496537     7.0997978243    17.3864916249
O       9.1088615617     3.7176478573    21.7821958991
O       8.5959700421     4.9930521913    19.4529782249
O       9.0221265590     5.3452618844    24.2240612738
C       8.7353129612     5.0952306810    21.8606136688
C       9.0403622752     5.8112334764    20.5256056672
C       9.4288814490     5.8643651853    22.9653602786
H       7.6436876723     5.0630889786    22.0915090983
H      10.1477655132     6.0002776641    20.4618305098
H       8.5401997320     6.7944525149    20.4735071002
H       9.1698004080     6.9378365841    22.8600872123
H      10.5264680849     5.7775100288    22.8179385767
H      10.0820676250     3.6624612171    21.7916061763
H       6.1843753977     3.4617732882    19.6853242958
H       9.4735460532     5.8370260145    24.9243223657
O       6.1679112339     2.7704399353    19.0270977020
H       6.1618264356     1.9057887465    19.4695742632
80
Step 2 | ATOMIC_POSITIONS (angstrom) | Cartesian Angstrom
Ni      1.2286497520     0.7093615510    11.2500000000
Ni      2.4572990100     2.8374462050    11.2500000000
Ni      3.6859482670     4.9655308580    11.2500000000
Ni      4.9145975240     7.0936155120    11.2500000000
Ni      3.6859497520     0.7093615510    11.2500000000
Ni      4.9145990100     2.8374462050    11.2500000000
Ni      6.1432482670     4.9655308580    11.2500000000
Ni      7.3718975240     7.0936155120    11.2500000000
Ni      6.1432497520     0.7093615510    11.2500000000
Ni      7.3718990100     2.8374462050    11.2500000000
Ni      8.6005482670     4.9655308580    11.2500000000
Ni      9.8291975240     7.0936155120    11.2500000000
Ni      8.6005497520     0.7093615510    11.2500000000
Ni      9.8291990100     2.8374462050    11.2500000000
Ni     11.0578482670     4.9655308580    11.2500000000
Ni     12.2864975240     7.0936155120    11.2500000000
Ni      9.8231926171     0.0024995243    13.3023445018
Ni     11.0518089828     2.1302240239    13.3047084143
Ni     12.2800508463     4.2570722555    13.3044621731
Ni     13.5092872810     6.3850384707    13.3032135992
Ni      2.4517697468     0.0021660604    13.3026623602
Ni      3.6803279060     2.1303359400    13.3041136817
Ni      4.9088074779     4.2579363993    13.3054287219
Ni      6.1372745399     6.3857876859    13.3032783461
Ni      4.9086517489     0.0018312679    13.3024059973
Ni      6.1374036900     2.1309748259    13.3056096279
Ni      7.3661494965     4.2582451225    13.3069521294
Ni      8.5943412642     6.3854189356    13.3048452032
Ni      7.3652045598     0.0023769347    13.3020218594
Ni      8.5942385870     2.1304695640    13.3043867892
Ni      9.8231946460     4.2572739586    13.3057508082
Ni     11.0517679487     6.3857120742    13.3033345673
Ni      2.4490340007     1.4222228898    15.3362210296
Ni      3.6772966341     3.5494520402    15.3385526486
Ni      4.9062018309     5.6779299863    15.3378107865
Ni      6.1346571371     7.8070605965    15.3335997660
Ni      4.9058225440     1.4219700119    15.3362205140
Ni      6.1346426161     3.5508505239    15.3401416952
Ni      7.3625330181     5.6784279340    15.3395242275
Ni      8.5915701699     7.8062468637    15.3354849978
Ni      7.3627070876     1.4224398614    15.3370387851
Ni      8.5913286878     3.5492678034    15.3408173342
Ni      9.8201850892     5.6778143966    15.3377748313
Ni     11.0486432903     7.8070022870    15.3347461742
Ni      9.8200953687     1.4222882767    15.3366655971
Ni     11.0486075170     3.5492992344    15.3407266613
Ni     12.2774144290     5.6772885475    15.3359640395
Ni     13.5061541408     7.8063455598    15.3319300907
Ni      1.2194571706     0.7142447259    17.3889888806
Ni      2.4459134841     2.8411226474    17.3905412219
Ni      3.6723558628     4.9757396251    17.3881878502
Ni      4.9032317771     7.0987861260    17.3872425500
Ni      3.6729974850     0.7103435270    17.3877532929
Ni      4.8789591548     2.8472817795    17.3761670654
Ni      6.1243366795     4.9993125711    17.3707118120
Ni      7.3579949327     7.1051784992    17.3879439170
Ni      6.1328948636     0.6755355278    17.3602397531
Ni      7.3853359463     2.8377211093    17.3677894216
Ni      8.6008890216     4.9889666010    17.4817317323
Ni      9.8245590847     7.1082917161    17.3857798480
Ni      8.5939779425     0.7080306593    17.3854280908
Ni      9.8264793377     2.8345869274    17.3914264943
Ni     11.0557435780     4.9706144517    17.3905091355
Ni     12.2765106860     7.1001622944    17.3880519556
O       9.1098566081     3.7189547670    21.7914798529
O       8.5912244104     4.9898734228    19.4241443910
O       9.0204938029     5.3436542918    24.2277733652
C       8.7380720333     5.0929130641    21.8551334823
C       9.0312458869     5.8004481815    20.4943748440
C       9.4305507394     5.8645851915    22.9690132137
H       7.6506419446     5.0670344178    22.0838067689
H      10.1415954092     5.9983197771    20.4624462764
H       8.5410242238     6.7992294046    20.4793298382
H       9.1699250232     6.9369388898    22.8609185783
H      10.5257321931     5.7768787813    22.8193171709
H      10.0800940529     3.6626942209    21.7895696623
H       6.1911710786     3.4867199228    19.7024514721
H       9.4747559884     5.8384218388    24.9266715637
O       6.1644912996     2.7649076884    19.0533385491
H       6.1632891125     1.8904272040    19.4763173213
