80
Step 1 | ATOMIC_POSITIONS (angstrom) | Cartesian Angstrom
Ni      1.2286497520     0.7093615510    11.2500000000
Ni      2.4572990100     2.8374462050    11.2500000000
Ni      3.6859482670     4.9655308580    11.2500000000
Ni      4.9145975240     7.0936155120    11.2500000000
Ni      3.6859497520     0.7093615510    11.2500000000
Ni      4.9145990100     2.8374462050    11.2500000000
Ni      6.1432482670     4.9655308580    11.2500000000
Ni      7.3718975240     7.0936155120    11.2500000000
Ni      6.1432497520     0.7093615510    11.2500000000
Ni      7.3718990100     2.8374462050    11.2500000000
Ni      8.6005482670     4.9655308580    11.2500000000
Ni      9.8291975240     7.0936155120    11.2500000000
Ni      8.6005497520     0.7093615510    11.2500000000
Ni      9.8291990100     2.8374462050    11.2500000000
Ni     11.0578482670     4.9655308580    11.2500000000
Ni     12.2864975240     7.0936155120    11.2500000000
Ni      9.8217099723     0.0041106833    13.3020639690
Ni     11.0502853796     2.1317219556    13.2998253936
Ni     12.2808052920     4.2560136795    13.3058604015
Ni     13.5052251008     6.3868835928    13.2986319111
Ni      2.4509883769     0.0032214552    13.2998548039
Ni      3.6782360494     2.1352575317    13.3095155137
Ni      4.9047485167     4.2566242406    13.3075129560
Ni      6.1374860433     6.3854294232    13.3001822699
Ni      4.9080080949     0.0054422288    13.2982088405
Ni      6.1351879143     2.1329183421    13.3007757530
Ni      7.3662810315     4.2579898979    13.3115699265
Ni      8.5945731301     6.3837417505    13.3040995133
Ni      7.3646902595     0.0042946183    13.2964010289
Ni      8.5935564523     2.1379816909    13.3051175307
Ni      9.8181825798     4.2565805384    13.3115510129
Ni     11.0465944010     6.3833637383    13.3030512343
Ni      2.4465957425     1.4217486300    15.3334632027
Ni      3.6895877626     3.5401011548    15.3783722743
Ni      4.9016544847     5.6795090844    15.3233446755
Ni      6.1313662001     7.8075136443    15.3306156069
Ni      4.9041226636     1.4292135418    15.3369714369
Ni      6.1334106108     3.5493005750    15.3359847975
Ni      7.3722346360     5.6730701157    15.3430638435
Ni      8.5936873321     7.8054572514    15.3193937461
Ni      7.3646162783     1.4275965329    15.3252836538
Ni      8.5782123359     3.5498465015    15.3883274034
Ni      9.8075844820     5.6648775404    15.3568304230
Ni     11.0486020684     7.8000939233    15.3167864121
Ni      9.8184737287     1.4241109073    15.3297220160
Ni     11.0491179044     3.5482212940    15.3300472054
Ni     12.2748315556     5.6728900954    15.3275143090
Ni     13.5019904515     7.8057784673    15.3260298315
Ni      1.2180899697     0.7196081790    17.3949140259
Ni      2.4438279514     2.8381339169    17.3925444632
Ni      3.6659663161     4.9882932703    17.3831178130
Ni      4.8965276362     7.1131753300    17.3824741820
Ni      3.6696454751     0.7080733059    17.3740305682
Ni      4.8815336753     2.8529535489    17.4632638965
Ni      6.1114703532     5.0293879863    17.3321428597
Ni      7.3565899761     7.1298998540    17.3594467340
Ni      6.1341531258     0.6505662609    17.3232454354
Ni      7.3721293541     2.8206187748    17.4055823500
Ni      8.5993046382     4.9980189801    17.5339201686
Ni      9.8262096682     7.1069671488    17.3623185778
Ni      8.6001211059     0.6999029061    17.3712284063
Ni      9.8369891821     2.8275755421    17.3723670132
Ni     11.0640527427     4.9657523570    17.3790147625
Ni     12.2770114752     7.0891455123    17.3823714005
O       9.1088107839     3.7176944191    21.7821469554
O       8.5958910850     4.9929201821    19.4565444435
O       9.0221197348     5.3452748530    24.2239263836
C       8.7353158915     5.0951554719    21.8603273775
C       9.0407075019     5.8116540388    20.5264367844
C       9.4288591267     5.8644324600    22.9653763627
H       7.6436738875     5.0630915975    22.0915705679
H      10.1475447779     6.0001161724    20.4615136303
H       8.5401589228     6.7942215478    20.4731514927
H       9.1698089383     6.9378543053    22.8601016697
H      10.5264616691     5.7775080014    22.8179327872
H      10.0820621960     3.6624022684    21.7915663818
H       6.1846719970     3.4621339555    19.6848540010
H       9.4735436413     5.8370176705    24.9243126010
O       6.1692638533     2.7682659083    19.0336273933
H       6.1618407928     1.9060246060    19.4691137020
80
Step 2 | ATOMIC_POSITIONS (angstrom) | Cartesian Angstrom
Ni      1.2286497520     0.7093615510    11.2500000000
Ni      2.4572990100     2.8374462050    11.2500000000
Ni      3.6859482670     4.9655308580    11.2500000000
Ni      4.9145975240     7.0936155120    11.2500000000
Ni      3.6859497520     0.7093615510    11.2500000000
Ni      4.9145990100     2.8374462050    11.2500000000
Ni      6.1432482670     4.9655308580    11.2500000000
Ni      7.3718975240     7.0936155120    11.2500000000
Ni      6.1432497520     0.7093615510    11.2500000000
Ni      7.3718990100     2.8374462050    11.2500000000
Ni      8.6005482670     4.9655308580    11.2500000000
Ni      9.8291975240     7.0936155120    11.2500000000
Ni      8.6005497520     0.7093615510    11.2500000000
Ni      9.8291990100     2.8374462050    11.2500000000
Ni     11.0578482670     4.9655308580    11.2500000000
Ni     12.2864975240     7.0936155120    11.2500000000
Ni      9.8217834106     0.0038258770    13.3022179029
Ni     11.0504257210     2.1317286431    13.2999267651
Ni     12.2818783677     4.2556085307    13.3072884979
Ni     13.5057011775     6.3862364986    13.2991616364
Ni      2.4507269062     0.0031793489    13.3000712542
Ni      3.6780445233     2.1347446145    13.3094348047
Ni      4.9051149954     4.2566226492    13.3075217376
Ni      6.1379530000     6.3852841587    13.3005194816
Ni      4.9080142365     0.0056052235    13.2980232199
Ni      6.1355786306     2.1324121989    13.3008199146
Ni      7.3666529165     4.2578582909    13.3116684862
Ni      8.5947567396     6.3831076787    13.3042302045
Ni      7.3645524242     0.0041356525    13.2971601283
Ni      8.5939821616     2.1374263743    13.3044623938
Ni      9.8173842901     4.2567758473    13.3133709871
Ni     11.0464676203     6.3826113676    13.3026705541
Ni      2.4466183316     1.4216370058    15.3334707357
Ni      3.6893019931     3.5408089837    15.3771638305
Ni      4.9010892264     5.6798083459    15.3222828750
Ni      6.1322525241     7.8069464047    15.3315913802
Ni      4.9049311955     1.4282201825    15.3367919309
Ni      6.1342192848     3.5501445604    15.3357466693
Ni      7.3743302604     5.6718118576    15.3434732695
Ni      8.5932434238     7.8055017740    15.3189578480
Ni      7.3642220303     1.4268671980    15.3261143180
Ni      8.5787158250     3.5527351113    15.3894043522
Ni      9.8085478823     5.6652319880    15.3531261798
Ni     11.0480617590     7.7972853996    15.3136622065
Ni      9.8186693480     1.4245385271    15.3307279882
Ni     11.0486053998     3.5480902446    15.3298153315
Ni     12.2742740170     5.6730036879    15.3287930808
Ni     13.5021455255     7.8056131710    15.3253320473
Ni      1.2190459521     0.7186929968    17.3923808940
Ni      2.4445282716     2.8379482641    17.3917707828
Ni      3.6671348039     4.9885213873    17.3830424551
Ni      4.8960963878     7.1118369076    17.3832179886
Ni      3.6713940987     0.7099417104    17.3753027665
Ni      4.8604879336     2.8554356079    17.4214616811
Ni      6.1124044754     5.0338208583    17.3245624385
Ni      7.3555438931     7.1274794280    17.3638740011
Ni      6.1341866174     0.6426081148    17.3117134763
Ni      7.3917670586     2.8256533292    17.3694847919
Ni      8.6047681663     5.0092483139    17.5965128198
Ni      9.8265780829     7.1088642639    17.3643921810
Ni      8.5979340680     0.6991534268    17.3714564855
Ni      9.8370253616     2.8268175386    17.3762424715
Ni     11.0641254238     4.9662540309    17.3797193151
Ni     12.2778625346     7.0911476694    17.3835764896
O       9.1109526758     3.7198851534    21.7991939102
O       8.5865101714     4.9860620782    19.4147204038
O       9.0189314715     5.3421698674    24.2306522857
C       8.7390862362     5.0913337384    21.8502576950
C       9.0256015174     5.7931939973    20.4725070649
C       9.4322634994     5.8650884051    22.9716423325
H       7.6572582756     5.0704583850    22.0771695825
H      10.1353119906     5.9961398485    20.4618199270
H       8.5415153297     6.8026827193    20.4831756323
H       9.1700418792     6.9361318727    22.8616839019
H      10.5250032754     5.7763707381    22.8205832321
H      10.0783388303     3.6626190219    21.7876670218
H       6.1979567006     3.5130557349    19.7211273496
H       9.4758282437     5.8396352493    24.9287314147
O       6.1647525988     2.7565515069    19.0807641362
H       6.1645900606     1.8712635550    19.4860074932
80
Step 3 | ATOMIC_POSITIONS (angstrom) | Cartesian Angstrom
Ni      1.2286497520     0.7093615510    11.2500000000
Ni      2.4572990100     2.8374462050    11.2500000000
Ni      3.6859482670     4.9655308580    11.2500000000
Ni      4.9145975240     7.0936155120    11.2500000000
Ni      3.6859497520     0.7093615510    11.2500000000
Ni      4.9145990100     2.8374462050    11.2500000000
Ni      6.1432482670     4.9655308580    11.2500000000
Ni      7.3718975240     7.0936155120    11.2500000000
Ni      6.1432497520     0.7093615510    11.2500000000
Ni      7.3718990100     2.8374462050    11.2500000000
Ni      8.6005482670     4.9655308580    11.2500000000
Ni      9.8291975240     7.0936155120    11.2500000000
Ni      8.6005497520     0.7093615510    11.2500000000
Ni      9.8291990100     2.8374462050    11.2500000000
Ni     11.0578482670     4.9655308580    11.2500000000
Ni     12.2864975240     7.0936155120    11.2500000000
Ni      9.8218327543     0.0036594402    13.3022893113
Ni     11.0504258590     2.1316662832    13.2999993177
Ni     12.2821953821     4.2555105022    13.3078438320
Ni     13.5058359679     6.3860767223    13.2992453657
Ni      2.4506103820     0.0030872265    13.3001387847
Ni      3.6780546270     2.1345041135    13.3093646778
Ni      4.9053123908     4.2565672633    13.3073244709
Ni      6.1381771770     6.3852348572    13.3006644081
Ni      4.9079392367     0.0055636377    13.2978458361
Ni      6.1357430695     2.1322218009    13.3007878211
Ni      7.3668428142     4.2577922028    13.3116932292
Ni      8.5947022768     6.3830398065    13.3042766467
Ni      7.3646259227     0.0039795840    13.2972735730
Ni      8.5941734633     2.1371792388    13.3043285699
Ni      9.8171886798     4.2566578981    13.3140028936
Ni     11.0466697819     6.3822434848    13.3022242728
Ni      2.4466414491     1.4214684098    15.3334197782
Ni      3.6881564815     3.5417493913    15.3742453631
Ni      4.9008804216     5.6802125373    15.3215314736
Ni      6.1325552522     7.8065857433    15.3318537962
Ni      4.9051770571     1.4273086711    15.3351832559
Ni      6.1345004177     3.5507460737    15.3340509741
Ni      7.3757798482     5.6716164141    15.3443746101
Ni      8.5929818398     7.8053414978    15.3192191940
Ni      7.3642614410     1.4259622479    15.3247569192
Ni      8.5803251167     3.5550350103    15.3885730918
Ni      9.8083363606     5.6651997178    15.3534922990
Ni     11.0479377872     7.7958194083    15.3117412314
Ni      9.8186359020     1.4245976246    15.3310743774
Ni     11.0482960541     3.5480759275    15.3300267240
Ni     12.2741484921     5.6731034074    15.3292645260
Ni     13.5023169833     7.8055624602    15.3252222444
Ni      1.2194093352     0.7182407969    17.3912566048
Ni      2.4430406364     2.8380688725    17.3914227500
Ni      3.6671262975     4.9891385596    17.3827913070
Ni      4.8957074688     7.1116341096    17.3835502991
Ni      3.6715557431     0.7098751168    17.3757016405
Ni      4.8612441834     2.8556721496    17.4113623244
Ni      6.1130205463     5.0337034533    17.3222117378
Ni      7.3555436155     7.1272619939    17.3652254801
Ni      6.1343942537     0.6425979903    17.3081636932
Ni      7.3911437933     2.8272413827    17.3636559184
Ni      8.6072345579     5.0138194970    17.6061094279
Ni      9.8266700119     7.1094809025    17.3645529280
Ni      8.5976046391     0.6985227974    17.3715199965
Ni      9.8383429784     2.8267705533    17.3775040453
Ni     11.0642620192     4.9666238732    17.3793767683
Ni     12.2782490610     7.0912822343    17.3840486889
O       9.1085786408     3.7169547200    21.8059481012
O       8.5805245680     4.9818557449    19.4129824327
O       9.0190404841     5.3425090068    24.2325090818
C       8.7371939420     5.0935210547    21.8403140526
C       9.0280950977     5.7978100449    20.4765781806
C       9.4311658708     5.8657849275    22.9646853685
H       7.6607786104     5.0730488196    22.0712525886
H      10.1253606470     5.9914995893    20.4545896267
H       8.5427309002     6.7974405107    20.4817433340
H       9.1703134660     6.9352702413    22.8633936104
H      10.5262589418     5.7758489498    22.8231808604
H      10.0818260415     3.6619369646    21.7855606243
H       6.2038756915     3.5098724737    19.7254002442
H       9.4756080167     5.8394795612    24.9296063444
O       6.1628938444     2.7710286556    19.0987937018
H       6.1662225324     1.8626796639    19.4993112658
80
Step 4 | ATOMIC_POSITIONS (angstrom) | Cartesian Angstrom
Ni      1.2286497520     0.7093615510    11.2500000000
Ni      2.4572990100     2.8374462050    11.2500000000
Ni      3.6859482670     4.9655308580    11.2500000000
Ni      4.9145975240     7.0936155120    11.2500000000
Ni      3.6859497520     0.7093615510    11.2500000000
Ni      4.9145990100     2.8374462050    11.2500000000
Ni      6.1432482670     4.9655308580    11.2500000000
Ni      7.3718975240     7.0936155120    11.2500000000
Ni      6.1432497520     0.7093615510    11.2500000000
Ni      7.3718990100     2.8374462050    11.2500000000
Ni      8.6005482670     4.9655308580    11.2500000000
Ni      9.8291975240     7.0936155120    11.2500000000
Ni      8.6005497520     0.7093615510    11.2500000000
Ni      9.8291990100     2.8374462050    11.2500000000
Ni     11.0578482670     4.9655308580    11.2500000000
Ni     12.2864975240     7.0936155120    11.2500000000
Ni      9.8219455213     0.0034161836    13.3023819296
Ni     11.0503969673     2.1315396737    13.3001105330
Ni     12.2824705306     4.2554122291    13.3084811647
Ni     13.5059956831     6.3859051716    13.2992442142
Ni      2.4504331129     0.0029257261    13.3002052256
Ni      3.6780590486     2.1341160058    13.3090970588
Ni      4.9056353963     4.2564911069    13.3067469848
Ni      6.1385593394     6.3851533038    13.3008566029
Ni      4.9077646520     0.0053692936    13.2974319040
Ni      6.1360055479     2.1319615274    13.3005252596
Ni      7.3671764965     4.2577266793    13.3115945000
Ni      8.5946047191     6.3830167204    13.3043634742
Ni      7.3648272080     0.0036672128    13.2971752003
Ni      8.5945041931     2.1368511990    13.3041494704
Ni      9.8170604105     4.2564324697    13.3147386825
Ni     11.0470404221     6.3815877250    13.3013879853
Ni      2.4466997894     1.4212106545    15.3333392420
Ni      3.6860299107     3.5433174448    15.3689516152
Ni      4.9006792669     5.6808991169    15.3203786289
Ni      6.1329672352     7.8060032245    15.3321875797
Ni      4.9053778734     1.4258462373    15.3321300357
Ni      6.1349566222     3.5516993726    15.3306658159
Ni      7.3779860580     5.6716069857    15.3459543211
Ni      8.5925817213     7.8050590573    15.3197968894
Ni      7.3645569287     1.4246489949    15.3221243832
Ni      8.5831870656     3.5584256819    15.3868647134
Ni      9.8079268230     5.6651816759    15.3548402747
Ni     11.0478010015     7.7935930778    15.3087910378
Ni      9.8185123397     1.4247038498    15.3315803984
Ni     11.0478378669     3.5480498315    15.3304628731
Ni     12.2739800322     5.6732715131    15.3298849294
Ni     13.5026166650     7.8054858332    15.3251800471
Ni      1.2198738764     0.7175440757    17.3896311774
Ni      2.4406055357     2.8383564265    17.3908258923
Ni      3.6669566806     4.9900012674    17.3821871675
Ni      4.8951666307     7.1114741271    17.3840263374
Ni      3.6716650416     0.7096205850    17.3762127376
Ni      4.8663922344     2.8556812202    17.4004685679
Ni      6.1140990175     5.0326328053    17.3193209146
Ni      7.3557375767     7.1273145135    17.3670168719
Ni      6.1348164554     0.6443933972    17.3040520045
Ni      7.3866400265     2.8293801514    17.3597484945
Ni      8.6108653521     5.0201374328    17.6114248972
Ni      9.8269376795     7.1104503615    17.3644475713
Ni      8.5972734086     0.6978042635    17.3716365015
Ni      9.8403328712     2.8269562948    17.3792012604
Ni     11.0644783343     4.9672963262    17.3786919586
Ni     12.2786782542     7.0912386783    17.3847115876
O       9.1090992418     3.7135129678    21.8140960977
O       8.5720993344     4.9780899725    19.4221301614
O       9.0192152983     5.3435451174    24.2296715151
C       8.7385581869     5.0959959801    21.8299644982
C       9.0274312627     5.7996105197    20.4853317653
C       9.4288579110     5.8648463954    22.9563734291
H       7.6616745214     5.0768768349    22.0621737662
H      10.1159045948     5.9849046017    20.4409396784
H       8.5431845621     6.7902826053    20.4776530744
H       9.1705096415     6.9354810022    22.8657922050
H      10.5277907613     5.7750652151    22.8267340640
H      10.0828412916     3.6609041002    21.7822308606
H       6.2139808714     3.5101110711    19.7410176635
H       9.4755706375     5.8396764994    24.9305843075
O       6.1590714279     2.7672775253    19.1184688503
H       6.1689950455     1.8702431628    19.5140250037
80
Step 5 | ATOMIC_POSITIONS (angstrom) | Cartesian Angstrom
Ni      1.2286497520     0.7093615510    11.2500000000
Ni      2.4572990100     2.8374462050    11.2500000000
Ni      3.6859482670     4.9655308580    11.2500000000
Ni      4.9145975240     7.0936155120    11.2500000000
Ni      3.6859497520     0.7093615510    11.2500000000
Ni      4.9145990100     2.8374462050    11.2500000000
Ni      6.1432482670     4.9655308580    11.2500000000
Ni      7.3718975240     7.0936155120    11.2500000000
Ni      6.1432497520     0.7093615510    11.2500000000
Ni      7.3718990100     2.8374462050    11.2500000000
Ni      8.6005482670     4.9655308580    11.2500000000
Ni      9.8291975240     7.0936155120    11.2500000000
Ni      8.6005497520     0.7093615510    11.2500000000
Ni      9.8291990100     2.8374462050    11.2500000000
Ni     11.0578482670     4.9655308580    11.2500000000
Ni     12.2864975240     7.0936155120    11.2500000000
Ni      9.8222260189     0.0028880307    13.3026280317
Ni     11.0503079028     2.1312247683    13.3004141989
Ni     12.2827475607     4.2552880417    13.3094739814
Ni     13.5063263896     6.3855950508    13.2991645515
Ni      2.4500534580     0.0025335057    13.3003537066
Ni      3.6780032475     2.1331873035    13.3081568549
Ni      4.9064151721     4.2564387967    13.3049935228
Ni      6.1394969061     6.3848932385    13.3013308058
Ni      4.9073465710     0.0046769630    13.2962642294
Ni      6.1366595350     2.1313899173    13.2995126101
Ni      7.3680089438     4.2577014254    13.3111314733
Ni      8.5945194239     6.3829368423    13.3047028805
Ni      7.3653577830     0.0028459427    13.2965720438
Ni      8.5952786642     2.1362270302    13.3037444270
Ni      9.8170005145     4.2560844072    13.3160756570
Ni     11.0477340241     6.3799900533    13.2995342034
Ni      2.4468870249     1.4207385714    15.3331297433
Ni      3.6816997040     3.5464361318    15.3577261318
Ni      4.9004712551     5.6823287083    15.3180069629
Ni      6.1338064369     7.8047072534    15.3329184766
Ni      4.9055618347     1.4229030369    15.3252087726
Ni      6.1361714837     3.5537104418    15.3227022625
Ni      7.3823713733     5.6718998928    15.3491384229
Ni      8.5918038316     7.8044992204    15.3210108116
Ni      7.3655577096     1.4224647710    15.3165059693
Ni      8.5888370642     3.5645702191    15.3836196333
Ni      9.8074743414     5.6654559598    15.3576765530
Ni     11.0475774721     7.7890479093    15.3028652022
Ni      9.8181640544     1.4250434123    15.3326708818
Ni     11.0469298987     3.5479951100    15.3313218831
Ni     12.2735580302     5.6737350530    15.3309957880
Ni     13.5032316016     7.8052824211    15.3251654444
Ni      1.2207141447     0.7159824116    17.3862107629
Ni      2.4368196030     2.8390616630    17.3892227344
Ni      3.6669191499     4.9911378581    17.3804465490
Ni      4.8942691053     7.1110386478    17.3849506100
Ni      3.6721282527     0.7096123618    17.3770340846
Ni      4.8775447996     2.8554226313    17.3786483691
Ni      6.1165653593     5.0301468291    17.3134892252
Ni      7.3561146633     7.1275815722    17.3709232993
Ni      6.1358695985     0.6486995767    17.2951120681
Ni      7.3770463039     2.8338036303    17.3530618568
Ni      8.6181545761     5.0325630508    17.6249315248
Ni      9.8280503828     7.1131249445    17.3640477491
Ni      8.5964012105     0.6970277773    17.3716906193
Ni      9.8432926766     2.8277097887    17.3827909221
Ni     11.0650036601     4.9689941435    17.3773815905
Ni     12.2792606513     7.0913750300    17.3859717344
O       9.1117638347     3.7110957657    21.8288409004
O       8.5520621838     4.9701852279    19.4405551391
O       9.0191378581     5.3460658415    24.2216205631
C       8.7409169614     5.0954599887    21.8226802001
C       9.0209303204     5.7910806063    20.4897184868
C       9.4286277535     5.8644704418    22.9473293969
H       7.6633202444     5.0852598876    22.0406379755
H      10.1047044963     5.9724987315    20.4112053615
H       8.5406632862     6.7823202929    20.4703652083
H       9.1708254976     6.9365396027    22.8694946727
H      10.5282672676     5.7735315516    22.8327718449
H      10.0827594412     3.6582758669    21.7746041543
H       6.2380744082     3.5111641810    19.7788440045
H       9.4743938483     5.8391290485    24.9284345200
O       6.1496113135     2.7686015935    19.1525288704
H       6.1757587036     1.8777606445    19.5540794960
80
Step 6 | ATOMIC_POSITIONS (angstrom) | Cartesian Angstrom
Ni      1.2286497520     0.7093615510    11.2500000000
Ni      2.4572990100     2.8374462050    11.2500000000
Ni      3.6859482670     4.9655308580    11.2500000000
Ni      4.9145975240     7.0936155120    11.2500000000
Ni      3.6859497520     0.7093615510    11.2500000000
Ni      4.9145990100     2.8374462050    11.2500000000
Ni      6.1432482670     4.9655308580    11.2500000000
Ni      7.3718975240     7.0936155120    11.2500000000
Ni      6.1432497520     0.7093615510    11.2500000000
Ni      7.3718990100     2.8374462050    11.2500000000
Ni      8.6005482670     4.9655308580    11.2500000000
Ni      9.8291975240     7.0936155120    11.2500000000
Ni      8.6005497520     0.7093615510    11.2500000000
Ni      9.8291990100     2.8374462050    11.2500000000
Ni     11.0578482670     4.9655308580    11.2500000000
Ni     12.2864975240     7.0936155120    11.2500000000
Ni      9.8228207719     0.0020585519    13.3030852850
Ni     11.0502578807     2.1306700694    13.3009769725
Ni     12.2825422831     4.2552383135    13.3099959168
Ni     13.5067933333     6.3851688129    13.2988473571
Ni      2.4495510914     0.0018754530    13.3005995712
Ni      3.6777126324     2.1316662672    13.3058699164
Ni      4.9075626661     4.2565966068    13.3012482571
Ni      6.1410975192     6.3844092182    13.3020896013
Ni      4.9065916232     0.0030548610    13.2939535529
Ni      6.1376690581     2.1304696713    13.2969021460
Ni      7.3695451254     4.2579953697    13.3098681899
Ni      8.5946667171     6.3828475409    13.3055259992
Ni      7.3662751985     0.0012639786    13.2948722599
Ni      8.5966381853     2.1355040591    13.3030107597
Ni      9.8174409414     4.2558589383    13.3175130761
Ni     11.0485699247     6.3772996682    13.2966442235
Ni      2.4473165786     1.4202130866    15.3326677695
Ni      3.6759936891     3.5504209640    15.3415139751
Ni      4.9006021654     5.6842039457    15.3147323949
Ni      6.1349931910     7.8027819598    15.3339365833
Ni      4.9053061824     1.4190392836    15.3142782055
Ni      6.1383202215     3.5565972905    15.3097003048
Ni      7.3881206572     5.6730071738    15.3535110859
Ni      8.5908574012     7.8038487726    15.3227916034
Ni      7.3675808444     1.4205104475    15.3084287222
Ni      8.5960402697     3.5713657720    15.3798492022
Ni      9.8075688449     5.6664509286    15.3620782226
Ni     11.0473888547     7.7831007229    15.2949562359
Ni      9.8176912442     1.4256890033    15.3342188746
Ni     11.0458596691     3.5479713424    15.3324936431
Ni     12.2729206950     5.6745361323    15.3320365828
Ni     13.5040731847     7.8048850197    15.3253246683
Ni      1.2216607669     0.7137937542    17.3814208871
Ni      2.4341279843     2.8402776675    17.3861004057
Ni      3.6675827544     4.9913308632    17.3768868039
Ni      4.8935046490     7.1101687970    17.3860619862
Ni      3.6733308249     0.7107297769    17.3775277817
Ni      4.8938955590     2.8545771849    17.3502863981
Ni      6.1204857803     5.0260810739    17.3058295148
Ni      7.3567615884     7.1283608935    17.3766076964
Ni      6.1376748591     0.6563458066    17.2824444798
Ni      7.3631339551     2.8400137902    17.3471738274
Ni      8.6273647650     5.0477394525    17.6467660138
Ni      9.8306639729     7.1183083306    17.3630511689
Ni      8.5948128588     0.6974727555    17.3714126749
Ni      9.8451651824     2.8296602134    17.3878621527
Ni     11.0659398443     4.9718841098    17.3757205228
Ni     12.2795018416     7.0920193237    17.3874204885
O       9.1131832467     3.7097438915    21.8484079404
O       8.5144201161     4.9517542197    19.4594086990
O       9.0174650717     5.3487779289    24.2113739204
C       8.7461386126     5.0918033180    21.8257421938
C       9.0135327348     5.7786927565    20.4862218634
C       9.4299936681     5.8683683149    22.9422692388
H       7.6627461684     5.0967420318    22.0084620354
H      10.0933624167     5.9537403621    20.3653655432
H       8.5350388593     6.7722803928    20.4614187597
H       9.1718176908     6.9382857753    22.8722906709
H      10.5289046347     5.7714036320    22.8388567476
H      10.0841094026     3.6538161245    21.7620335161
H       6.2785210621     3.5095298007    19.8382851104
H       9.4710923329     5.8369174226    24.9197751705
O       6.1336298098     2.7720851178    19.2034256402
H       6.1875328748     1.8927953060    19.6190475334
80
Step 7 | ATOMIC_POSITIONS (angstrom) | Cartesian Angstrom
Ni      1.2286497520     0.7093615510    11.2500000000
Ni      2.4572990100     2.8374462050    11.2500000000
Ni      3.6859482670     4.9655308580    11.2500000000
Ni      4.9145975240     7.0936155120    11.2500000000
Ni      3.6859497520     0.7093615510    11.2500000000
Ni      4.9145990100     2.8374462050    11.2500000000
Ni      6.1432482670     4.9655308580    11.2500000000
Ni      7.3718975240     7.0936155120    11.2500000000
Ni      6.1432497520     0.7093615510    11.2500000000
Ni      7.3718990100     2.8374462050    11.2500000000
Ni      8.6005482670     4.9655308580    11.2500000000
Ni      9.8291975240     7.0936155120    11.2500000000
Ni      8.6005497520     0.7093615510    11.2500000000
Ni      9.8291990100     2.8374462050    11.2500000000
Ni     11.0578482670     4.9655308580    11.2500000000
Ni     12.2864975240     7.0936155120    11.2500000000
Ni      9.8234416711     0.0013452519    13.3035407322
Ni     11.0502498215     2.1301190679    13.3014865069
Ni     12.2815918889     4.2554206744    13.3089082332
Ni     13.5071581633     6.3849079896    13.2982878148
Ni      2.4492298880     0.0011902979    13.3007815425
Ni      3.6772581365     2.1303511266    13.3026991432
Ni      4.9084182808     4.2570716441    13.2966862173
Ni      6.1425799848     6.3839040627    13.3026385374
Ni      4.9059920423     0.0009625884    13.2913401958
Ni      6.1386031799     2.1295978937    13.2932076469
Ni      7.3713090259     4.2586589271    13.3080294499
Ni      8.5951868894     6.3827254110    13.3065892450
Ni      7.3671671851    -0.0003801123    13.2925331072
Ni      8.5979519312     2.1352264416    13.3021362272
Ni      9.8183511585     4.2560405521    13.3179243748
Ni     11.0490016057     6.3749541906    13.2941999964
Ni      2.4477554004     1.4200183928    15.3320940126
Ni      3.6728938482     3.5526298192    15.3297625298
Ni      4.9012871954     5.6852316203    15.3125827253
Ni      6.1357466690     7.8013712204    15.3346883796
Ni      4.9046789545     1.4168086238    15.3049823471
Ni      6.1405103172     3.5586662364    15.2983956604
Ni      7.3916146549     5.6746062902    15.3563651444
Ni      8.5904809818     7.8035990004    15.3241711867
Ni      7.3696893190     1.4206726904    15.3026489759
Ni      8.5998082171     3.5736283208    15.3783645472
Ni      9.8084671063     5.6678307580    15.3658611969
Ni     11.0475968685     7.7799548804    15.2900332352
Ni      9.8174431865     1.4262810242    15.3353375307
Ni     11.0453532307     3.5481014734    15.3333636203
Ni     12.2725573948     5.6753437611    15.3319643145
Ni     13.5045840623     7.8045393615    15.3257470566
Ni      1.2219102205     0.7125484864    17.3782244475
Ni      2.4357185233     2.8414463185    17.3826976175
Ni      3.6691362241     4.9896035437    17.3727562872
Ni      4.8935718062     7.1092838762    17.3865315414
Ni      3.6750329997     0.7131450545    17.3768977098
Ni      4.9055314112     2.8533706825    17.3337291757
Ni      6.1238006678     5.0225038787    17.3014382745
Ni      7.3575456193     7.1294604079    17.3808252875
Ni      6.1394789075     0.6640725248    17.2738076968