80
Step 1 | ATOMIC_POSITIONS (angstrom) | Cartesian Angstrom
Ni      1.2286497520     0.7093615510    11.2500000000
Ni      2.4572990100     2.8374462050    11.2500000000
Ni      3.6859482670     4.9655308580    11.2500000000
Ni      4.9145975240     7.0936155120    11.2500000000
Ni      3.6859497520     0.7093615510    11.2500000000
Ni      4.9145990100     2.8374462050    11.2500000000
Ni      6.1432482670     4.9655308580    11.2500000000
Ni      7.3718975240     7.0936155120    11.2500000000
Ni      6.1432497520     0.7093615510    11.2500000000
Ni      7.3718990100     2.8374462050    11.2500000000
Ni      8.6005482670     4.9655308580    11.2500000000
Ni      9.8291975240     7.0936155120    11.2500000000
Ni      8.6005497520     0.7093615510    11.2500000000
Ni      9.8291990100     2.8374462050    11.2500000000
Ni     11.0578482670     4.9655308580    11.2500000000
Ni     12.2864975240     7.0936155120    11.2500000000
Ni      9.8217099723     0.0041106833    13.3020639690
Ni     11.0502853796     2.1317219556    13.2998253936
Ni     12.2808052920     4.2560136795    13.3058604015
Ni     13.5052251008     6.3868835928    13.2986319111
Ni      2.4509883769     0.0032214552    13.2998548039
Ni      3.6782360494     2.1352575317    13.3095155137
Ni      4.9047485167     4.2566242406    13.3075129560
Ni      6.1374860433     6.3854294232    13.3001822699
Ni      4.9080080949     0.0054422288    13.2982088405
Ni      6.1351879143     2.1329183421    13.3007757530
Ni      7.3662810315     4.2579898979    13.3115699265
Ni      8.5945731301     6.3837417505    13.3040995133
Ni      7.3646902595     0.0042946183    13.2964010289
Ni      8.5935564523     2.1379816909    13.3051175307
Ni      9.8181825798     4.2565805384    13.3115510129
Ni     11.0465944010     6.3833637383    13.3030512343
Ni      2.4465957425     1.4217486300    15.3334632027
Ni      3.6895877626     3.5401011548    15.3783722743
Ni      4.9016544847     5.6795090844    15.3233446755
Ni      6.1313662001     7.8075136443    15.3306156069
Ni      4.9041226636     1.4292135418    15.3369714369
Ni      6.1334106108     3.5493005750    15.3359847975
Ni      7.3722346360     5.6730701157    15.3430638435
Ni      8.5936873321     7.8054572514    15.3193937461
Ni      7.3646162783     1.4275965329    15.3252836538
Ni      8.5782123359     3.5498465015    15.3883274034
Ni      9.8075844820     5.6648775404    15.3568304230
Ni     11.0486020684     7.8000939233    15.3167864121
Ni      9.8184737287     1.4241109073    15.3297220160
Ni     11.0491179044     3.5482212940    15.3300472054
Ni     12.2748315556     5.6728900954    15.3275143090
Ni     13.5019904515     7.8057784673    15.3260298315
Ni      1.2180899697     0.7196081790    17.3949140259
Ni      2.4438279514     2.8381339169    17.3925444632
Ni      3.6659663161     4.9882932703    17.3831178130
Ni      4.8965276362     7.1131753300    17.3824741820
Ni      3.6696454751     0.7080733059    17.3740305682
Ni      4.8815336753     2.8529535489    17.4632638965
Ni      6.1114703532     5.0293879863    17.3321428597
Ni      7.3565899761     7.1298998540    17.3594467340
Ni      6.1341531258     0.6505662609    17.3232454354
Ni      7.3721293541     2.8206187748    17.4055823500
Ni      8.5993046382     4.9980189801    17.5339201686
Ni      9.8262096682     7.1069671488    17.3623185778
Ni      8.6001211059     0.6999029061    17.3712284063
Ni      9.8369891821     2.8275755421    17.3723670132
Ni     11.0640527427     4.9657523570    17.3790147625
Ni     12.2770114752     7.0891455123    17.3823714005
O       9.1088107839     3.7176944191    21.7821469554
O       8.5958910850     4.9929201821    19.4565444435
O       9.0221197348     5.3452748530    24.2239263836
C       8.7353158915     5.0951554719    21.8603273775
C       9.0407075019     5.8116540388    20.5264367844
C       9.4288591267     5.8644324600    22.9653763627
H       7.6436738875     5.0630915975    22.0915705679
H      10.1475447779     6.0001161724    20.4615136303
H       8.5401589228     6.7942215478    20.4731514927
H       9.1698089383     6.9378543053    22.8601016697
H      10.5264616691     5.7775080014    22.8179327872
H      10.0820621960     3.6624022684    21.7915663818
H       6.1846719970     3.4621339555    19.6848540010
H       9.4735436413     5.8370176705    24.9243126010
O       6.1692638533     2.7682659083    19.0336273933
H       6.1618407928     1.9060246060    19.4691137020
80
Step 2 | ATOMIC_POSITIONS (angstrom) | Cartesian Angstrom
Ni      1.2286497520     0.7093615510    11.2500000000
Ni      2.4572990100     2.8374462050    11.2500000000
Ni      3.6859482670     4.9655308580    11.2500000000
Ni      4.9145975240     7.0936155120    11.2500000000
Ni      3.6859497520     0.7093615510    11.2500000000
Ni      4.9145990100     2.8374462050    11.2500000000
Ni      6.1432482670     4.9655308580    11.2500000000
Ni      7.3718975240     7.0936155120    11.2500000000
Ni      6.1432497520     0.7093615510    11.2500000000
Ni      7.3718990100     2.8374462050    11.2500000000
Ni      8.6005482670     4.9655308580    11.2500000000
Ni      9.8291975240     7.0936155120    11.2500000000
Ni      8.6005497520     0.7093615510    11.2500000000
Ni      9.8291990100     2.8374462050    11.2500000000
Ni     11.0578482670     4.9655308580    11.2500000000
Ni     12.2864975240     7.0936155120    11.2500000000
Ni      9.8217834106     0.0038258770    13.3022179029
Ni     11.0504257210     2.1317286431    13.2999267651
Ni     12.2818783677     4.2556085307    13.3072884979
Ni     13.5057011775     6.3862364986    13.2991616364
Ni      2.4507269062     0.0031793489    13.3000712542
Ni      3.6780445233     2.1347446145    13.3094348047
Ni      4.9051149954     4.2566226492    13.3075217376
Ni      6.1379530000     6.3852841587    13.3005194816
Ni      4.9080142365     0.0056052235    13.2980232199
Ni      6.1355786306     2.1324121989    13.3008199146
Ni      7.3666529165     4.2578582909    13.3116684862
Ni      8.5947567396     6.3831076787    13.3042302045
Ni      7.3645524242     0.0041356525    13.2971601283
Ni      8.5939821616     2.1374263743    13.3044623938
Ni      9.8173842901     4.2567758473    13.3133709871
Ni     11.0464676203     6.3826113676    13.3026705541
Ni      2.4466183316     1.4216370058    15.3334707357
Ni      3.6893019931     3.5408089837    15.3771638305
Ni      4.9010892264     5.6798083459    15.3222828750
Ni      6.1322525241     7.8069464047    15.3315913802
Ni      4.9049311955     1.4282201825    15.3367919309
Ni      6.1342192848     3.5501445604    15.3357466693
Ni      7.3743302604     5.6718118576    15.3434732695
Ni      8.5932434238     7.8055017740    15.3189578480
Ni      7.3642220303     1.4268671980    15.3261143180
Ni      8.5787158250     3.5527351113    15.3894043522
Ni      9.8085478823     5.6652319880    15.3531261798
Ni     11.0480617590     7.7972853996    15.3136622065
Ni      9.8186693480     1.4245385271    15.3307279882
Ni     11.0486053998     3.5480902446    15.3298153315
Ni     12.2742740170     5.6730036879    15.3287930808
Ni     13.5021455255     7.8056131710    15.3253320473
Ni      1.2190459521     0.7186929968    17.3923808940
Ni      2.4445282716     2.8379482641    17.3917707828
Ni      3.6671348039     4.9885213873    17.3830424551
Ni      4.8960963878     7.1118369076    17.3832179886
Ni      3.6713940987     0.7099417104    17.3753027665
Ni      4.8604879336     2.8554356079    17.4214616811
Ni      6.1124044754     5.0338208583    17.3245624385
Ni      7.3555438931     7.1274794280    17.3638740011
Ni      6.1341866174     0.6426081148    17.3117134763
Ni      7.3917670586     2.8256533292    17.3694847919
Ni      8.6047681663     5.0092483139    17.5965128198
Ni      9.8265780829     7.1088642639    17.3643921810
Ni      8.5979340680     0.6991534268    17.3714564855
Ni      9.8370253616     2.8268175386    17.3762424715
Ni     11.0641254238     4.9662540309    17.3797193151
Ni     12.2778625346     7.0911476694    17.3835764896
O       9.1109526758     3.7198851534    21.7991939102
O       8.5865101714     4.9860620782    19.4147204038
O       9.0189314715     5.3421698674    24.2306522857
C       8.7390862362     5.0913337384    21.8502576950
C       9.0256015174     5.7931939973    20.4725070649
C       9.4322634994     5.8650884051    22.9716423325
H       7.6572582756     5.0704583850    22.0771695825
H      10.1353119906     5.9961398485    20.4618199270
H       8.5415153297     6.8026827193    20.4831756323
H       9.1700418792     6.9361318727    22.8616839019
H      10.5250032754     5.7763707381    22.8205832321
H      10.0783388303     3.6626190219    21.7876670218
H       6.1979567006     3.5130557349    19.7211273496
H       9.4758282437     5.8396352493    24.9287314147
O       6.1647525988     2.7565515069    19.0807641362
H       6.1645900606     1.8712635550    19.4860074932
