124
Step 1 | ATOMIC_POSITIONS (angstrom) | Cartesian Angstrom
NI      1.2254504230     0.7101865830     1.4556095020
NI      2.4444040200     2.8214761450     1.4556095020
NI      3.6633576180     4.9327657080     1.4556095020
NI      4.8823112150     7.0440552710     1.4556095020
NI      6.1012648120     9.1553448320     1.4556095020
NI      7.3202184090    11.2666343950     1.4556095020
NI      3.6633576170     0.7101865830     1.4556095020
NI      4.8823112140     2.8214761450     1.4556095020
NI      6.1012648110     4.9327657080     1.4556095020
NI      7.3202184090     7.0440552710     1.4556095020
NI      8.5391720050     9.1553448320     1.4556095020
NI      9.7581256030    11.2666343950     1.4556095020
NI      6.1012648120     0.7101865830     1.4556095020
NI      7.3202184090     2.8214761450     1.4556095020
NI      8.5391720060     4.9327657080     1.4556095020
NI      9.7581256040     7.0440552710     1.4556095020
NI     10.9770792000     9.1553448320     1.4556095020
NI     12.1960327980    11.2666343950     1.4556095020
NI      8.5391720070     0.7101865830     1.4556095020
NI      9.7581256040     2.8214761450     1.4556095020
NI     10.9770792010     4.9327657080     1.4556095020
NI     12.1960327990     7.0440552710     1.4556095020
NI     13.4149863960     9.1553448320     1.4556095020
NI     14.6339399930    11.2666343950     1.4556095020
NI     10.9770792000     0.7101865830     1.4556095020
NI     12.1960327970     2.8214761450     1.4556095020
NI     13.4149863950     4.9327657080     1.4556095020
NI     14.6339399920     7.0440552710     1.4556095020
NI     15.8528935890     9.1553448320     1.4556095020
NI     17.0718471870    11.2666343950     1.4556095020
NI     13.4149863960     0.7101865830     1.4556095020
NI     14.6339399920     2.8214761450     1.4556095020
NI     15.8528935900     4.9327657080     1.4556095020
NI     17.0718471870     7.0440552710     1.4556095020
NI     18.2908007840     9.1553448320     1.4556095020
NI     19.5097543820    11.2666343950     1.4556095020
NI     13.4528749105     7.7633383784     3.4073713921
NI     14.6464999460     9.8310652084     3.3946178447
NI     15.8399315092     7.7654863458     3.3939540463
NI     12.2437541249     9.8366231485     3.4413556798
NI     14.6436917224     5.6885761473     3.4216587057
NI     17.0346189340     9.8320730924     3.4123876069
NI     11.0254857381     7.7542253336     3.4573854478
NI     13.4415699490    11.9226171989     3.4370150160
NI     12.2339342613     5.6736849606     3.4385604549
NI     15.8435398898    11.9186155990     3.4289699761
NI     17.0464059663     5.6819405683     3.4332908252
NI     18.2410971821     7.7581637457     3.4261402471
NI      9.7911947546     9.8435453729     3.4780630722
NI     11.0139855216    11.9458685984     3.4624897492
NI     13.4250592465     3.5688690162     3.4617801981
NI     18.2562152541    11.9330348688     3.4524542917
NI     15.8510502811     3.5733652930     3.4554623234
NI     19.4640350620     9.8391233081     3.4619210772
NI      4.8469198746     5.6613640297     3.4508675728
NI      7.3273659698     1.3739028702     3.4579876284
NI      9.7884122592     5.6543598793     3.4693407644
NI      3.6532628536     3.5544339888     3.4709310578
NI      6.0682620638     7.7476848070     3.4791158119
NI      4.9005034004     1.3921293937     3.4772047867
NI      8.5541232644     7.7466068846     3.4785001231
NI      9.7466441899     1.3836353243     3.4688038815
NI     10.9900734980     3.5421084829     3.4740864098
NI      2.4590294035     1.4208410186     3.4921487912
NI      7.3101186643     9.8459545855     3.4855175930
NI     12.1827341899     1.4107758029     3.4829049001
NI      6.0953777106     3.5243084063     3.4815783836
NI      7.3125594046     5.6459330378     3.4843514593
NI      8.5440094967     3.5175682109     3.4902011890
NI      8.5499688709    11.9582148465     3.4905181908
NI     14.6309602378     1.4297097458     3.4956062114
NI     20.7014859895    11.9552394310     3.4789977964
AG     -0.1010262334    -0.0237830506     5.7909033488
AG      5.7813287347     5.0380831103     5.7719632860
AG      7.2036194799     2.5391934162     5.7747880651
AG      8.6583767641     5.0581067258     5.7695672372
AG      1.3518639911     2.4720536095     5.7794504180
AG      5.8054553239    10.1623871348     5.8232300447
AG      2.7768873479    -0.0223626484     5.8009076633
AG      8.6427835306    10.1525828116     5.8419321579
AG     11.6285218377     0.0202314221     5.8045669597
AG     13.0699792090     2.4889660231     5.7861594770
AG      4.2737743773     2.4967687310     5.7934222890
AG      7.2384508324     7.6196540936     5.8206500877
AG     10.1312149264     2.5402348718     5.7844617687
AG      2.8566674884     4.9914146102     5.8208321002
AG      4.3545674093     7.5754999270     5.8196916419
AG      5.7100806817     0.0174700492     5.8146759379
AG     10.0627921324     7.6139640292     5.8335744373
AG      8.6807639989     0.0426741001     5.8178955375
AG     11.5454267372     5.0387062357     5.8005950355
AG     11.5025149242    10.1677230826     5.8386824240
AG     14.5165494813     4.9863493607     5.8253556806
AG     17.5148272253    10.1473114636     5.8405002497
AG     12.9909813245     7.5810923882     5.8444673757
AG     14.5031963657    10.1391246146     5.8516458417
AG     16.0067859866     7.5503794385     5.8594787305
AG      5.7466232416     3.3573122246     8.0903681149
AG      7.1952476997     5.8882791202     8.0925195804
AG      8.6653292392     3.3602839821     8.0807303058
AG      4.2932490048     5.8872266786     8.1062131106
AG      7.2066357789     0.8317775940     8.1081826375
AG     10.1243991382     5.8949954020     8.0971476194
AG      1.3513512458     0.8506212524     8.1018152198
AG      7.1300778845    11.0356399719     8.1760094347
AG     13.0527032725     0.8636100526     8.1262360162
AG      2.8223049651     3.3454276668     8.1144065301
AG      5.7350797613     8.4408991931     8.1159194483
AG      4.2844044260     0.8374367376     8.1197452145
AG      8.6611396189     8.3828789298     8.1759093327
AG     10.1387553107     0.8490869057     8.1144812219
AG     11.6059248754     3.3628707475     8.0834993032
AG     11.6019573478     8.4319268511     8.1229178528
AG     13.0672106813    10.9649771262     8.1246110158
AG     13.0690671489     5.8850026106     8.1059575812
AG     15.9926001422    10.9705145303     8.1079522357
AG     15.9965309811     5.8690646582     8.1254501143
AG     17.4581635165     8.4274078342     8.1209954948
AG     10.1797789934    11.0153002484     8.1842393640
AG     14.5252648220     3.3533075821     8.1254372769
AG     18.8987221617    10.9904599758     8.1370694735
AG     14.5249387373     8.4151059738     8.1248877489
O       8.6415929033    10.1436908178     9.7003765343
H       8.6706470621    10.1369103720    10.6730608855
124
Step 2 | ATOMIC_POSITIONS (angstrom) | Cartesian Angstrom
NI      1.2254504230     0.7101865830     1.4556095020
NI      2.4444040200     2.8214761450     1.4556095020
NI      3.6633576180     4.9327657080     1.4556095020
NI      4.8823112150     7.0440552710     1.4556095020
NI      6.1012648120     9.1553448320     1.4556095020
NI      7.3202184090    11.2666343950     1.4556095020
NI      3.6633576170     0.7101865830     1.4556095020
NI      4.8823112140     2.8214761450     1.4556095020
NI      6.1012648110     4.9327657080     1.4556095020
NI      7.3202184090     7.0440552710     1.4556095020
NI      8.5391720050     9.1553448320     1.4556095020
NI      9.7581256030    11.2666343950     1.4556095020
NI      6.1012648120     0.7101865830     1.4556095020
NI      7.3202184090     2.8214761450     1.4556095020
NI      8.5391720060     4.9327657080     1.4556095020
NI      9.7581256040     7.0440552710     1.4556095020
NI     10.9770792000     9.1553448320     1.4556095020
NI     12.1960327980    11.2666343950     1.4556095020
NI      8.5391720070     0.7101865830     1.4556095020
NI      9.7581256040     2.8214761450     1.4556095020
NI     10.9770792010     4.9327657080     1.4556095020
NI     12.1960327990     7.0440552710     1.4556095020
NI     13.4149863960     9.1553448320     1.4556095020
NI     14.6339399930    11.2666343950     1.4556095020
NI     10.9770792000     0.7101865830     1.4556095020
NI     12.1960327970     2.8214761450     1.4556095020
NI     13.4149863950     4.9327657080     1.4556095020
NI     14.6339399920     7.0440552710     1.4556095020
NI     15.8528935890     9.1553448320     1.4556095020
NI     17.0718471870    11.2666343950     1.4556095020
NI     13.4149863960     0.7101865830     1.4556095020
NI     14.6339399920     2.8214761450     1.4556095020
NI     15.8528935900     4.9327657080     1.4556095020
NI     17.0718471870     7.0440552710     1.4556095020
NI     18.2908007840     9.1553448320     1.4556095020
NI     19.5097543820    11.2666343950     1.4556095020
NI     13.4529893595     7.7632594523     3.4071321820
NI     14.6464546140     9.8309721445     3.3947440275
NI     15.8396554585     7.7655943154     3.3939603760
NI     12.2438769175     9.8363990278     3.4411955976
NI     14.6436920058     5.6886919481     3.4216166543
NI     17.0347169150     9.8321588954     3.4123754919
NI     11.0255724707     7.7540521889     3.4573476646
NI     13.4417616046    11.9228507781     3.4369191395
NI     12.2339299432     5.6737531863     3.4384876525
NI     15.8435355766    11.9186568964     3.4287533493
NI     17.0463752442     5.6819034699     3.4331414093
NI     18.2411496722     7.7582272645     3.4259388753
NI      9.7912041824     9.8437517013     3.4778370061
NI     11.0139677777    11.9457053927     3.4624601994
NI     13.4252871455     3.5687479833     3.4615505756
NI     18.2561004897    11.9331515811     3.4523779820
NI     15.8508987652     3.5734846952     3.4553284195
NI     19.4640091262     9.8392229613     3.4617389217
NI      4.8469049166     5.6614019736     3.4508656600
NI      7.3274010476     1.3737817718     3.4580066252
NI      9.7883095746     5.6541282767     3.4696830424
NI      3.6532407368     3.5543397751     3.4711773807
NI      6.0681141422     7.7477278474     3.4787430196
NI      4.9006195719     1.3922428149     3.4771953946
NI      8.5541838469     7.7465550417     3.4787100637
NI      9.7463602541     1.3833494198     3.4687562861
NI     10.9900172884     3.5421115202     3.4743150199
NI      2.4587428403     1.4207635298     3.4919666252
NI      7.3101067241     9.8459061045     3.4856462674
NI     12.1826659452     1.4107996989     3.4827323298
NI      6.0954597597     3.5243136395     3.4815000998
NI      7.3124614150     5.6458778413     3.4847340633
NI      8.5439174494     3.5173606730     3.4901851413
NI      8.5499362790    11.9585070528     3.4907186898
NI     14.6309591919     1.4297527717     3.4956974764
NI     20.7015105575    11.9552290233     3.4790398593
AG     -0.1007903439    -0.0239126678     5.7909011903
AG      5.7812003674     5.0381861057     5.7719365979
AG      7.2036684810     2.5395625940     5.7745748287
AG      8.6576427106     5.0577378926     5.7689279118
AG      1.3520018676     2.4719463626     5.7795200798
AG      5.8053702326    10.1625199831     5.8230964832
AG      2.7767899773    -0.0222578580     5.8010995406
AG      8.6429741547    10.1524630425     5.8423373328
AG     11.6287923832     0.0201344280     5.8044011586
AG     13.0698998587     2.4891507203     5.7862606859
AG      4.2737138056     2.4969624769     5.7934828400
AG      7.2383598859     7.6194629629     5.8204775134
AG     10.1312100862     2.5399378904     5.7842982259
AG      2.8566802003     4.9915378897     5.8207882128
AG      4.3547372328     7.5754537829     5.8197983573
AG      5.7103021014     0.0179690380     5.8148118259
AG     10.0626892594     7.6147912901     5.8328256962
AG      8.6810329869     0.0426885255     5.8179041352
AG     11.5463937923     5.0384156376     5.7996730296
AG     11.5026021928    10.1674809175     5.8393255102
AG     14.5160342896     4.9862759216     5.8255210229
AG     17.5146144143    10.1474577297     5.8404788380
AG     12.9912106750     7.5808045605     5.8442315531
AG     14.5029673199    10.1395593114     5.8517236359
AG     16.0068269405     7.5504717871     5.8594126302
AG      5.7462445172     3.3574608564     8.0901323526
AG      7.1954914205     5.8880917014     8.0929766110
AG      8.6656872403     3.3611596565     8.0813798295
AG      4.2929263230     5.8871437783     8.1061846758
AG      7.2064429294     0.8319475041     8.1079253539
AG     10.1253307213     5.8938475831     8.0982160156
AG      1.3513047582     0.8506261979     8.1020917614
AG      7.1307397535    11.0351483457     8.1759007961
AG     13.0526497201     0.8631598232     8.1257956059
AG      2.8220848078     3.3454104986     8.1145608326
AG      5.7347933440     8.4410500869     8.1157633302
AG      4.2841908343     0.8379340993     8.1196892359
AG      8.6611325686     8.3825313594     8.1764135978
AG     10.1386510657     0.8486608090     8.1141179855
AG     11.6052006287     3.3636579466     8.0845149884
AG     11.6017857300     8.4319466545     8.1228061415
AG     13.0671918533    10.9651150930     8.1247642787
AG     13.0680431772     5.8847745638     8.1063739548
AG     15.9924837639    10.9706064169     8.1080782305
AG     15.9965125927     5.8693714860     8.1253535791
AG     17.4581432567     8.4275472855     8.1209724504
AG     10.1797710512    11.0151034122     8.1840810253
AG     14.5255902749     3.3531403483     8.1249607022
AG     18.8986046275    10.9902248650     8.1369130998
AG     14.5251416144     8.4155928229     8.1247370955
O       8.6422614193    10.1433698032     9.7001067680
H       8.6702676481    10.1369894825    10.6724683168
