124
Step 1 | ATOMIC_POSITIONS (angstrom) | Cartesian Angstrom
NI      1.2254504230     0.7101865830     1.4556095020
NI      2.4444040200     2.8214761450     1.4556095020
NI      3.6633576180     4.9327657080     1.4556095020
NI      4.8823112150     7.0440552710     1.4556095020
NI      6.1012648120     9.1553448320     1.4556095020
NI      7.3202184090    11.2666343950     1.4556095020
NI      3.6633576170     0.7101865830     1.4556095020
NI      4.8823112140     2.8214761450     1.4556095020
NI      6.1012648110     4.9327657080     1.4556095020
NI      7.3202184090     7.0440552710     1.4556095020
NI      8.5391720050     9.1553448320     1.4556095020
NI      9.7581256030    11.2666343950     1.4556095020
NI      6.1012648120     0.7101865830     1.4556095020
NI      7.3202184090     2.8214761450     1.4556095020
NI      8.5391720060     4.9327657080     1.4556095020
NI      9.7581256040     7.0440552710     1.4556095020
NI     10.9770792000     9.1553448320     1.4556095020
NI     12.1960327980    11.2666343950     1.4556095020
NI      8.5391720070     0.7101865830     1.4556095020
NI      9.7581256040     2.8214761450     1.4556095020
NI     10.9770792010     4.9327657080     1.4556095020
NI     12.1960327990     7.0440552710     1.4556095020
NI     13.4149863960     9.1553448320     1.4556095020
NI     14.6339399930    11.2666343950     1.4556095020
NI     10.9770792000     0.7101865830     1.4556095020
NI     12.1960327970     2.8214761450     1.4556095020
NI     13.4149863950     4.9327657080     1.4556095020
NI     14.6339399920     7.0440552710     1.4556095020
NI     15.8528935890     9.1553448320     1.4556095020
NI     17.0718471870    11.2666343950     1.4556095020
NI     13.4149863960     0.7101865830     1.4556095020
NI     14.6339399920     2.8214761450     1.4556095020
NI     15.8528935900     4.9327657080     1.4556095020
NI     17.0718471870     7.0440552710     1.4556095020
NI     18.2908007840     9.1553448320     1.4556095020
NI     19.5097543820    11.2666343950     1.4556095020
NI     13.4531270833     7.7631420454     3.4066963637
NI     14.6463907858     9.8308975218     3.3950712241
NI     15.8392814136     7.7658508492     3.3940226944
NI     12.2440210954     9.8361093598     3.4411188110
NI     14.6437506897     5.6888520385     3.4216867259
NI     17.0348884193     9.8323049500     3.4123591679
NI     11.0256712733     7.7537129684     3.4571412717
NI     13.4419892753    11.9232818920     3.4368380273
NI     12.2338943779     5.6738684984     3.4380845072
NI     15.8434765703    11.9186773622     3.4284066945
NI     17.0463613878     5.6818476372     3.4328972357
NI     18.2412243020     7.7583579380     3.4256818549
NI      9.7911566343     9.8442015524     3.4773844139
NI     11.0139979171    11.9454187436     3.4625012578
NI     13.4256816383     3.5684439043     3.4610959591
NI     18.2559340507    11.9333755184     3.4522393503
NI     15.8506877774     3.5736838373     3.4551627021
NI     19.4640119916     9.8394773425     3.4613976801
NI      4.8468717577     5.6614349388     3.4508254506
NI      7.3273854855     1.3735724494     3.4580476387
NI      9.7880472387     5.6536488955     3.4702790038
NI      3.6532055923     3.5541076485     3.4716563280
NI      6.0679110360     7.7478337155     3.4779748982
NI      4.9007502207     1.3924631436     3.4771940007
NI      8.5542792592     7.7464569035     3.4790262661
NI      9.7457915484     1.3828180724     3.4686394939
NI     10.9898534704     3.5420490796     3.4747233585
NI      2.4582551658     1.4205917521     3.4916055994
NI      7.3101613088     9.8458278194     3.4859237130
NI     12.1825072649     1.4108567540     3.4823860895
NI      6.0955766197     3.5243278685     3.4812407891
NI      7.3122180240     5.6458152725     3.4853622523
NI      8.5437228654     3.5168979312     3.4900230382
NI      8.5498740024    11.9590278653     3.4911239619
NI     14.6309135702     1.4297924767     3.4959253932
NI     20.7015857275    11.9551965393     3.4791267306
AG     -0.1002580149    -0.0241990077     5.7909284308
AG      5.7808400566     5.0384741886     5.7719615171
AG      7.2038639328     2.5403833732     5.7742541090
AG      8.6563555374     5.0570641615     5.7679060679
AG      1.3523135372     2.4717635274     5.7795691420
AG      5.8052237540    10.1627877047     5.8227532522
AG      2.7767253091    -0.0220799593     5.8014488793
AG      8.6433657010    10.1521485427     5.8431121275
AG     11.6294712346     0.0199162865     5.8039453218
AG     13.0696065283     2.4895060416     5.7865688204
AG      4.2735641683     2.4973999157     5.7935735158
AG      7.2381606806     7.6190182921     5.8202030189
AG     10.1312315947     2.5393630255     5.7841468311
AG      2.8566105757     4.9918268805     5.8206602804
AG      4.3550528991     7.5753904878     5.8198808542
AG      5.7107389863     0.0190979191     5.8150185955
AG     10.0623739711     7.6162446882     5.8316282425
AG      8.6815947261     0.0427145993     5.8178227311
AG     11.5481722921     5.0376983236     5.7979750717
AG     11.5029800565    10.1670451219     5.8404731114
AG     14.5149572766     4.9862108892     5.8258888141
AG     17.5140868337    10.1477781449     5.8404037327
AG     12.9917628117     7.5801478222     5.8438352973
AG     14.5023867790    10.1406468166     5.8518537874
AG     16.0069475525     7.5506940142     5.8592507182
AG      5.7454670187     3.3578387079     8.0895973425
AG      7.1960840642     5.8877230354     8.0939311744
AG      8.6664052762     3.3629980598     8.0827226968
AG      4.2922294123     5.8869845560     8.1061477659
AG      7.2060592091     0.8325155153     8.1073118097
AG     10.1273311782     5.8915280394     8.1001208770
AG      1.3511688514     0.8505856748     8.1027757510
AG      7.1321427416    11.0340219723     8.1755992867
AG     13.0524939344     0.8621979574     8.1247749279
AG      2.8215269172     3.3454577172     8.1149262523
AG      5.7342136835     8.4413414089     8.1154029727
AG      4.2836726410     0.8390018896     8.1195935363
AG      8.6611681264     8.3812981622     8.1774034598
AG     10.1384359711     0.8478238986     8.1132904407
AG     11.6036551357     3.3651394278     8.0866765817
AG     11.6014045729     8.4318259218     8.1224952918
AG     13.0671122014    10.9655385955     8.1251758406
AG     13.0658672331     5.8843669727     8.1073102416
AG     15.9921882701    10.9708579302     8.1084064990
AG     15.9962985263     5.8701034511     8.1250910304
AG     17.4580783110     8.4278793222     8.1209170979
AG     10.1799012440    11.0148254741     8.1837399236
AG     14.5261929420     3.3527544560     8.1239143304
AG     18.8984409976    10.9896742949     8.1365648526
AG     14.5255053794     8.4166260559     8.1243501191
O       8.6437720882    10.1426180986     9.6993160180
H       8.6693712004    10.1371757143    10.6715335556
124
Step 2 | ATOMIC_POSITIONS (angstrom) | Cartesian Angstrom
NI      1.2254504230     0.7101865830     1.4556095020
NI      2.4444040200     2.8214761450     1.4556095020
NI      3.6633576180     4.9327657080     1.4556095020
NI      4.8823112150     7.0440552710     1.4556095020
NI      6.1012648120     9.1553448320     1.4556095020
NI      7.3202184090    11.2666343950     1.4556095020
NI      3.6633576170     0.7101865830     1.4556095020
NI      4.8823112140     2.8214761450     1.4556095020
NI      6.1012648110     4.9327657080     1.4556095020
NI      7.3202184090     7.0440552710     1.4556095020
NI      8.5391720050     9.1553448320     1.4556095020
NI      9.7581256030    11.2666343950     1.4556095020
NI      6.1012648120     0.7101865830     1.4556095020
NI      7.3202184090     2.8214761450     1.4556095020
NI      8.5391720060     4.9327657080     1.4556095020
NI      9.7581256040     7.0440552710     1.4556095020
NI     10.9770792000     9.1553448320     1.4556095020
NI     12.1960327980    11.2666343950     1.4556095020
NI      8.5391720070     0.7101865830     1.4556095020
NI      9.7581256040     2.8214761450     1.4556095020
NI     10.9770792010     4.9327657080     1.4556095020
NI     12.1960327990     7.0440552710     1.4556095020
NI     13.4149863960     9.1553448320     1.4556095020
NI     14.6339399930    11.2666343950     1.4556095020
NI     10.9770792000     0.7101865830     1.4556095020
NI     12.1960327970     2.8214761450     1.4556095020
NI     13.4149863950     4.9327657080     1.4556095020
NI     14.6339399920     7.0440552710     1.4556095020
NI     15.8528935890     9.1553448320     1.4556095020
NI     17.0718471870    11.2666343950     1.4556095020
NI     13.4149863960     0.7101865830     1.4556095020
NI     14.6339399920     2.8214761450     1.4556095020
NI     15.8528935900     4.9327657080     1.4556095020
NI     17.0718471870     7.0440552710     1.4556095020
NI     18.2908007840     9.1553448320     1.4556095020
NI     19.5097543820    11.2666343950     1.4556095020
NI     13.4531339407     7.7631238181     3.4065925300
NI     14.6464072300     9.8309087349     3.3951706412
NI     15.8392700241     7.7659119153     3.3940263394
NI     12.2440258088     9.8360869464     3.4412063010
NI     14.6437797165     5.6888607276     3.4217631110
NI     17.0349107040     9.8323337274     3.4123302541
NI     11.0256707807     7.7536391757     3.4570448180
NI     13.4419953299    11.9233528236     3.4368580530
NI     12.2339034413     5.6738635028     3.4378628806
NI     15.8434530530    11.9186558538     3.4283428831
NI     17.0463682057     5.6818554952     3.4328335914
NI     18.2412154784     7.7583917324     3.4256591048
NI      9.7911177148     9.8442857386     3.4773085010
NI     11.0140206831    11.9454124264     3.4625598199
NI     13.4257292802     3.5683775406     3.4610002129
NI     18.2559110055    11.9334094053     3.4521877050
NI     15.8506785776     3.5737024909     3.4551519691
NI     19.4640125834     9.8395544574     3.4612995089
NI      4.8468596023     5.6614141399     3.4508033011
NI      7.3273484751     1.3735579820     3.4580675549
NI      9.7879646532     5.6535335714     3.4703898002
NI      3.6531941821     3.5540644570     3.4717500717
NI      6.0678958105     7.7478566232     3.4777881647
NI      4.9007351213     1.3925268535     3.4771996224
NI      8.5542759842     7.7464202020     3.4790637933
NI      9.7456763881     1.3827315559     3.4686054411
NI     10.9897974177     3.5419926503     3.4747978978
NI      2.4581825800     1.4205702168     3.4915139028
NI      7.3101907424     9.8458357022     3.4860105047
NI     12.1824646754     1.4108669962     3.4823017322
NI      6.0955865412     3.5243402608     3.4811588327
NI      7.3121392205     5.6457958250     3.4854611792
NI      8.5436617117     3.5167836023     3.4899346956
NI      8.5498448617    11.9591145966     3.4912142844
NI     14.6308787003     1.4297915163     3.4959893095
NI     20.7016009461    11.9552056958     3.4791299717
AG     -0.1000757485    -0.0242821050     5.7909461302
AG      5.7806986617     5.0385852412     5.7719981322
AG      7.2039603281     2.5406458692     5.7742088425
AG      8.6560990696     5.0569135952     5.7677544339
AG      1.3524041482     2.4717251222     5.7795420346
AG      5.8051998698    10.1628589526     5.8226303135
AG      2.7767614168    -0.0220501628     5.8015289329
AG      8.6434804942    10.1520294889     5.8433049239
AG     11.6297018719     0.0198402823     5.8037678461
AG     13.0694703694     2.4895951120     5.7866848197
AG      4.2735131560     2.4975451109     5.7935866121
AG      7.2380934494     7.6188697923     5.8201629109
AG     10.1312469088     2.5392255769     5.7841916940
AG      2.8565408475     4.9919181665     5.8206173886
AG      4.3551164761     7.5753901457     5.8198473982
AG      5.7108540653     0.0194679549     5.8150472187
AG     10.0622530232     7.6165289693     5.8314507862
AG      8.6817457564     0.0427212028     5.8177459839
AG     11.5485737444     5.0374385543     5.7975983205
AG     11.5031710540    10.1669525079     5.8407192838
AG     14.5146476458     4.9862338162     5.8259963121
AG     17.5138956400    10.1478793666     5.8403733752
AG     12.9919548015     7.5799334660     5.8437626676
AG     14.5021766247    10.1410356721     5.8518809683
AG     16.0069911984     7.5507785845     5.8591926943
AG      5.7452535601     3.3579850865     8.0894274622
AG      7.1962808305     5.8876192485     8.0942077669
AG      8.6665974707     3.3635300099     8.0831206361
AG      4.2920196889     5.8869500524     8.1061437859
AG      7.2059617036     0.8327755233     8.1071030642
AG     10.1279259179     5.8908970845     8.1005422058
AG      1.3511180354     0.8505492707     8.1030017447
AG      7.1325630041    11.0336419007     8.1754767957
AG     13.0524293211     0.8619173344     8.1244329701
AG      2.8213269702     3.3455153665     8.1150387716
AG      5.7340646936     8.4414000952     8.1152805826
AG      4.2834888584     0.8393241373     8.1195718490
AG      8.6612083439     8.3807199933     8.1776664461
AG     10.1383719155     0.8476191185     8.1130250594
AG     11.6032006524     3.3654873753     8.0873318897
AG     11.6012860103     8.4317241343     8.1223824263
AG     13.0670674764    10.9657228946     8.1253307855
AG     13.0652248682     5.8842776503     8.1076198962
AG     15.9920804482    10.9709542590     8.1085193887
AG     15.9961518487     5.8703461062     8.1249882736
AG     17.4580435987     8.4279872115     8.1208924895
AG     10.1799990840    11.0148017785     8.1836373347
AG     14.5263129138     3.3526352989     8.1235953374
AG     18.8984287666    10.9894932189     8.1364445228
AG     14.5255680928     8.4169310451     8.1242010686
O       8.6443100010    10.1423277811     9.6989416092
H       8.6690497581    10.1372433439    10.6713614003
