124
Step 1 | ATOMIC_POSITIONS (angstrom) | Cartesian Angstrom
NI      1.2254504230     0.7101865830     1.4556095020
NI      2.4444040200     2.8214761450     1.4556095020
NI      3.6633576180     4.9327657080     1.4556095020
NI      4.8823112150     7.0440552710     1.4556095020
NI      6.1012648120     9.1553448320     1.4556095020
NI      7.3202184090    11.2666343950     1.4556095020
NI      3.6633576170     0.7101865830     1.4556095020
NI      4.8823112140     2.8214761450     1.4556095020
NI      6.1012648110     4.9327657080     1.4556095020
NI      7.3202184090     7.0440552710     1.4556095020
NI      8.5391720050     9.1553448320     1.4556095020
NI      9.7581256030    11.2666343950     1.4556095020
NI      6.1012648120     0.7101865830     1.4556095020
NI      7.3202184090     2.8214761450     1.4556095020
NI      8.5391720060     4.9327657080     1.4556095020
NI      9.7581256040     7.0440552710     1.4556095020
NI     10.9770792000     9.1553448320     1.4556095020
NI     12.1960327980    11.2666343950     1.4556095020
NI      8.5391720070     0.7101865830     1.4556095020
NI      9.7581256040     2.8214761450     1.4556095020
NI     10.9770792010     4.9327657080     1.4556095020
NI     12.1960327990     7.0440552710     1.4556095020
NI     13.4149863960     9.1553448320     1.4556095020
NI     14.6339399930    11.2666343950     1.4556095020
NI     10.9770792000     0.7101865830     1.4556095020
NI     12.1960327970     2.8214761450     1.4556095020
NI     13.4149863950     4.9327657080     1.4556095020
NI     14.6339399920     7.0440552710     1.4556095020
NI     15.8528935890     9.1553448320     1.4556095020
NI     17.0718471870    11.2666343950     1.4556095020
NI     13.4149863960     0.7101865830     1.4556095020
NI     14.6339399920     2.8214761450     1.4556095020
NI     15.8528935900     4.9327657080     1.4556095020
NI     17.0718471870     7.0440552710     1.4556095020
NI     18.2908007840     9.1553448320     1.4556095020
NI     19.5097543820    11.2666343950     1.4556095020
NI     13.4531270833     7.7631420454     3.4066963637
NI     14.6463907858     9.8308975218     3.3950712241
NI     15.8392814136     7.7658508492     3.3940226944
NI     12.2440210954     9.8361093598     3.4411188110
NI     14.6437506897     5.6888520385     3.4216867259
NI     17.0348884193     9.8323049500     3.4123591679
NI     11.0256712733     7.7537129684     3.4571412717
NI     13.4419892753    11.9232818920     3.4368380273
NI     12.2338943779     5.6738684984     3.4380845072
NI     15.8434765703    11.9186773622     3.4284066945
NI     17.0463613878     5.6818476372     3.4328972357
NI     18.2412243020     7.7583579380     3.4256818549
NI      9.7911566343     9.8442015524     3.4773844139
NI     11.0139979171    11.9454187436     3.4625012578
NI     13.4256816383     3.5684439043     3.4610959591
NI     18.2559340507    11.9333755184     3.4522393503
NI     15.8506877774     3.5736838373     3.4551627021
NI     19.4640119916     9.8394773425     3.4613976801
NI      4.8468717577     5.6614349388     3.4508254506
NI      7.3273854855     1.3735724494     3.4580476387
NI      9.7880472387     5.6536488955     3.4702790038
NI      3.6532055923     3.5541076485     3.4716563280
NI      6.0679110360     7.7478337155     3.4779748982
NI      4.9007502207     1.3924631436     3.4771940007
NI      8.5542792592     7.7464569035     3.4790262661
NI      9.7457915484     1.3828180724     3.4686394939
NI     10.9898534704     3.5420490796     3.4747233585
NI      2.4582551658     1.4205917521     3.4916055994
NI      7.3101613088     9.8458278194     3.4859237130
NI     12.1825072649     1.4108567540     3.4823860895
NI      6.0955766197     3.5243278685     3.4812407891
NI      7.3122180240     5.6458152725     3.4853622523
NI      8.5437228654     3.5168979312     3.4900230382
NI      8.5498740024    11.9590278653     3.4911239619
NI     14.6309135702     1.4297924767     3.4959253932
NI     20.7015857275    11.9551965393     3.4791267306
AG     -0.1002580149    -0.0241990077     5.7909284308
AG      5.7808400566     5.0384741886     5.7719615171
AG      7.2038639328     2.5403833732     5.7742541090
AG      8.6563555374     5.0570641615     5.7679060679
AG      1.3523135372     2.4717635274     5.7795691420
AG      5.8052237540    10.1627877047     5.8227532522
AG      2.7767253091    -0.0220799593     5.8014488793
AG      8.6433657010    10.1521485427     5.8431121275
AG     11.6294712346     0.0199162865     5.8039453218
AG     13.0696065283     2.4895060416     5.7865688204
AG      4.2735641683     2.4973999157     5.7935735158
AG      7.2381606806     7.6190182921     5.8202030189
AG     10.1312315947     2.5393630255     5.7841468311
AG      2.8566105757     4.9918268805     5.8206602804
AG      4.3550528991     7.5753904878     5.8198808542
AG      5.7107389863     0.0190979191     5.8150185955
AG     10.0623739711     7.6162446882     5.8316282425
AG      8.6815947261     0.0427145993     5.8178227311
AG     11.5481722921     5.0376983236     5.7979750717
AG     11.5029800565    10.1670451219     5.8404731114
AG     14.5149572766     4.9862108892     5.8258888141
AG     17.5140868337    10.1477781449     5.8404037327
AG     12.9917628117     7.5801478222     5.8438352973
AG     14.5023867790    10.1406468166     5.8518537874
AG     16.0069475525     7.5506940142     5.8592507182
AG      5.7454670187     3.3578387079     8.0895973425
AG      7.1960840642     5.8877230354     8.0939311744
AG      8.6664052762     3.3629980598     8.0827226968
AG      4.2922294123     5.8869845560     8.1061477659
AG      7.2060592091     0.8325155153     8.1073118097
AG     10.1273311782     5.8915280394     8.1001208770
AG      1.3511688514     0.8505856748     8.1027757510
AG      7.1321427416    11.0340219723     8.1755992867
AG     13.0524939344     0.8621979574     8.1247749279
AG      2.8215269172     3.3454577172     8.1149262523
AG      5.7342136835     8.4413414089     8.1154029727
AG      4.2836726410     0.8390018896     8.1195935363
AG      8.6611681264     8.3812981622     8.1774034598
AG     10.1384359711     0.8478238986     8.1132904407
AG     11.6036551357     3.3651394278     8.0866765817
AG     11.6014045729     8.4318259218     8.1224952918
AG     13.0671122014    10.9655385955     8.1251758406
AG     13.0658672331     5.8843669727     8.1073102416
AG     15.9921882701    10.9708579302     8.1084064990
AG     15.9962985263     5.8701034511     8.1250910304
AG     17.4580783110     8.4278793222     8.1209170979
AG     10.1799012440    11.0148254741     8.1837399236
AG     14.5261929420     3.3527544560     8.1239143304
AG     18.8984409976    10.9896742949     8.1365648526
AG     14.5255053794     8.4166260559     8.1243501191
O       8.6437720882    10.1426180986     9.6993160180
H       8.6693712004    10.1371757143    10.6715335556
124
Step 2 | ATOMIC_POSITIONS (angstrom) | Cartesian Angstrom
NI      1.2254504230     0.7101865830     1.4556095020
NI      2.4444040200     2.8214761450     1.4556095020
NI      3.6633576180     4.9327657080     1.4556095020
NI      4.8823112150     7.0440552710     1.4556095020
NI      6.1012648120     9.1553448320     1.4556095020
NI      7.3202184090    11.2666343950     1.4556095020
NI      3.6633576170     0.7101865830     1.4556095020
NI      4.8823112140     2.8214761450     1.4556095020
NI      6.1012648110     4.9327657080     1.4556095020
NI      7.3202184090     7.0440552710     1.4556095020
NI      8.5391720050     9.1553448320     1.4556095020
NI      9.7581256030    11.2666343950     1.4556095020
NI      6.1012648120     0.7101865830     1.4556095020
NI      7.3202184090     2.8214761450     1.4556095020
NI      8.5391720060     4.9327657080     1.4556095020
NI      9.7581256040     7.0440552710     1.4556095020
NI     10.9770792000     9.1553448320     1.4556095020
NI     12.1960327980    11.2666343950     1.4556095020
NI      8.5391720070     0.7101865830     1.4556095020
NI      9.7581256040     2.8214761450     1.4556095020
NI     10.9770792010     4.9327657080     1.4556095020
NI     12.1960327990     7.0440552710     1.4556095020
NI     13.4149863960     9.1553448320     1.4556095020
NI     14.6339399930    11.2666343950     1.4556095020
NI     10.9770792000     0.7101865830     1.4556095020
NI     12.1960327970     2.8214761450     1.4556095020
NI     13.4149863950     4.9327657080     1.4556095020
NI     14.6339399920     7.0440552710     1.4556095020
NI     15.8528935890     9.1553448320     1.4556095020
NI     17.0718471870    11.2666343950     1.4556095020
NI     13.4149863960     0.7101865830     1.4556095020
NI     14.6339399920     2.8214761450     1.4556095020
NI     15.8528935900     4.9327657080     1.4556095020
NI     17.0718471870     7.0440552710     1.4556095020
NI     18.2908007840     9.1553448320     1.4556095020
NI     19.5097543820    11.2666343950     1.4556095020
NI     13.4531339407     7.7631238181     3.4065925300
NI     14.6464072300     9.8309087349     3.3951706412
NI     15.8392700241     7.7659119153     3.3940263394
NI     12.2440258088     9.8360869464     3.4412063010
NI     14.6437797165     5.6888607276     3.4217631110
NI     17.0349107040     9.8323337274     3.4123302541
NI     11.0256707807     7.7536391757     3.4570448180
NI     13.4419953299    11.9233528236     3.4368580530
NI     12.2339034413     5.6738635028     3.4378628806
NI     15.8434530530    11.9186558538     3.4283428831
NI     17.0463682057     5.6818554952     3.4328335914
NI     18.2412154784     7.7583917324     3.4256591048
NI      9.7911177148     9.8442857386     3.4773085010
NI     11.0140206831    11.9454124264     3.4625598199
NI     13.4257292802     3.5683775406     3.4610002129
NI     18.2559110055    11.9334094053     3.4521877050
NI     15.8506785776     3.5737024909     3.4551519691
NI     19.4640125834     9.8395544574     3.4612995089
NI      4.8468596023     5.6614141399     3.4508033011
NI      7.3273484751     1.3735579820     3.4580675549
NI      9.7879646532     5.6535335714     3.4703898002
NI      3.6531941821     3.5540644570     3.4717500717
NI      6.0678958105     7.7478566232     3.4777881647
NI      4.9007351213     1.3925268535     3.4771996224
NI      8.5542759842     7.7464202020     3.4790637933
NI      9.7456763881     1.3827315559     3.4686054411
NI     10.9897974177     3.5419926503     3.4747978978
NI      2.4581825800     1.4205702168     3.4915139028
NI      7.3101907424     9.8458357022     3.4860105047
NI     12.1824646754     1.4108669962     3.4823017322
NI      6.0955865412     3.5243402608     3.4811588327
NI      7.3121392205     5.6457958250     3.4854611792
NI      8.5436617117     3.5167836023     3.4899346956
NI      8.5498448617    11.9591145966     3.4912142844
NI     14.6308787003     1.4297915163     3.4959893095
NI     20.7016009461    11.9552056958     3.4791299717
AG     -0.1000757485    -0.0242821050     5.7909461302
AG      5.7806986617     5.0385852412     5.7719981322
AG      7.2039603281     2.5406458692     5.7742088425
AG      8.6560990696     5.0569135952     5.7677544339
AG      1.3524041482     2.4717251222     5.7795420346
AG      5.8051998698    10.1628589526     5.8226303135
AG      2.7767614168    -0.0220501628     5.8015289329
AG      8.6434804942    10.1520294889     5.8433049239
AG     11.6297018719     0.0198402823     5.8037678461
AG     13.0694703694     2.4895951120     5.7866848197
AG      4.2735131560     2.4975451109     5.7935866121
AG      7.2380934494     7.6188697923     5.8201629109
AG     10.1312469088     2.5392255769     5.7841916940
AG      2.8565408475     4.9919181665     5.8206173886
AG      4.3551164761     7.5753901457     5.8198473982
AG      5.7108540653     0.0194679549     5.8150472187
AG     10.0622530232     7.6165289693     5.8314507862
AG      8.6817457564     0.0427212028     5.8177459839
AG     11.5485737444     5.0374385543     5.7975983205
AG     11.5031710540    10.1669525079     5.8407192838
AG     14.5146476458     4.9862338162     5.8259963121
AG     17.5138956400    10.1478793666     5.8403733752
AG     12.9919548015     7.5799334660     5.8437626676
AG     14.5021766247    10.1410356721     5.8518809683
AG     16.0069911984     7.5507785845     5.8591926943
AG      5.7452535601     3.3579850865     8.0894274622
AG      7.1962808305     5.8876192485     8.0942077669
AG      8.6665974707     3.3635300099     8.0831206361
AG      4.2920196889     5.8869500524     8.1061437859
AG      7.2059617036     0.8327755233     8.1071030642
AG     10.1279259179     5.8908970845     8.1005422058
AG      1.3511180354     0.8505492707     8.1030017447
AG      7.1325630041    11.0336419007     8.1754767957
AG     13.0524293211     0.8619173344     8.1244329701
AG      2.8213269702     3.3455153665     8.1150387716
AG      5.7340646936     8.4414000952     8.1152805826
AG      4.2834888584     0.8393241373     8.1195718490
AG      8.6612083439     8.3807199933     8.1776664461
AG     10.1383719155     0.8476191185     8.1130250594
AG     11.6032006524     3.3654873753     8.0873318897
AG     11.6012860103     8.4317241343     8.1223824263
AG     13.0670674764    10.9657228946     8.1253307855
AG     13.0652248682     5.8842776503     8.1076198962
AG     15.9920804482    10.9709542590     8.1085193887
AG     15.9961518487     5.8703461062     8.1249882736
AG     17.4580435987     8.4279872115     8.1208924895
AG     10.1799990840    11.0148017785     8.1836373347
AG     14.5263129138     3.3526352989     8.1235953374
AG     18.8984287666    10.9894932189     8.1364445228
AG     14.5255680928     8.4169310451     8.1242010686
O       8.6443100010    10.1423277811     9.6989416092
H       8.6690497581    10.1372433439    10.6713614003
124
Step 3 | ATOMIC_POSITIONS (angstrom) | Cartesian Angstrom
NI      1.2254504230     0.7101865830     1.4556095020
NI      2.4444040200     2.8214761450     1.4556095020
NI      3.6633576180     4.9327657080     1.4556095020
NI      4.8823112150     7.0440552710     1.4556095020
NI      6.1012648120     9.1553448320     1.4556095020
NI      7.3202184090    11.2666343950     1.4556095020
NI      3.6633576170     0.7101865830     1.4556095020
NI      4.8823112140     2.8214761450     1.4556095020
NI      6.1012648110     4.9327657080     1.4556095020
NI      7.3202184090     7.0440552710     1.4556095020
NI      8.5391720050     9.1553448320     1.4556095020
NI      9.7581256030    11.2666343950     1.4556095020
NI      6.1012648120     0.7101865830     1.4556095020
NI      7.3202184090     2.8214761450     1.4556095020
NI      8.5391720060     4.9327657080     1.4556095020
NI      9.7581256040     7.0440552710     1.4556095020
NI     10.9770792000     9.1553448320     1.4556095020
NI     12.1960327980    11.2666343950     1.4556095020
NI      8.5391720070     0.7101865830     1.4556095020
NI      9.7581256040     2.8214761450     1.4556095020
NI     10.9770792010     4.9327657080     1.4556095020
NI     12.1960327990     7.0440552710     1.4556095020
NI     13.4149863960     9.1553448320     1.4556095020
NI     14.6339399930    11.2666343950     1.4556095020
NI     10.9770792000     0.7101865830     1.4556095020
NI     12.1960327970     2.8214761450     1.4556095020
NI     13.4149863950     4.9327657080     1.4556095020
NI     14.6339399920     7.0440552710     1.4556095020
NI     15.8528935890     9.1553448320     1.4556095020
NI     17.0718471870    11.2666343950     1.4556095020
NI     13.4149863960     0.7101865830     1.4556095020
NI     14.6339399920     2.8214761450     1.4556095020
NI     15.8528935900     4.9327657080     1.4556095020
NI     17.0718471870     7.0440552710     1.4556095020
NI     18.2908007840     9.1553448320     1.4556095020
NI     19.5097543820    11.2666343950     1.4556095020
NI     13.4531224225     7.7630978966     3.4064256441
NI     14.6464111749     9.8309206600     3.3953185001
NI     15.8392435556     7.7660010617     3.3940262285
NI     12.2440223174     9.8360472340     3.4413255384
NI     14.6438241786     5.6888759937     3.4218781232
NI     17.0349377952     9.8323739417     3.4122869561
NI     11.0256886973     7.7535312741     3.4568823594
NI     13.4419883302    11.9234376212     3.4368868532
NI     12.2339228224     5.6738727211     3.4375025650
NI     15.8434071250    11.9186171045     3.4282431230
NI     17.0463651719     5.6818778489     3.4327305959
NI     18.2411993937     7.7584385286     3.4256271862
NI      9.7910840813     9.8444135360     3.4771710690
NI     11.0140779319    11.9453612414     3.4626413423
NI     13.4257975388     3.5682732394     3.4608456984
NI     18.2558664486    11.9334767739     3.4521080636
NI     15.8506487647     3.5737599828     3.4551337213
NI     19.4640148571     9.8396680401     3.4611530422
NI      4.8468111003     5.6614084834     3.4507686813
NI      7.3272918103     1.3734976780     3.4581064665
NI      9.7878760038     5.6533631262     3.4705673000
NI      3.6531553823     3.5540089825     3.4718996686
NI      6.0678618475     7.7479075470     3.4774979923
NI      4.9007036378     1.3926016594     3.4772135240
NI      8.5542963568     7.7463862664     3.4791237078
NI      9.7455062114     1.3825761235     3.4685567155
NI     10.9897317490     3.5418976725     3.4749173102
NI      2.4580652465     1.4205273753     3.4913729153
NI      7.3102532169     9.8458317192     3.4861495193
NI     12.1823870317     1.4109003887     3.4821653794
NI      6.0955818068     3.5243544052     3.4810368843
NI      7.3120042452     5.6457956411     3.4856320627
NI      8.5435935133     3.5165786601     3.4898081421
NI      8.5498222191    11.9592413759     3.4913619656
NI     14.6308050623     1.4298088035     3.4960976878
NI     20.7016096367    11.9552244920     3.4791494853
AG     -0.0997862154    -0.0244112717     5.7909907563
AG      5.7804654674     5.0387763127     5.7720726489
AG      7.2041262926     2.5410570242     5.7741602312
AG      8.6557454698     5.0567018879     5.7675550750
AG      1.3525402604     2.4716663949     5.7795029801
AG      5.8051688457    10.1629634436     5.8224438994
AG      2.7768349600    -0.0220131183     5.8016615910
AG      8.6436694844    10.1518258238     5.8436048351
AG     11.6300773859     0.0197150560     5.8034796686
AG     13.0692431575     2.4897316914     5.7868788830
AG      4.2734264912     2.4977811208     5.7936111529
AG      7.2379840674     7.6186401058     5.8201143772
AG     10.1312798715     2.5390128529     5.7842857575
AG      2.8564100043     4.9920677073     5.8205539492
AG      4.3552081405     7.5754003846     5.8197899939
AG      5.7110255157     0.0200520405     5.8150906482
AG     10.0620751585     7.6169260812     5.8312010173
AG      8.6819855841     0.0427326994     5.8176206171
AG     11.5491672132     5.0370309360     5.7970225440
AG     11.5034897117    10.1668168830     5.8410914872
AG     14.5141661465     4.9862836613     5.8261746114
AG     17.5135850034    10.1480403993     5.8403288845
AG     12.9922633120     7.5795915957     5.8436538182
AG     14.5018349264    10.1416640756     5.8519264086
AG     16.0070595052     7.5509202073     5.8590995318
AG      5.7449188697     3.3582232996     8.0891673322
AG      7.1965823501     5.8874614340     8.0946387776
AG      8.6668791982     3.3643272056     8.0837339413
AG      4.2916864353     5.8869069193     8.1061424580
AG      7.2058177909     0.8332097647     8.1067706098
AG     10.1288393319     5.8899529248     8.1011465620
AG      1.3510288223     0.8504873586     8.1033622561
AG      7.1331956331    11.0330490423     8.1752587255
AG     13.0523289781     0.8614727904     8.1239011516
AG      2.8209921873     3.3456219767     8.1152213910
AG      5.7338310791     8.4414899937     8.1150852107
AG      4.2831971198     0.8398266487     8.1195456974
AG      8.6612739086     8.3797521272     8.1780561995
AG     10.1382796957     0.8472978444     8.1126071911
AG     11.6025191123     3.3659725747     8.0883392245
AG     11.6011072957     8.4315504850     8.1221878191
AG     13.0669932355    10.9660381507     8.1255883207
AG     13.0642576609     5.8841506626     8.1081023027
AG     15.9919065155    10.9711196393     8.1087054449
AG     15.9958912703     5.8707362383     8.1248203600
AG     17.4579880001     8.4281668818     8.1208534047
AG     10.1801950228    11.0147940668     8.1834595978
AG     14.5264826963     3.3524427973     8.1230985083
AG     18.8984269332    10.9892036786     8.1362537083
AG     14.5256560986     8.4174107953     8.1239574181
O       8.6451320704    10.1418685914     9.6985534586
H       8.6685392321    10.1373508481    10.6709487821
124
Step 4 | ATOMIC_POSITIONS (angstrom) | Cartesian Angstrom
NI      1.2254504230     0.7101865830     1.4556095020
NI      2.4444040200     2.8214761450     1.4556095020
NI      3.6633576180     4.9327657080     1.4556095020
NI      4.8823112150     7.0440552710     1.4556095020
NI      6.1012648120     9.1553448320     1.4556095020
NI      7.3202184090    11.2666343950     1.4556095020
NI      3.6633576170     0.7101865830     1.4556095020
NI      4.8823112140     2.8214761450     1.4556095020
NI      6.1012648110     4.9327657080     1.4556095020
NI      7.3202184090     7.0440552710     1.4556095020
NI      8.5391720050     9.1553448320     1.4556095020
NI      9.7581256030    11.2666343950     1.4556095020
NI      6.1012648120     0.7101865830     1.4556095020
NI      7.3202184090     2.8214761450     1.4556095020
NI      8.5391720060     4.9327657080     1.4556095020
NI      9.7581256040     7.0440552710     1.4556095020
NI     10.9770792000     9.1553448320     1.4556095020
NI     12.1960327980    11.2666343950     1.4556095020
NI      8.5391720070     0.7101865830     1.4556095020
NI      9.7581256040     2.8214761450     1.4556095020
NI     10.9770792010     4.9327657080     1.4556095020
NI     12.1960327990     7.0440552710     1.4556095020
NI     13.4149863960     9.1553448320     1.4556095020
NI     14.6339399930    11.2666343950     1.4556095020
NI     10.9770792000     0.7101865830     1.4556095020
NI     12.1960327970     2.8214761450     1.4556095020
NI     13.4149863950     4.9327657080     1.4556095020
NI     14.6339399920     7.0440552710     1.4556095020
NI     15.8528935890     9.1553448320     1.4556095020
NI     17.0718471870    11.2666343950     1.4556095020
NI     13.4149863960     0.7101865830     1.4556095020
NI     14.6339399920     2.8214761450     1.4556095020
NI     15.8528935900     4.9327657080     1.4556095020
NI     17.0718471870     7.0440552710     1.4556095020
NI     18.2908007840     9.1553448320     1.4556095020
NI     19.5097543820    11.2666343950     1.4556095020
NI     13.4531010037     7.7630729717     3.4061783641
NI     14.6464076794     9.8309200044     3.3955424347
NI     15.8392005087     7.7661249609     3.3940117913
NI     12.2440120361     9.8359854817     3.4415137131
NI     14.6438956568     5.6889018047     3.4220655276
NI     17.0349692359     9.8324263014     3.4122203418
NI     11.0257018225     7.7533782393     3.4566405775
NI     13.4419564822    11.9235363032     3.4369449358
NI     12.2339480970     5.6738769916     3.4369361093
NI     15.8433217578    11.9185489201     3.4281000706
NI     17.0463544308     5.6819202201     3.4325752867
NI     18.2411687734     7.7585094408     3.4255920779
NI      9.7910408540     9.8445852826     3.4769818453
NI     11.0141630682    11.9452911490     3.4627783451
NI     13.4258838846     3.5681276380     3.4606384094
NI     18.2557934832    11.9335659299     3.4519868146
NI     15.8506088590     3.5738476832     3.4551166952
NI     19.4640168285     9.8398286031     3.4609407672
NI      4.8467294379     5.6614013578     3.4507161245
NI      7.3271852411     1.3734089645     3.4581781866
NI      9.7877475897     5.6531172994     3.4708159261
NI      3.6530861240     3.5539446289     3.4721110430
NI      6.0678205864     7.7479860219     3.4770807500
NI      4.9006371495     1.3927114324     3.4772402424
NI      8.5543296839     7.7463324252     3.4791972004
NI      9.7452610648     1.3823616241     3.4684980588
NI     10.9896268070     3.5417503899     3.4750885007
NI      2.4579007548     1.4204667855     3.4911722794
NI      7.3103595473     9.8458302918     3.4863686620
NI     12.1822722128     1.4109576512     3.4819745453
NI      6.0955587126     3.5243806005     3.4808584754
NI      7.3118043239     5.6457952655     3.4858694869
NI      8.5434903643     3.5162863716     3.4896084113
NI      8.5497992802    11.9594116892     3.4915825630
NI     14.6306913765     1.4298385681     3.4962752443
NI     20.7016258598    11.9552608176     3.4791888442
AG     -0.0993147222    -0.0246075999     5.7910629579
AG      5.7800907525     5.0390948890     5.7721997071
AG      7.2044098263     2.5417146824     5.7741039691
AG      8.6552709965     5.0564087226     5.7673100407
AG      1.3527403879     2.4715754960     5.7794329822
AG      5.8051346532    10.1631122407     5.8221420376
AG      2.7769763901    -0.0219682827     5.8018595004
AG      8.6439798325    10.1514806722     5.8440519478
AG     11.6306752754     0.0195064468     5.8030057069
AG     13.0688663228     2.4899369892     5.7871853600
AG      4.2732840458     2.4981660390     5.7936426167
AG      7.2378044671     7.6182768555     5.8200514304
AG     10.1313360718     2.5386986067     5.7844754534
AG      2.8561662727     4.9923054533     5.8204588046
AG      4.3553289842     7.5754348209     5.8196840606
AG      5.7112790819     0.0209858033     5.8151462895
AG     10.0618164767     7.6174471920     5.8308663311
AG      8.6823497025     0.0427568304     5.8174046056
AG     11.5500226458     5.0363820450     5.7961689773
AG     11.5040211088    10.1666250734     5.8416351072
AG     14.5134209575     4.9863849011     5.8264590067
AG     17.5130785758    10.1482970678     5.8402569653
AG     12.9927570587     7.5790454112     5.8434990605
AG     14.5012787026    10.1426829440     5.8519951305
AG     16.0071655286     7.5511639491     5.8589455530
AG      5.7444063424     3.3586189522     8.0887649420
AG      7.1970386592     5.8872119283     8.0953014585
AG      8.6672904509     3.3655272860     8.0846838895
AG      4.2911622231     5.8868610118     8.1061412820
AG      7.2056099840     0.8339413273     8.1062394830
AG     10.1302417421     5.8885361961     8.1020014868
AG      1.3508806270     0.8503777819     8.1039231464
AG      7.1341808766    11.0320946836     8.1748994453
AG     13.0521678904     0.8607786657     8.1230657244
AG      2.8204412459     3.3458226912     8.1155010131
AG      5.7334832839     8.4416072225     8.1147719553
AG      4.2827315151     0.8406167027     8.1195100409
AG      8.6613873226     8.3781452391     8.1786556212
AG     10.1381419526     0.8468169667     8.1119491168
AG     11.6014952176     3.3666336289     8.0898977155
AG     11.6008377272     8.4312571550     8.1218670585
AG     13.0668693223    10.9665752793     8.1260074785
AG     13.0627951705     5.8839702337     8.1088627961
AG     15.9916246874    10.9713996403     8.1089982780
AG     15.9954242977     5.8713579083     8.1245452474
AG     17.4578913166     8.4284551357     8.1207831289
AG     10.1805385472    11.0148158671     8.1831783218
AG     14.5266964267     3.3521424768     8.1223286205
AG     18.8984488595    10.9887459670     8.1359406085
AG     14.5257588224     8.4181604213     8.1235540857
O       8.6464456626    10.1411015848     9.6978823100
H       8.6677122569    10.1375263230    10.6703410566
124
Step 5 | ATOMIC_POSITIONS (angstrom) | Cartesian Angstrom
NI      1.2254504230     0.7101865830     1.4556095020
NI      2.4444040200     2.8214761450     1.4556095020
NI      3.6633576180     4.9327657080     1.4556095020
NI      4.8823112150     7.0440552710     1.4556095020
NI      6.1012648120     9.1553448320     1.4556095020
NI      7.3202184090    11.2666343950     1.4556095020
NI      3.6633576170     0.7101865830     1.4556095020
NI      4.8823112140     2.8214761450     1.4556095020
NI      6.1012648110     4.9327657080     1.4556095020
NI      7.3202184090     7.0440552710     1.4556095020
NI      8.5391720050     9.1553448320     1.4556095020
NI      9.7581256030    11.2666343950     1.4556095020
NI      6.1012648120     0.7101865830     1.4556095020
NI      7.3202184090     2.8214761450     1.4556095020
NI      8.5391720060     4.9327657080     1.4556095020
NI      9.7581256040     7.0440552710     1.4556095020
NI     10.9770792000     9.1553448320     1.4556095020
NI     12.1960327980    11.2666343950     1.4556095020
NI      8.5391720070     0.7101865830     1.4556095020
NI      9.7581256040     2.8214761450     1.4556095020
NI     10.9770792010     4.9327657080     1.4556095020
NI     12.1960327990     7.0440552710     1.4556095020
NI     13.4149863960     9.1553448320     1.4556095020
NI     14.6339399930    11.2666343950     1.4556095020
NI     10.9770792000     0.7101865830     1.4556095020
NI     12.1960327970     2.8214761450     1.4556095020
NI     13.4149863950     4.9327657080     1.4556095020
NI     14.6339399920     7.0440552710     1.4556095020
NI     15.8528935890     9.1553448320     1.4556095020
NI     17.0718471870    11.2666343950     1.4556095020
NI     13.4149863960     0.7101865830     1.4556095020
NI     14.6339399920     2.8214761450     1.4556095020
NI     15.8528935900     4.9327657080     1.4556095020
NI     17.0718471870     7.0440552710     1.4556095020
NI     18.2908007840     9.1553448320     1.4556095020
NI     19.5097543820    11.2666343950     1.4556095020
NI     13.4530568439     7.7630549730     3.4058297456
NI     14.6464025528     9.8309083661     3.3958789969
NI     15.8391438951     7.7663004745     3.3939622057
NI     12.2439779918     9.8359018856     3.4418064458
NI     14.6439996575     5.6889294494     3.4223711623
NI     17.0350235861     9.8325178192     3.4120970347
NI     11.0256854705     7.7531700675     3.4563011453