124
Step 1 | ATOMIC_POSITIONS (angstrom) | Cartesian Angstrom
NI      1.2254504230     0.7101865830     1.4556095020
NI      2.4444040200     2.8214761450     1.4556095020
NI      3.6633576180     4.9327657080     1.4556095020
NI      4.8823112150     7.0440552710     1.4556095020
NI      6.1012648120     9.1553448320     1.4556095020
NI      7.3202184090    11.2666343950     1.4556095020
NI      3.6633576170     0.7101865830     1.4556095020
NI      4.8823112140     2.8214761450     1.4556095020
NI      6.1012648110     4.9327657080     1.4556095020
NI      7.3202184090     7.0440552710     1.4556095020
NI      8.5391720050     9.1553448320     1.4556095020
NI      9.7581256030    11.2666343950     1.4556095020
NI      6.1012648120     0.7101865830     1.4556095020
NI      7.3202184090     2.8214761450     1.4556095020
NI      8.5391720060     4.9327657080     1.4556095020
NI      9.7581256040     7.0440552710     1.4556095020
NI     10.9770792000     9.1553448320     1.4556095020
NI     12.1960327980    11.2666343950     1.4556095020
NI      8.5391720070     0.7101865830     1.4556095020
NI      9.7581256040     2.8214761450     1.4556095020
NI     10.9770792010     4.9327657080     1.4556095020
NI     12.1960327990     7.0440552710     1.4556095020
NI     13.4149863960     9.1553448320     1.4556095020
NI     14.6339399930    11.2666343950     1.4556095020
NI     10.9770792000     0.7101865830     1.4556095020
NI     12.1960327970     2.8214761450     1.4556095020
NI     13.4149863950     4.9327657080     1.4556095020
NI     14.6339399920     7.0440552710     1.4556095020
NI     15.8528935890     9.1553448320     1.4556095020
NI     17.0718471870    11.2666343950     1.4556095020
NI     13.4149863960     0.7101865830     1.4556095020
NI     14.6339399920     2.8214761450     1.4556095020
NI     15.8528935900     4.9327657080     1.4556095020
NI     17.0718471870     7.0440552710     1.4556095020
NI     18.2908007840     9.1553448320     1.4556095020
NI     19.5097543820    11.2666343950     1.4556095020
NI     13.4528749105     7.7633383784     3.4073713921
NI     14.6464999460     9.8310652084     3.3946178447
NI     15.8399315092     7.7654863458     3.3939540463
NI     12.2437541249     9.8366231485     3.4413556798
NI     14.6436917224     5.6885761473     3.4216587057
NI     17.0346189340     9.8320730924     3.4123876069
NI     11.0254857381     7.7542253336     3.4573854478
NI     13.4415699490    11.9226171989     3.4370150160
NI     12.2339342613     5.6736849606     3.4385604549
NI     15.8435398898    11.9186155990     3.4289699761
NI     17.0464059663     5.6819405683     3.4332908252
NI     18.2410971821     7.7581637457     3.4261402471
NI      9.7911947546     9.8435453729     3.4780630722
NI     11.0139855216    11.9458685984     3.4624897492
NI     13.4250592465     3.5688690162     3.4617801981
NI     18.2562152541    11.9330348688     3.4524542917
NI     15.8510502811     3.5733652930     3.4554623234
NI     19.4640350620     9.8391233081     3.4619210772
NI      4.8469198746     5.6613640297     3.4508675728
NI      7.3273659698     1.3739028702     3.4579876284
NI      9.7884122592     5.6543598793     3.4693407644
NI      3.6532628536     3.5544339888     3.4709310578
NI      6.0682620638     7.7476848070     3.4791158119
NI      4.9005034004     1.3921293937     3.4772047867
NI      8.5541232644     7.7466068846     3.4785001231
NI      9.7466441899     1.3836353243     3.4688038815
NI     10.9900734980     3.5421084829     3.4740864098
NI      2.4590294035     1.4208410186     3.4921487912
NI      7.3101186643     9.8459545855     3.4855175930
NI     12.1827341899     1.4107758029     3.4829049001
NI      6.0953777106     3.5243084063     3.4815783836
NI      7.3125594046     5.6459330378     3.4843514593
NI      8.5440094967     3.5175682109     3.4902011890
NI      8.5499688709    11.9582148465     3.4905181908
NI     14.6309602378     1.4297097458     3.4956062114
NI     20.7014859895    11.9552394310     3.4789977964
AG     -0.1010262334    -0.0237830506     5.7909033488
AG      5.7813287347     5.0380831103     5.7719632860
AG      7.2036194799     2.5391934162     5.7747880651
AG      8.6583767641     5.0581067258     5.7695672372
AG      1.3518639911     2.4720536095     5.7794504180
AG      5.8054553239    10.1623871348     5.8232300447
AG      2.7768873479    -0.0223626484     5.8009076633
AG      8.6427835306    10.1525828116     5.8419321579
AG     11.6285218377     0.0202314221     5.8045669597
AG     13.0699792090     2.4889660231     5.7861594770
AG      4.2737743773     2.4967687310     5.7934222890
AG      7.2384508324     7.6196540936     5.8206500877
AG     10.1312149264     2.5402348718     5.7844617687
AG      2.8566674884     4.9914146102     5.8208321002
AG      4.3545674093     7.5754999270     5.8196916419
AG      5.7100806817     0.0174700492     5.8146759379
AG     10.0627921324     7.6139640292     5.8335744373
AG      8.6807639989     0.0426741001     5.8178955375
AG     11.5454267372     5.0387062357     5.8005950355
AG     11.5025149242    10.1677230826     5.8386824240
AG     14.5165494813     4.9863493607     5.8253556806
AG     17.5148272253    10.1473114636     5.8405002497
AG     12.9909813245     7.5810923882     5.8444673757
AG     14.5031963657    10.1391246146     5.8516458417
AG     16.0067859866     7.5503794385     5.8594787305
AG      5.7466232416     3.3573122246     8.0903681149
AG      7.1952476997     5.8882791202     8.0925195804
AG      8.6653292392     3.3602839821     8.0807303058
AG      4.2932490048     5.8872266786     8.1062131106
AG      7.2066357789     0.8317775940     8.1081826375
AG     10.1243991382     5.8949954020     8.0971476194
AG      1.3513512458     0.8506212524     8.1018152198
AG      7.1300778845    11.0356399719     8.1760094347
AG     13.0527032725     0.8636100526     8.1262360162
AG      2.8223049651     3.3454276668     8.1144065301
AG      5.7350797613     8.4408991931     8.1159194483
AG      4.2844044260     0.8374367376     8.1197452145
AG      8.6611396189     8.3828789298     8.1759093327
AG     10.1387553107     0.8490869057     8.1144812219
AG     11.6059248754     3.3628707475     8.0834993032
AG     11.6019573478     8.4319268511     8.1229178528
AG     13.0672106813    10.9649771262     8.1246110158
AG     13.0690671489     5.8850026106     8.1059575812
AG     15.9926001422    10.9705145303     8.1079522357
AG     15.9965309811     5.8690646582     8.1254501143
AG     17.4581635165     8.4274078342     8.1209954948
AG     10.1797789934    11.0153002484     8.1842393640
AG     14.5252648220     3.3533075821     8.1254372769
AG     18.8987221617    10.9904599758     8.1370694735
AG     14.5249387373     8.4151059738     8.1248877489
O       8.6415929033    10.1436908178     9.7003765343
H       8.6706470621    10.1369103720    10.6730608855
124
Step 2 | ATOMIC_POSITIONS (angstrom) | Cartesian Angstrom
NI      1.2254504230     0.7101865830     1.4556095020
NI      2.4444040200     2.8214761450     1.4556095020
NI      3.6633576180     4.9327657080     1.4556095020
NI      4.8823112150     7.0440552710     1.4556095020
NI      6.1012648120     9.1553448320     1.4556095020
NI      7.3202184090    11.2666343950     1.4556095020
NI      3.6633576170     0.7101865830     1.4556095020
NI      4.8823112140     2.8214761450     1.4556095020
NI      6.1012648110     4.9327657080     1.4556095020
NI      7.3202184090     7.0440552710     1.4556095020
NI      8.5391720050     9.1553448320     1.4556095020
NI      9.7581256030    11.2666343950     1.4556095020
NI      6.1012648120     0.7101865830     1.4556095020
NI      7.3202184090     2.8214761450     1.4556095020
NI      8.5391720060     4.9327657080     1.4556095020
NI      9.7581256040     7.0440552710     1.4556095020
NI     10.9770792000     9.1553448320     1.4556095020
NI     12.1960327980    11.2666343950     1.4556095020
NI      8.5391720070     0.7101865830     1.4556095020
NI      9.7581256040     2.8214761450     1.4556095020
NI     10.9770792010     4.9327657080     1.4556095020
NI     12.1960327990     7.0440552710     1.4556095020
NI     13.4149863960     9.1553448320     1.4556095020
NI     14.6339399930    11.2666343950     1.4556095020
NI     10.9770792000     0.7101865830     1.4556095020
NI     12.1960327970     2.8214761450     1.4556095020
NI     13.4149863950     4.9327657080     1.4556095020
NI     14.6339399920     7.0440552710     1.4556095020
NI     15.8528935890     9.1553448320     1.4556095020
NI     17.0718471870    11.2666343950     1.4556095020
NI     13.4149863960     0.7101865830     1.4556095020
NI     14.6339399920     2.8214761450     1.4556095020
NI     15.8528935900     4.9327657080     1.4556095020
NI     17.0718471870     7.0440552710     1.4556095020
NI     18.2908007840     9.1553448320     1.4556095020
NI     19.5097543820    11.2666343950     1.4556095020
NI     13.4529893595     7.7632594523     3.4071321820
NI     14.6464546140     9.8309721445     3.3947440275
NI     15.8396554585     7.7655943154     3.3939603760
NI     12.2438769175     9.8363990278     3.4411955976
NI     14.6436920058     5.6886919481     3.4216166543
NI     17.0347169150     9.8321588954     3.4123754919
NI     11.0255724707     7.7540521889     3.4573476646
NI     13.4417616046    11.9228507781     3.4369191395
NI     12.2339299432     5.6737531863     3.4384876525
NI     15.8435355766    11.9186568964     3.4287533493
NI     17.0463752442     5.6819034699     3.4331414093
NI     18.2411496722     7.7582272645     3.4259388753
NI      9.7912041824     9.8437517013     3.4778370061
NI     11.0139677777    11.9457053927     3.4624601994
NI     13.4252871455     3.5687479833     3.4615505756
NI     18.2561004897    11.9331515811     3.4523779820
NI     15.8508987652     3.5734846952     3.4553284195
NI     19.4640091262     9.8392229613     3.4617389217
NI      4.8469049166     5.6614019736     3.4508656600
NI      7.3274010476     1.3737817718     3.4580066252
NI      9.7883095746     5.6541282767     3.4696830424
NI      3.6532407368     3.5543397751     3.4711773807
NI      6.0681141422     7.7477278474     3.4787430196
NI      4.9006195719     1.3922428149     3.4771953946
NI      8.5541838469     7.7465550417     3.4787100637
NI      9.7463602541     1.3833494198     3.4687562861
NI     10.9900172884     3.5421115202     3.4743150199
NI      2.4587428403     1.4207635298     3.4919666252
NI      7.3101067241     9.8459061045     3.4856462674
NI     12.1826659452     1.4107996989     3.4827323298
NI      6.0954597597     3.5243136395     3.4815000998
NI      7.3124614150     5.6458778413     3.4847340633
NI      8.5439174494     3.5173606730     3.4901851413
NI      8.5499362790    11.9585070528     3.4907186898
NI     14.6309591919     1.4297527717     3.4956974764
NI     20.7015105575    11.9552290233     3.4790398593
AG     -0.1007903439    -0.0239126678     5.7909011903
AG      5.7812003674     5.0381861057     5.7719365979
AG      7.2036684810     2.5395625940     5.7745748287
AG      8.6576427106     5.0577378926     5.7689279118
AG      1.3520018676     2.4719463626     5.7795200798
AG      5.8053702326    10.1625199831     5.8230964832
AG      2.7767899773    -0.0222578580     5.8010995406
AG      8.6429741547    10.1524630425     5.8423373328
AG     11.6287923832     0.0201344280     5.8044011586
AG     13.0698998587     2.4891507203     5.7862606859
AG      4.2737138056     2.4969624769     5.7934828400
AG      7.2383598859     7.6194629629     5.8204775134
AG     10.1312100862     2.5399378904     5.7842982259
AG      2.8566802003     4.9915378897     5.8207882128
AG      4.3547372328     7.5754537829     5.8197983573
AG      5.7103021014     0.0179690380     5.8148118259
AG     10.0626892594     7.6147912901     5.8328256962
AG      8.6810329869     0.0426885255     5.8179041352
AG     11.5463937923     5.0384156376     5.7996730296
AG     11.5026021928    10.1674809175     5.8393255102
AG     14.5160342896     4.9862759216     5.8255210229
AG     17.5146144143    10.1474577297     5.8404788380
AG     12.9912106750     7.5808045605     5.8442315531
AG     14.5029673199    10.1395593114     5.8517236359
AG     16.0068269405     7.5504717871     5.8594126302
AG      5.7462445172     3.3574608564     8.0901323526
AG      7.1954914205     5.8880917014     8.0929766110
AG      8.6656872403     3.3611596565     8.0813798295
AG      4.2929263230     5.8871437783     8.1061846758
AG      7.2064429294     0.8319475041     8.1079253539
AG     10.1253307213     5.8938475831     8.0982160156
AG      1.3513047582     0.8506261979     8.1020917614
AG      7.1307397535    11.0351483457     8.1759007961
AG     13.0526497201     0.8631598232     8.1257956059
AG      2.8220848078     3.3454104986     8.1145608326
AG      5.7347933440     8.4410500869     8.1157633302
AG      4.2841908343     0.8379340993     8.1196892359
AG      8.6611325686     8.3825313594     8.1764135978
AG     10.1386510657     0.8486608090     8.1141179855
AG     11.6052006287     3.3636579466     8.0845149884
AG     11.6017857300     8.4319466545     8.1228061415
AG     13.0671918533    10.9651150930     8.1247642787
AG     13.0680431772     5.8847745638     8.1063739548
AG     15.9924837639    10.9706064169     8.1080782305
AG     15.9965125927     5.8693714860     8.1253535791
AG     17.4581432567     8.4275472855     8.1209724504
AG     10.1797710512    11.0151034122     8.1840810253
AG     14.5255902749     3.3531403483     8.1249607022
AG     18.8986046275    10.9902248650     8.1369130998
AG     14.5251416144     8.4155928229     8.1247370955
O       8.6422614193    10.1433698032     9.7001067680
H       8.6702676481    10.1369894825    10.6724683168
124
Step 3 | ATOMIC_POSITIONS (angstrom) | Cartesian Angstrom
NI      1.2254504230     0.7101865830     1.4556095020
NI      2.4444040200     2.8214761450     1.4556095020
NI      3.6633576180     4.9327657080     1.4556095020
NI      4.8823112150     7.0440552710     1.4556095020
NI      6.1012648120     9.1553448320     1.4556095020
NI      7.3202184090    11.2666343950     1.4556095020
NI      3.6633576170     0.7101865830     1.4556095020
NI      4.8823112140     2.8214761450     1.4556095020
NI      6.1012648110     4.9327657080     1.4556095020
NI      7.3202184090     7.0440552710     1.4556095020
NI      8.5391720050     9.1553448320     1.4556095020
NI      9.7581256030    11.2666343950     1.4556095020
NI      6.1012648120     0.7101865830     1.4556095020
NI      7.3202184090     2.8214761450     1.4556095020
NI      8.5391720060     4.9327657080     1.4556095020
NI      9.7581256040     7.0440552710     1.4556095020
NI     10.9770792000     9.1553448320     1.4556095020
NI     12.1960327980    11.2666343950     1.4556095020
NI      8.5391720070     0.7101865830     1.4556095020
NI      9.7581256040     2.8214761450     1.4556095020
NI     10.9770792010     4.9327657080     1.4556095020
NI     12.1960327990     7.0440552710     1.4556095020
NI     13.4149863960     9.1553448320     1.4556095020
NI     14.6339399930    11.2666343950     1.4556095020
NI     10.9770792000     0.7101865830     1.4556095020
NI     12.1960327970     2.8214761450     1.4556095020
NI     13.4149863950     4.9327657080     1.4556095020
NI     14.6339399920     7.0440552710     1.4556095020
NI     15.8528935890     9.1553448320     1.4556095020
NI     17.0718471870    11.2666343950     1.4556095020
NI     13.4149863960     0.7101865830     1.4556095020
NI     14.6339399920     2.8214761450     1.4556095020
NI     15.8528935900     4.9327657080     1.4556095020
NI     17.0718471870     7.0440552710     1.4556095020
NI     18.2908007840     9.1553448320     1.4556095020
NI     19.5097543820    11.2666343950     1.4556095020
NI     13.4531332174     7.7631632113     3.4067959566
NI     14.6463949159     9.8308826712     3.3949779706
NI     15.8393034266     7.7657941862     3.3940090151
NI     12.2440227769     9.8361304624     3.4410531983
NI     14.6437255412     5.6888437035     3.4216242509
NI     17.0348708607     9.8322813092     3.4123731934
NI     11.0256543668     7.7537798489     3.4572344570
NI     13.4419910879    11.9232129034     3.4368265251
NI     12.2338818713     5.6738529728     3.4382790015
NI     15.8435063950    11.9186949003     3.4284670927
NI     17.0463585607     5.6818467210     3.4329543214
NI     18.2412297589     7.7583373879     3.4257028392
NI      9.7911758040     9.8441085580     3.4774711552
NI     11.0139633519    11.9454543026     3.4624536125
NI     13.4256237328     3.5685103588     3.4611973617
NI     18.2559574631    11.9333286575     3.4522748416
NI     15.8507033147     3.5736517770     3.4551725796
NI     19.4640051678     9.8394061438     3.4614760781
NI      4.8468970898     5.6614448185     3.4508436284
NI      7.3274188611     1.3736105676     3.4580332297
NI      9.7881060268     5.6537536523     3.4701615747
NI      3.6532234917     3.5541568201     3.4715541091
NI      6.0679352027     7.7478087025     3.4781533785
NI      4.9007627231     1.3924177026     3.4771854532
NI      8.5542621807     7.7464758854     3.4789748586
NI      9.7459081930     1.3829215986     3.4686740811
NI     10.9898893746     3.5420947726     3.4746450279
NI      2.4583304430     1.4206218852     3.4916844328
NI      7.3101222940     9.8458330468     3.4858357787
NI     12.1825490109     1.4108371872     3.4824672726
NI      6.0955766437     3.5243238569     3.4813186787
NI      7.3122998937     5.6458164154     3.4852461643
NI      8.5437698647     3.5170249149     3.4900951665
NI      8.5498841641    11.9589355134     3.4910194846
NI     14.6309441276     1.4297836205     3.4958550597
NI     20.7015705675    11.9551904440     3.4791035936
AG     -0.1004120941    -0.0241222986     5.7909130769
AG      5.7809627462     5.0383764702     5.7719343697
AG      7.2037839747     2.5401538810     5.7743020781
AG      8.6566061995     5.0572067097     5.7680708550
AG      1.3522291979     2.4717989897     5.7795901462
AG      5.8052484423    10.1627214775     5.8228611765
AG      2.7766993746    -0.0221106017     5.8013754497
AG      8.6432647781    10.1522521894     5.8429372268
AG     11.6292633309     0.0199794656     5.8040999857
AG     13.0697228731     2.4894238503     5.7864664029
AG      4.2736087213     2.4972730966     5.7935615534
AG      7.2382171083     7.6191488854     5.8202496097
AG     10.1312165587     2.5394933473     5.7841259236
AG      2.8566604506     4.9917449727     5.8207023705
AG      4.3549856256     7.5753959901     5.8199072558
AG      5.7106343201     0.0187744491     5.8149908785
AG     10.0624852184     7.6159617603     5.8318173362
AG      8.6814514378     0.0427078869     5.8178842753
AG     11.5477931497     5.0379238942     5.7983358526
AG     11.5028202088    10.1671350413     5.8402431105
AG     14.5152369952     4.9861987319     5.8257927701
AG     17.5142491863    10.1476882568     5.8404296003
AG     12.9915967368     7.5803367500     5.8439087672
AG     14.5025693083    10.1403088459     5.8518272132
AG     16.0069070905     7.5506253689     5.8592995261
AG      5.7456636386     3.3577157659     8.0897518585
AG      7.1959069583     5.8878149872     8.0936859912
AG      8.6662286972     3.3625195735     8.0823741415
AG      4.2924174002     5.8870206006     8.1061543863
AG      7.2061504725     0.8322983374     8.1074981571
AG     10.1267986341     5.8921019213     8.0997270447
AG      1.3512146160     0.8506103931     8.1025760761
AG      7.1317832103    11.0343419259     8.1757213628
AG     13.0525483443     0.8624512793     8.1250782099
AG      2.8217020873     3.3454157967     8.1148243716
AG      5.7343570997     8.4412794258     8.1155145622
AG      4.2838305815     0.8387147667     8.1196165310
AG      8.6611376955     8.3817939246     8.1771828137
AG     10.1384911885     0.8480196792     8.1135292460
AG     11.6040645008     3.3648081904     8.0861014721
AG     11.6015094553     8.4319110319     8.1226019044
AG     13.0671473388    10.9653830196     8.1250434377
AG     13.0664435411     5.8844517124     8.1070450306
AG     15.9922814196    10.9707742734     8.1083058905
AG     15.9964123235     5.8698885452     8.1251821354
AG     17.4581046300     8.4277818269     8.1209381307
AG     10.1798086327    11.0148496745     8.1838469394
AG     14.5260677717     3.3528638707     8.1242038328
AG     18.8984580882    10.9898349281     8.1366703355
AG     14.5254354639     8.4163519477     8.1244790093
O       8.6433212934    10.1428517203     9.6993062147
H       8.6696496801    10.1371177966    10.6719831746
