64
Step 1 | ATOMIC_POSITIONS (angstrom) | Cartesian Angstrom
NI      1.2249008290     1.5780490690     2.1214073320
NI      2.4498016590     0.8708522460     4.1277837350
NI      3.6747024880     1.5780490690     2.1214073320
NI      4.8996033180     0.8708522460     4.1277837350
NI      6.1245041470     1.5780490690     2.1214073320
NI      7.3494049760     0.8708522460     4.1277837350
NI      8.5743058060     1.5780490690     2.1214073320
NI      9.7992066350     0.8708522460     4.1277837350
NI      2.4498016590     3.6996395400     2.1214073320
NI      3.6747024880     2.9924427170     4.1277837350
NI      4.8996033180     3.6996395400     2.1214073320
NI      6.1245041470     2.9924427170     4.1277837350
NI      7.3494049760     3.6996395400     2.1214073320
NI     11.0241074650     2.9924427170     4.1277837350
NI      8.5743058060     2.9924427170     4.1277837350
NI      9.7992066350     3.6996395400     2.1214073320
NI      3.6747039127     5.8213845855     2.1156941872
NI      4.8996033180     5.1293457328     4.0826094946
NI      6.1245027223     5.8213845855     2.1156941872
NI      7.3494190752     5.1293216940     4.0826086725
NI      8.5743096192     5.8213458868     2.1156967525
NI      9.7992066350     5.1292912688     4.0826005780
NI     11.0241036518     5.8213458868     2.1156967525
NI     12.2489941948     5.1293216940     4.0826086725
NI      4.8996033180     7.9429801047     2.1156992518
NI      6.1244931488     7.2509190427     4.0826035931
NI      7.3493724671     7.9429542171     2.1156932614
NI      8.5742941356     7.2508900319     4.0826148611
NI      9.7992066350     7.9429278723     2.1156859306
NI     11.0241191354     7.2508900319     4.0826148611
NI     12.2490408029     7.9429542171     2.1156932614
NI     13.4739201212     7.2509190427     4.0826035931
AG      1.2248966173     2.1057396154     6.2633585581
AG      2.4498007671     1.4148168627     8.6619843283
AG      3.6746984209     2.1057399872     6.2633675407
AG      4.8996033180     1.4148167545     8.6619858220
AG      6.1245082141     2.1057399872     6.2633675407
AG      7.3494058679     1.4148168627     8.6619843283
AG      8.5743100177     2.1057396154     6.2633585581
AG      9.7992066350     1.4148169939     8.6619829407
AG      2.4497981804     4.2273300301     6.2633619537
AG      3.6747019281     3.5364077376     8.6619848690
AG      4.8996033180     4.2273329590     6.2633652224
AG      6.1245047069     3.5364077376     8.6619848690
AG      7.3494084546     4.2273300301     6.2633619537
AG      8.5743063616     3.5364072396     8.6619831439
AG      9.7992066350     4.2273273050     6.2633575438
AG     11.0241069094     3.5364072396     8.6619831439
AG      3.6747029829     6.3489211937     6.2633617708
AG      4.8996033180     5.6579982279     8.6619841527
AG      6.1245036521     6.3489211937     6.2633617708
AG      7.3494051357     5.6579977114     8.6619839600
AG      8.5743057363     6.3489170123     6.2633622277
AG      9.7992066350     5.6579972354     8.6619836961
AG     11.0241075347     6.3489170123     6.2633622277
AG     12.2490081343     5.6579977114     8.6619839600
AG      4.8996033180     8.4705121174     6.2633591097
AG      6.1245037660     7.7795883253     8.6619837124
AG      7.3494009164     8.4705098536     6.2633631213
AG      8.5743054474     7.7795877337     8.6619847187
AG      9.7992066350     8.4705074205     6.2633674713
AG     11.0241078236     7.7795877337     8.6619847187
AG     12.2490123536     8.4705098536     6.2633631213
AG     13.4739095040     7.7795883253     8.6619837124
64
Step 2 | ATOMIC_POSITIONS (angstrom) | Cartesian Angstrom
NI      1.2249008290     1.5780490690     2.1214073320
NI      2.4498016590     0.8708522460     4.1277837350
NI      3.6747024880     1.5780490690     2.1214073320
NI      4.8996033180     0.8708522460     4.1277837350
NI      6.1245041470     1.5780490690     2.1214073320
NI      7.3494049760     0.8708522460     4.1277837350
NI      8.5743058060     1.5780490690     2.1214073320
NI      9.7992066350     0.8708522460     4.1277837350
NI      2.4498016590     3.6996395400     2.1214073320
NI      3.6747024880     2.9924427170     4.1277837350
NI      4.8996033180     3.6996395400     2.1214073320
NI      6.1245041470     2.9924427170     4.1277837350
NI      7.3494049760     3.6996395400     2.1214073320
NI     11.0241074650     2.9924427170     4.1277837350
NI      8.5743058060     2.9924427170     4.1277837350
NI      9.7992066350     3.6996395400     2.1214073320
NI      3.6746513791     5.8217670414     2.1008080398
NI      4.8996033180     5.1435865755     4.0430747436
NI      6.1245552559     5.8217670414     2.1008080398
NI      7.3494718459     5.1435757814     4.0430459614
NI      8.5743594500     5.8217399726     2.1008349659
NI      9.7992066350     5.1435608818     4.0430154406
NI     11.0240538210     5.8217399726     2.1008349659
NI     12.2489414241     5.1435757814     4.0430459614
NI      4.8996033180     7.9450646178     2.1028002351
NI      6.1245322225     7.2653101056     4.0427610183
NI      7.3494367248     7.9450130109     2.1028120196
NI      8.5743362773     7.2652646321     4.0427294834
NI      9.7992066350     7.9449618277     2.1028220784
NI     11.0240769937     7.2652646321     4.0427294834
NI     12.2489765452     7.9450130109     2.1028120196
NI     13.4738810475     7.2653101056     4.0427610183
AG      1.2249000538     2.0846211628     6.2792942734
AG      2.4498012192     1.4152582803     8.7143468096
AG      3.6747013651     2.0846162069     6.2793015595
AG      4.8996033180     1.4152577453     8.7143485342
AG      6.1245052699     2.0846162069     6.2793015595
AG      7.3494054158     1.4152582803     8.7143468096
AG      8.5743065812     2.0846211628     6.2792942734
AG      9.7992066350     1.4152588327     8.7143452003
AG      2.4497961184     4.2113046086     6.2667801724
AG      3.6747017608     3.5368707420     8.7141805093
AG      4.8996033180     4.2113029949     6.2667866295
AG      6.1245048742     3.5368707420     8.7141805093
AG      7.3494105166     4.2113046086     6.2667801724
AG      8.5743065330     3.5368709849     8.7141767847
AG      9.7992066350     4.2113071071     6.2667722316
AG     11.0241067380     3.5368709849     8.7141767847
AG      3.6746972248     6.3314792112     6.2652796788
AG      4.8996033180     5.6584876117     8.7142826623
AG      6.1245094102     6.3314792112     6.2652796788
AG      7.3494060943     5.6584874299     8.7142807526
AG      8.5743110832     6.3314762942     6.2652739805
AG      9.7992066350     5.6584871347     8.7142787283
AG     11.0241021878     6.3314762942     6.2652739805
AG     12.2490071757     5.6584874299     8.7142807526
AG      4.8996033180     8.4479691340     6.2777886100
AG      6.1245045064     7.7800651436     8.7144504404
AG      7.3494089483     8.4479663320     6.2777862733
AG      8.5743061654     7.7800642977     8.7144501474
AG      9.7992066350     8.4479636165     6.2777831972
AG     11.0241071056     7.7800642977     8.7144501474
AG     12.2490043217     8.4479663320     6.2777862733
AG     13.4739087636     7.7800651436     8.7144504404
