64
Step 1 | ATOMIC_POSITIONS (angstrom) | Cartesian Angstrom
NI      1.2249008290     1.5780490690     2.1214073320
NI      2.4498016590     0.8708522460     4.1277837350
NI      3.6747024880     1.5780490690     2.1214073320
NI      4.8996033180     0.8708522460     4.1277837350
NI      6.1245041470     1.5780490690     2.1214073320
NI      7.3494049760     0.8708522460     4.1277837350
NI      8.5743058060     1.5780490690     2.1214073320
NI      9.7992066350     0.8708522460     4.1277837350
NI      2.4498016590     3.6996395400     2.1214073320
NI      3.6747024880     2.9924427170     4.1277837350
NI      4.8996033180     3.6996395400     2.1214073320
NI      6.1245041470     2.9924427170     4.1277837350
NI      7.3494049760     3.6996395400     2.1214073320
NI     11.0241074650     2.9924427170     4.1277837350
NI      8.5743058060     2.9924427170     4.1277837350
NI      9.7992066350     3.6996395400     2.1214073320
NI      3.6747039127     5.8213845855     2.1156941872
NI      4.8996033180     5.1293457328     4.0826094946
NI      6.1245027223     5.8213845855     2.1156941872
NI      7.3494190752     5.1293216940     4.0826086725
NI      8.5743096192     5.8213458868     2.1156967525
NI      9.7992066350     5.1292912688     4.0826005780
NI     11.0241036518     5.8213458868     2.1156967525
NI     12.2489941948     5.1293216940     4.0826086725
NI      4.8996033180     7.9429801047     2.1156992518
NI      6.1244931488     7.2509190427     4.0826035931
NI      7.3493724671     7.9429542171     2.1156932614
NI      8.5742941356     7.2508900319     4.0826148611
NI      9.7992066350     7.9429278723     2.1156859306
NI     11.0241191354     7.2508900319     4.0826148611
NI     12.2490408029     7.9429542171     2.1156932614
NI     13.4739201212     7.2509190427     4.0826035931
AG      1.2248966173     2.1057396154     6.2633585581
AG      2.4498007671     1.4148168627     8.6619843283
AG      3.6746984209     2.1057399872     6.2633675407
AG      4.8996033180     1.4148167545     8.6619858220
AG      6.1245082141     2.1057399872     6.2633675407
AG      7.3494058679     1.4148168627     8.6619843283
AG      8.5743100177     2.1057396154     6.2633585581
AG      9.7992066350     1.4148169939     8.6619829407
AG      2.4497981804     4.2273300301     6.2633619537
AG      3.6747019281     3.5364077376     8.6619848690
AG      4.8996033180     4.2273329590     6.2633652224
AG      6.1245047069     3.5364077376     8.6619848690
AG      7.3494084546     4.2273300301     6.2633619537
AG      8.5743063616     3.5364072396     8.6619831439
AG      9.7992066350     4.2273273050     6.2633575438
AG     11.0241069094     3.5364072396     8.6619831439
AG      3.6747029829     6.3489211937     6.2633617708
AG      4.8996033180     5.6579982279     8.6619841527
AG      6.1245036521     6.3489211937     6.2633617708
AG      7.3494051357     5.6579977114     8.6619839600
AG      8.5743057363     6.3489170123     6.2633622277
AG      9.7992066350     5.6579972354     8.6619836961
AG     11.0241075347     6.3489170123     6.2633622277
AG     12.2490081343     5.6579977114     8.6619839600
AG      4.8996033180     8.4705121174     6.2633591097
AG      6.1245037660     7.7795883253     8.6619837124
AG      7.3494009164     8.4705098536     6.2633631213
AG      8.5743054474     7.7795877337     8.6619847187
AG      9.7992066350     8.4705074205     6.2633674713
AG     11.0241078236     7.7795877337     8.6619847187
AG     12.2490123536     8.4705098536     6.2633631213
AG     13.4739095040     7.7795883253     8.6619837124
64
Step 2 | ATOMIC_POSITIONS (angstrom) | Cartesian Angstrom
NI      1.2249008290     1.5780490690     2.1214073320
NI      2.4498016590     0.8708522460     4.1277837350
NI      3.6747024880     1.5780490690     2.1214073320
NI      4.8996033180     0.8708522460     4.1277837350
NI      6.1245041470     1.5780490690     2.1214073320
NI      7.3494049760     0.8708522460     4.1277837350
NI      8.5743058060     1.5780490690     2.1214073320
NI      9.7992066350     0.8708522460     4.1277837350
NI      2.4498016590     3.6996395400     2.1214073320
NI      3.6747024880     2.9924427170     4.1277837350
NI      4.8996033180     3.6996395400     2.1214073320
NI      6.1245041470     2.9924427170     4.1277837350
NI      7.3494049760     3.6996395400     2.1214073320
NI     11.0241074650     2.9924427170     4.1277837350
NI      8.5743058060     2.9924427170     4.1277837350
NI      9.7992066350     3.6996395400     2.1214073320
NI      3.6746513791     5.8217670414     2.1008080398
NI      4.8996033180     5.1435865755     4.0430747436
NI      6.1245552559     5.8217670414     2.1008080398
NI      7.3494718459     5.1435757814     4.0430459614
NI      8.5743594500     5.8217399726     2.1008349659
NI      9.7992066350     5.1435608818     4.0430154406
NI     11.0240538210     5.8217399726     2.1008349659
NI     12.2489414241     5.1435757814     4.0430459614
NI      4.8996033180     7.9450646178     2.1028002351
NI      6.1245322225     7.2653101056     4.0427610183
NI      7.3494367248     7.9450130109     2.1028120196
NI      8.5743362773     7.2652646321     4.0427294834
NI      9.7992066350     7.9449618277     2.1028220784
NI     11.0240769937     7.2652646321     4.0427294834
NI     12.2489765452     7.9450130109     2.1028120196
NI     13.4738810475     7.2653101056     4.0427610183
AG      1.2249000538     2.0846211628     6.2792942734
AG      2.4498012192     1.4152582803     8.7143468096
AG      3.6747013651     2.0846162069     6.2793015595
AG      4.8996033180     1.4152577453     8.7143485342
AG      6.1245052699     2.0846162069     6.2793015595
AG      7.3494054158     1.4152582803     8.7143468096
AG      8.5743065812     2.0846211628     6.2792942734
AG      9.7992066350     1.4152588327     8.7143452003
AG      2.4497961184     4.2113046086     6.2667801724
AG      3.6747017608     3.5368707420     8.7141805093
AG      4.8996033180     4.2113029949     6.2667866295
AG      6.1245048742     3.5368707420     8.7141805093
AG      7.3494105166     4.2113046086     6.2667801724
AG      8.5743065330     3.5368709849     8.7141767847
AG      9.7992066350     4.2113071071     6.2667722316
AG     11.0241067380     3.5368709849     8.7141767847
AG      3.6746972248     6.3314792112     6.2652796788
AG      4.8996033180     5.6584876117     8.7142826623
AG      6.1245094102     6.3314792112     6.2652796788
AG      7.3494060943     5.6584874299     8.7142807526
AG      8.5743110832     6.3314762942     6.2652739805
AG      9.7992066350     5.6584871347     8.7142787283
AG     11.0241021878     6.3314762942     6.2652739805
AG     12.2490071757     5.6584874299     8.7142807526
AG      4.8996033180     8.4479691340     6.2777886100
AG      6.1245045064     7.7800651436     8.7144504404
AG      7.3494089483     8.4479663320     6.2777862733
AG      8.5743061654     7.7800642977     8.7144501474
AG      9.7992066350     8.4479636165     6.2777831972
AG     11.0241071056     7.7800642977     8.7144501474
AG     12.2490043217     8.4479663320     6.2777862733
AG     13.4739087636     7.7800651436     8.7144504404
64
Step 3 | ATOMIC_POSITIONS (angstrom) | Cartesian Angstrom
NI      1.2249008290     1.5780490690     2.1214073320
NI      2.4498016590     0.8708522460     4.1277837350
NI      3.6747024880     1.5780490690     2.1214073320
NI      4.8996033180     0.8708522460     4.1277837350
NI      6.1245041470     1.5780490690     2.1214073320
NI      7.3494049760     0.8708522460     4.1277837350
NI      8.5743058060     1.5780490690     2.1214073320
NI      9.7992066350     0.8708522460     4.1277837350
NI      2.4498016590     3.6996395400     2.1214073320
NI      3.6747024880     2.9924427170     4.1277837350
NI      4.8996033180     3.6996395400     2.1214073320
NI      6.1245041470     2.9924427170     4.1277837350
NI      7.3494049760     3.6996395400     2.1214073320
NI     11.0241074650     2.9924427170     4.1277837350
NI      8.5743058060     2.9924427170     4.1277837350
NI      9.7992066350     3.6996395400     2.1214073320
NI      3.6746602714     5.8229929695     2.0706344418
NI      4.8996033180     5.1609734556     3.9987792121
NI      6.1245463636     5.8229929695     2.0706344418
NI      7.3494763878     5.1609291609     3.9987660840
NI      8.5743499112     5.8229128742     2.0706404728
NI      9.7992066350     5.1608777083     3.9987480277
NI     11.0240633598     5.8229128742     2.0706404728
NI     12.2489368822     5.1609291609     3.9987660840
NI      4.8996033180     7.9500951424     2.0776183204
NI      6.1245141155     7.2825547894     3.9971864432
NI      7.3493955039     7.9500321685     2.0776163598
NI      8.5743163215     7.2824871720     3.9971896648
NI      9.7992066350     7.9499694246     2.0776082350
NI     11.0240969495     7.2824871720     3.9971896648
NI     12.2490177661     7.9500321685     2.0776163598
NI     13.4738991545     7.2825547894     3.9971864432
AG      1.2248971868     2.0547631976     6.3055495265
AG      2.4498005784     1.4157895763     8.7930466224
AG      3.6746992445     2.0547651185     6.3055629527
AG      4.8996033180     1.4157892901     8.7930500811
AG      6.1245073905     2.0547651185     6.3055629527
AG      7.3494060566     1.4157895763     8.7930466224
AG      8.5743094482     2.0547631976     6.3055495265
AG      9.7992066350     1.4157899369     8.7930432339
AG      2.4498001793     4.1861439114     6.2684695279
AG      3.6747017004     3.5380238695     8.7908113516
AG      4.8996033180     4.1861453836     6.2684833323
AG      6.1245049346     3.5380238695     8.7908113516
AG      7.3494064557     4.1861439114     6.2684695279
AG      8.5743066615     3.5380233156     8.7908049773
AG      9.7992066350     4.1861424782     6.2684536629
AG     11.0241066095     3.5380233156     8.7908049773
AG      3.6747026510     6.3044605234     6.2632971790
AG      4.8996033180     5.6590875632     8.7905176000
AG      6.1245039840     6.3044605234     6.2632971790
AG      7.3494054208     5.6590869677     8.7905148970
AG      8.5743056054     6.3044582381     6.2632915550
AG      9.7992066350     5.6590863430     8.7905121756
AG     11.0241076656     6.3044582381     6.2632915550
AG     12.2490078492     5.6590869677     8.7905148970
AG      4.8996033180     8.4162492479     6.3006680495
AG      6.1245039695     7.7800697792     8.7927384860
AG      7.3494029830     8.4162468626     6.3006691064
AG      8.5743057016     7.7800693954     8.7927388850
AG      9.7992066350     8.4162446962     6.3006696652
AG     11.0241075694     7.7800693954     8.7927388850
AG     12.2490102870     8.4162468626     6.3006691064
AG     13.4739093005     7.7800697792     8.7927384860
64
Step 4 | ATOMIC_POSITIONS (angstrom) | Cartesian Angstrom
NI      1.2249008290     1.5780490690     2.1214073320
NI      2.4498016590     0.8708522460     4.1277837350
NI      3.6747024880     1.5780490690     2.1214073320
NI      4.8996033180     0.8708522460     4.1277837350
NI      6.1245041470     1.5780490690     2.1214073320
NI      7.3494049760     0.8708522460     4.1277837350
NI      8.5743058060     1.5780490690     2.1214073320
NI      9.7992066350     0.8708522460     4.1277837350
NI      2.4498016590     3.6996395400     2.1214073320
NI      3.6747024880     2.9924427170     4.1277837350
NI      4.8996033180     3.6996395400     2.1214073320
NI      6.1245041470     2.9924427170     4.1277837350
NI      7.3494049760     3.6996395400     2.1214073320
NI     11.0241074650     2.9924427170     4.1277837350
NI      8.5743058060     2.9924427170     4.1277837350
NI      9.7992066350     3.6996395400     2.1214073320
NI      3.6746694757     5.8257713798     2.0172571806
NI      4.8996033180     5.1830833442     3.9483984933
NI      6.1245371593     5.8257713798     2.0172571806
NI      7.3494730438     5.1830074229     3.9484000571
NI      8.5743410596     5.8256494025     2.0172407144
NI      9.7992066350     5.1829245004     3.9483942790
NI     11.0240722114     5.8256494025     2.0172407144
NI     12.2489402262     5.1830074229     3.9484000571
NI      4.8996033180     7.9597691496     2.0333338815
NI      6.1244973932     7.3030046273     3.9431769966
NI      7.3493680699     7.9596930974     2.0333178093
NI      8.5742991599     7.3029198875     3.9431919366
NI      9.7992066350     7.9596177795     2.0332942522
NI     11.0241141111     7.3029198875     3.9431919366
NI     12.2490452001     7.9596930974     2.0333178093
NI     13.4739158768     7.3030046273     3.9431769966
AG      1.2248978123     2.0121535073     6.3473918329
AG      2.4498005464     1.4164850264     8.9110967092
AG      3.6746994792     2.0121563832     6.3474116792
AG      4.8996033180     1.4164850534     8.9111030437
AG      6.1245071558     2.0121563832     6.3474116792
AG      7.3494060886     1.4164850264     8.9110967092
AG      8.5743088227     2.0121535073     6.3473918329
AG      9.7992066350     1.4164849976     8.9110901246
AG      2.4498015822     4.1459524485     6.2701101258
AG      3.6747019613     3.5397828129     8.9029620298
AG      4.8996033180     4.1459563768     6.2701262043
AG      6.1245046737     3.5397828129     8.9029620298
AG      7.3494050528     4.1459524485     6.2701101258
AG      8.5743064845     3.5397819580     8.9029495091
AG      9.7992066350     4.1459492764     6.2700903981
AG     11.0241067865     3.5397819580     8.9029495091
AG      3.6747044913     6.2627367898     6.2572266197
AG      4.8996033180     5.6597735057     8.9009005686
AG      6.1245021437     6.2627367898     6.2572266197
AG      7.3494051731     5.6597728370     8.9008962125
AG      8.5743043019     6.2627310737     6.2572295951
AG      9.7992066350     5.6597721531     8.9008916943
AG     11.0241089691     6.2627310737     6.2572295951
AG     12.2490080969     5.6597728370     8.9008962125
AG      4.8996033180     8.3716129881     6.3366910856
AG      6.1245036537     7.7797314373     8.9089424874
AG      7.3494011110     8.3716135396     6.3366951855
AG      8.5743054449     7.7797315463     8.9089435348
AG      9.7992066350     8.3716133430     6.3366990890
AG     11.0241078261     7.7797315463     8.9089435348
AG     12.2490121590     8.3716135396     6.3366951855
AG     13.4739096163     7.7797314373     8.9089424874
64
Step 5 | ATOMIC_POSITIONS (angstrom) | Cartesian Angstrom
NI      1.2249008290     1.5780490690     2.1214073320
NI      2.4498016590     0.8708522460     4.1277837350
NI      3.6747024880     1.5780490690     2.1214073320
NI      4.8996033180     0.8708522460     4.1277837350
NI      6.1245041470     1.5780490690     2.1214073320
NI      7.3494049760     0.8708522460     4.1277837350
NI      8.5743058060     1.5780490690     2.1214073320
NI      9.7992066350     0.8708522460     4.1277837350
NI      2.4498016590     3.6996395400     2.1214073320
NI      3.6747024880     2.9924427170     4.1277837350
NI      4.8996033180     3.6996395400     2.1214073320
NI      6.1245041470     2.9924427170     4.1277837350
NI      7.3494049760     3.6996395400     2.1214073320
NI     11.0241074650     2.9924427170     4.1277837350
NI      8.5743058060     2.9924427170     4.1277837350
NI      9.7992066350     3.6996395400     2.1214073320
NI      3.6746891341     5.8312033484     1.9302071767
NI      4.8996033180     5.2121974321     3.8921712416
NI      6.1245175009     5.8312033484     1.9302071767
NI      7.3494482628     5.2121051115     3.8921866712
NI      8.5743224702     5.8310556506     1.9301653756
NI      9.7992066350     5.2120018177     3.8921947468
NI     11.0240908008     5.8310556506     1.9301653756
NI     12.2489650072     5.2121051115     3.8921866712
NI      4.8996033180     7.9759401963     1.9605068185
NI      6.1244844636     7.3255464369     3.8778051964
NI      7.3493507778     7.9758555908     1.9604869996
NI      8.5742856567     7.3254601988     3.8778133468
NI      9.7992066350     7.9757726088     1.9604575184
NI     11.0241276143     7.3254601988     3.8778133468
NI     12.2490624922     7.9758555908     1.9604869996
NI     13.4739288064     7.3255464369     3.8778051964
AG      1.2249000803     1.9506028733     6.4127354046
AG      2.4498007093     1.4175051516     9.0881715452
AG      3.6747022601     1.9506079463     6.4127608835
AG      4.8996033180     1.4175055542     9.0881826224
AG      6.1245043749     1.9506079463     6.4127608835
AG      7.3494059257     1.4175051516     9.0881715452
AG      8.5743065547     1.9506028733     6.4127354046
AG      9.7992066350     1.4175049439     9.0881599610
AG      2.4498052782     4.0827122424     6.2726485572
AG      3.6747020453     3.5416574604     9.0672220550
AG      4.8996033180     4.0827177997     6.2726619534
AG      6.1245045897     3.5416574604     9.0672220550
AG      7.3494013568     4.0827122424     6.2726485572
AG      8.5743061272     3.5416564409     9.0672003655
AG      9.7992066350     4.0827067117     6.2726283864
AG     11.0241071438     3.5416564409     9.0672003655
AG      3.6747025172     6.1996407410     6.2433807075
AG      4.8996033180     5.6605563701     9.0608083392
AG      6.1245041178     6.1996407410     6.2433807075
AG      7.3494047708     5.6605562991     9.0608017281
AG      8.5743054497     6.1996381061     6.2433991234
AG      9.7992066350     5.6605561766     9.0607948299
AG     11.0241078213     6.1996381061     6.2433991234
AG     12.2490084992     5.6605562991     9.0608017281
AG      4.8996033180     8.3077880835     6.3926845666
AG      6.1245041114     7.7796831654     9.0814877909
AG      7.3494043645     8.3077881837     6.3926903517
AG      8.5743054295     7.7796836086     9.0814900886
AG      9.7992066350     8.3077884109     6.3926961300
AG     11.0241078415     7.7796836086     9.0814900886
AG     12.2490089055     8.3077881837     6.3926903517
AG     13.4739091586     7.7796831654     9.0814877909
64
Step 6 | ATOMIC_POSITIONS (angstrom) | Cartesian Angstrom
NI      1.2249008290     1.5780490690     2.1214073320
NI      2.4498016590     0.8708522460     4.1277837350
NI      3.6747024880     1.5780490690     2.1214073320
NI      4.8996033180     0.8708522460     4.1277837350
NI      6.1245041470     1.5780490690     2.1214073320
NI      7.3494049760     0.8708522460     4.1277837350
NI      8.5743058060     1.5780490690     2.1214073320
NI      9.7992066350     0.8708522460     4.1277837350
NI      2.4498016590     3.6996395400     2.1214073320
NI      3.6747024880     2.9924427170     4.1277837350
NI      4.8996033180     3.6996395400     2.1214073320
NI      6.1245041470     2.9924427170     4.1277837350
NI      7.3494049760     3.6996395400     2.1214073320
NI     11.0241074650     2.9924427170     4.1277837350
NI      8.5743058060     2.9924427170     4.1277837350
NI      9.7992066350     3.6996395400     2.1214073320
NI      3.6747122373     5.8379933646     1.8261315765
NI      4.8996033180     5.2427113517     3.8449981967
NI      6.1244943977     5.8379933646     1.8261315765
NI      7.3494144338     5.2426119453     3.8450244005
NI      8.5743002394     5.8378252159     1.8260764402
NI      9.7992066350     5.2425009951     3.8450444448
NI     11.0241130316     5.8378252159     1.8260764402
NI     12.2489988362     5.2426119453     3.8450244005
NI      4.8996033180     7.9947695732     1.8714607171
NI      6.1244743084     7.3420683059     3.8139338155
NI      7.3493345414     7.9946785193     1.8714398820
NI      8.5742767543     7.3419787941     3.8139311731
NI      9.7992066350     7.9945868071     1.8714103936
NI     11.0241365167     7.3419787941     3.8139311731
NI     12.2490787286     7.9946785193     1.8714398820
NI     13.4739389616     7.3420683059     3.8139338155
AG      1.2249016713     1.8796514263     6.4932050216
AG      2.4498010237     1.4188600526     9.2984503365
AG      3.6747029577     1.8796568955     6.4932408051
AG      4.8996033180     1.4188605115     9.2984682625
AG      6.1245036773     1.8796568955     6.4932408051
AG      7.3494056113     1.4188600526     9.2984503365
AG      8.5743049637     1.8796514263     6.4932050216
AG      9.7992066350     1.4188594438     9.2984316224
AG      2.4498028820     4.0057326323     6.2754354645
AG      3.6747022417     3.5425944649     9.2572232558
AG      4.8996033180     4.0057400966     6.2754442266
AG      6.1245043933     3.5425944649     9.2572232558
AG      7.3494037530     4.0057326323     6.2754354645
AG      8.5743061304     3.5425938180     9.2571885346
AG      9.7992066350     4.0057256079     6.2754156244
AG     11.0241071406     3.5425938180     9.2571885346
AG      3.6747013834     6.1263576127     6.2170040348
AG      4.8996033180     5.6614719283     9.2438464196
AG      6.1245052516     6.1263576127     6.2170040348
AG      7.3494048232     5.6614719358     9.2438373491
AG      8.5743074069     6.1263515182     6.2170433385
AG      9.7992066350     5.6614721382     9.2438278084
AG     11.0241058641     6.1263515182     6.2170433385
AG     12.2490084468     5.6614719358     9.2438373491
AG      4.8996033180     8.2339396602     6.4614448559
AG      6.1245037140     7.7808844621     9.2845259656
AG      7.3494052691     8.2339413717     6.4614522126
AG      8.5743057314     7.7808852172     9.2845307744
AG      9.7992066350     8.2339421145     6.4614600884
AG     11.0241075396     7.7808852172     9.2845307744
AG     12.2490080009     8.2339413717     6.4614522126
AG     13.4739095560     7.7808844621     9.2845259656
64
Step 7 | ATOMIC_POSITIONS (angstrom) | Cartesian Angstrom
NI      1.2249008290     1.5780490690     2.1214073320
NI      2.4498016590     0.8708522460     4.1277837350
NI      3.6747024880     1.5780490690     2.1214073320
NI      4.8996033180     0.8708522460     4.1277837350
NI      6.1245041470     1.5780490690     2.1214073320
NI      7.3494049760     0.8708522460     4.1277837350
NI      8.5743058060     1.5780490690     2.1214073320
NI      9.7992066350     0.8708522460     4.1277837350
NI      2.4498016590     3.6996395400     2.1214073320
NI      3.6747024880     2.9924427170     4.1277837350
NI      4.8996033180     3.6996395400     2.1214073320
NI      6.1245041470     2.9924427170     4.1277837350
NI      7.3494049760     3.6996395400     2.1214073320
NI     11.0241074650     2.9924427170     4.1277837350
NI      8.5743058060     2.9924427170     4.1277837350
NI      9.7992066350     3.6996395400     2.1214073320
NI      3.6747381941     5.8423704273     1.7457406053
NI      4.8996033180     5.2635559314     3.8189543212
NI      6.1244684409     5.8423704273     1.7457406053
NI      7.3493740032     5.2634730992     3.8189916010
NI      8.5742749185     5.8422124938     1.7456869800
NI      9.7992066350     5.2633804571     3.8190230103
NI     11.0241383525     5.8422124938     1.7456869800
NI     12.2490392668     5.2634730992     3.8189916010
NI      4.8996033180     8.0079100576     1.7996172804
NI      6.1244714932     7.3478607293     3.7683111143
NI      7.3493342042     8.0078268855     1.7996009892
NI      8.5742744805     7.3477853635     3.7682964052
NI      9.7992066350     8.0077444616     1.7995760596
NI     11.0241387906     7.3477853635     3.7682964052
NI     12.2490790658     8.0078268855     1.7996009892
NI     13.4739417768     7.3478607293     3.7683111143
AG      1.2249015965     1.8213581757     6.5650162782
AG      2.4498011838     1.4202466888     9.4758718758
AG      3.6747039295     1.8213663093     6.5650620217
AG      4.8996033180     1.4202471970     9.4758970671
AG      6.1245027055     1.8213663093     6.5650620217
AG      7.3494054512     1.4202466888     9.4758718758
AG      8.5743050385     1.8213581757     6.5650162782
AG      9.7992066350     1.4202462868     9.4758454625
AG      2.4498030967     3.9417273675     6.2776103340
AG      3.6747023777     3.5428134032     9.4117014998
AG      4.8996033180     3.9417341993     6.2776133755
AG      6.1245042573     3.5428134032     9.4117014998
AG      7.3494035383     3.9417273675     6.2776103340
AG      8.5743059739     3.5428126048     9.4116527142
AG      9.7992066350     3.9417190949     6.2775917135
AG     11.0241072971     3.5428126048     9.4116527142
AG      3.6747002427     6.0685210353     6.1805646597
AG      4.8996033180     5.6626103704     9.3906795467
AG      6.1245063923     6.0685210353     6.1805646597
AG      7.3494047440     5.6626109293     9.3906685600
AG      8.5743078822     6.0685149885     6.1806265177
AG      9.7992066350     5.6626112670     9.3906568069
AG     11.0241053888     6.0685149885     6.1806265177
AG     12.2490085260     5.6626109293     9.3906685600
AG      4.8996033180     8.1714654997     6.5229415508
AG      6.1245041655     7.7826721624     9.4536534711
AG      7.3494063368     8.1714670427     6.5229479431
AG      8.5743056117     7.7826729733     9.4536609954
AG      9.7992066350     8.1714687662     6.5229558838
AG     11.0241076593     7.7826729733     9.4536609954
AG     12.2490069332     8.1714670427     6.5229479431
AG     13.4739091045     7.7826721624     9.4536534711
