64
Step 1 | ATOMIC_POSITIONS (angstrom) | Cartesian Angstrom
NI      1.2249008290     1.5780490690     2.1214073320
NI      3.6747024880     1.5780490690     2.1214073320
NI      6.1245041470     1.5780490690     2.1214073320
NI      8.5743058060     1.5780490690     2.1214073320
NI      2.4498016590     3.6996395400     2.1214073320
NI      4.8996033180     3.6996395400     2.1214073320
NI      7.3494049760     3.6996395400     2.1214073320
NI      9.7992066350     3.6996395400     2.1214073320
NI      3.6747024880     5.8212300110     2.1214073320
NI      6.1245041470     5.8212300110     2.1214073320
NI      8.5743058060     5.8212300110     2.1214073320
NI     11.0241074650     5.8212300110     2.1214073320
NI      4.8996033180     7.9428204820     2.1214073320
NI      7.3494049760     7.9428204820     2.1214073320
NI      9.7992066350     7.9428204820     2.1214073320
NI     12.2490082940     7.9428204820     2.1214073320
NI      2.4497952374     0.8740958382     4.1174459865
NI      4.8996033180     0.8740938476     4.1174504379
NI      7.3494113976     0.8740958382     4.1174459865
NI      9.7992066350     0.8741005745     4.1174441641
NI      3.6746965922     2.9956856932     4.1174478406
NI      6.1245100428     2.9956856932     4.1174478406
NI     11.0241014535     2.9956851441     4.1174426385
NI      8.5743118175     2.9956851441     4.1174426385
NI      4.8996033180     5.1172751264     4.1174496544
NI      7.3494112626     5.1172727330     4.1174470535
NI      9.7992066350     5.1172689190     4.1174442164
NI     12.2490020074     5.1172727330     4.1174470535
NI      6.1245058810     7.2388710812     4.1174471912
NI      8.5743041289     7.2388632250     4.1174472718
NI     11.0241091421     7.2388632250     4.1174472718
NI     13.4739073890     7.2388710812     4.1174471912
AG      1.2249001661     2.1178914212     5.9995554338
AG      3.6747016700     2.1178912033     5.9995566940
AG      6.1245049650     2.1178912033     5.9995566940
AG      8.5743064689     2.1178914212     5.9995554338
AG      2.4498006678     4.2394812964     5.9995561767
AG      4.8996033180     4.2394815967     5.9995569763
AG      7.3494059672     4.2394812964     5.9995561767
AG      9.7992066350     4.2394810273     5.9995552636
AG      3.6747022073     6.3610724386     5.9995566904
AG      6.1245044277     6.3610724386     5.9995566904
AG      8.5743060465     6.3610715103     5.9995561580
AG     11.0241072245     6.3610715103     5.9995561580
AG      4.8996033180     8.4826633560     5.9995560556
AG      7.3494044665     8.4826627319     5.9995562300
AG      9.7992066350     8.4826621201     5.9995568606
AG     12.2490088035     8.4826627319     5.9995562300
AG      2.4498012487     1.4149232253     7.7866427820
AG      4.8996033180     1.4149231187     7.7866433247
AG      7.3494053863     1.4149232253     7.7866427820
AG      9.7992066350     1.4149233337     7.7866423309
AG      3.6747021731     3.5365135678     7.7866431486
AG      6.1245044619     3.5365135678     7.7866431486
AG      8.5743061397     3.5365134576     7.7866423609
AG     11.0241071313     3.5365134576     7.7866423609
AG      4.8996033180     5.6581041735     7.7866432396
AG      7.3494052171     5.6581039530     7.7866429763
AG      9.7992066350     5.6581037245     7.7866426296
AG     12.2490080529     5.6581039530     7.7866429763
AG      6.1245040790     7.7796947386     7.7866428884
AG      8.5743056990     7.7796943844     7.7866430898
AG     11.0241075720     7.7796943844     7.7866430898
AG     13.4739091910     7.7796947386     7.7866428884
