64
Step 1 | ATOMIC_POSITIONS (angstrom) | Cartesian Angstrom
Ni      2.6797587124     1.5471594140     1.5000001930
Ni      5.3595174249     1.5471594140     1.5000001930
Ni      8.0392761373     1.5471594140     1.5000001930
Ni     10.7190348497     1.5471594140     1.5000001930
Ni      4.0196380686     3.8678985350     1.5000001930
Ni      6.6993967811     3.8678985350     1.5000001930
Ni      9.3791554935     3.8678985350     1.5000001930
Ni     12.0589142059     3.8678985350     1.5000001930
Ni      5.3595174249     6.1886376559     1.5000001930
Ni      8.0392761373     6.1886376559     1.5000001930
Ni     10.7190348497     6.1886376559     1.5000001930
Ni     13.3987935621     6.1886376559     1.5000001930
Ni      6.6993967811     8.5093767769     1.5000001930
Ni      9.3791554935     8.5093767769     1.5000001930
Ni     12.0589142059     8.5093767769     1.5000001930
Ni     14.7386729183     8.5093767769     1.5000001930
Ni      1.3398902448     0.7735859935     3.4956918681
Ni      4.0196534627     0.7735899787     3.4956827797
Ni      6.6993813870     0.7735899787     3.4956827797
Ni      9.3791446049     0.7735859935     3.4956918681
Ni      2.6797753050     3.0943270238     3.4956827797
Ni      5.3595174248     3.0943188280     3.4956745204
Ni      8.0392595447     3.0943270238     3.4956827797
Ni     10.7190348497     3.0943313484     3.4956862128
Ni      4.0196392672     5.4150394814     3.4956827797
Ni      6.6993955825     5.4150394814     3.4956827797
Ni      9.3791535339     5.4150568176     3.4956821996
Ni     12.0589161655     5.4150568176     3.4956821996
Ni      5.3595174248     7.7357844969     3.4956918681
Ni      8.0392869803     7.7357908097     3.4956862128
Ni     10.7190348497     7.7357993327     3.4956821996
Ni     13.3987827191     7.7357908097     3.4956862128
Ag      1.3398807931     2.3207409357     5.7151092899
Ag      4.0196399704     2.3207402190     5.7151060704
Ag      6.6993948793     2.3207402190     5.7151060704
Ag      9.3791540566     2.3207409357     5.7151092899
Ag      2.6797595955     4.6414777321     5.7151072690
Ag      5.3595174249     4.6414760460     5.7151060704
Ag      8.0392752542     4.6414777321     5.7151072690
Ag     10.7190348497     4.6414789944     5.7151080464
Ag      4.0196372155     6.9622152112     5.7151092899
Ag      6.6993976342     6.9622152112     5.7151092899
Ag      9.3791561452     6.9622169867     5.7151080464
Ag     12.0589135542     6.9622169867     5.7151080464
Ag      5.3595174249     9.2829564839     5.7151114667
Ag      8.0392784273     9.2829568209     5.7151092899
Ag     10.7190348497     9.2829575036     5.7151072690
Ag     13.3987912721     9.2829568209     5.7151092899
Ag      2.6797592180     1.5471597059     8.1227537033
Ag      5.3595174249     1.5471596169     8.1227530592
Ag      8.0392756317     1.5471597059     8.1227537033
Ag     10.7190348497     1.5471597943     8.1227542682
Ag      4.0196382444     3.8678984335     8.1227530592
Ag      6.6993966053     3.8678984335     8.1227530592
Ag      9.3791553015     3.8678988474     8.1227536070
Ag     12.0589143979     3.8678988474     8.1227536070
Ag      5.3595174249     6.1886370721     8.1227537033
Ag      8.0392763119     6.1886373334     8.1227536070
Ag     10.7190348497     6.1886376559     8.1227534472
Ag     13.3987933875     6.1886373334     8.1227536070
Ag      6.6993971105     8.5093765867     8.1227542682
Ag      9.3791558601     8.5093767869     8.1227536070
Ag     12.0589138393     8.5093767869     8.1227536070
Ag     14.7386725889     8.5093765867     8.1227542682
64
Step 2 | ATOMIC_POSITIONS (angstrom) | Cartesian Angstrom
Ni      2.6797587124     1.5471594140     1.5000001930
Ni      5.3595174249     1.5471594140     1.5000001930
Ni      8.0392761373     1.5471594140     1.5000001930
Ni     10.7190348497     1.5471594140     1.5000001930
Ni      4.0196380686     3.8678985350     1.5000001930
Ni      6.6993967811     3.8678985350     1.5000001930
Ni      9.3791554935     3.8678985350     1.5000001930
Ni     12.0589142059     3.8678985350     1.5000001930
Ni      5.3595174249     6.1886376559     1.5000001930
Ni      8.0392761373     6.1886376559     1.5000001930
Ni     10.7190348497     6.1886376559     1.5000001930
Ni     13.3987935621     6.1886376559     1.5000001930
Ni      6.6993967811     8.5093767769     1.5000001930
Ni      9.3791554935     8.5093767769     1.5000001930
Ni     12.0589142059     8.5093767769     1.5000001930
Ni     14.7386729183     8.5093767769     1.5000001930
Ni      1.3398816164     0.7735810119     3.4810185483
Ni      4.0196492197     0.7735240597     3.4810192086
Ni      6.6993856300     0.7735240597     3.4810192086
Ni      9.3791532333     0.7735810119     3.4810185483
Ni      2.6797160961     3.0943563087     3.4810192086
Ni      5.3595174248     3.0943188280     3.4810323274
Ni      8.0393187536     3.0943563087     3.4810192086
Ni     10.7190348497     3.0943862072     3.4809936259
Ni      4.0195843012     5.4150761154     3.4810192086
Ni      6.6994505485     5.4150761154     3.4810192086
Ni      9.3792086553     5.4150886419     3.4809712287
Ni     12.0588610441     5.4150886419     3.4809712287
Ni      5.3595174248     7.7357944601     3.4810185483
Ni      8.0393344894     7.7357633803     3.4809936259
Ni     10.7190348497     7.7357356840     3.4809712287
Ni     13.3987352100     7.7357633803     3.4809936259
Ag      1.3398765925     2.3207456626     5.6934490231
Ag      4.0196357087     2.3207377584     5.6934528150
Ag      6.6993991410     2.3207377584     5.6934528150
Ag      9.3791582572     2.3207456626     5.6934490231
Ag      2.6797490925     4.6414837960     5.6934446637
Ag      5.3595174249     4.6414809670     5.6934528150
Ag      8.0392857572     4.6414837960     5.6934446637
Ag     10.7190348497     4.6414861192     5.6934353749
Ag      4.0196310216     6.9622164856     5.6934490231
Ag      6.6994038281     6.9622164856     5.6934490231
Ag      9.3791623154     6.9622134243     5.6934353749
Ag     12.0589073840     6.9622134243     5.6934353749
Ag      5.3595174249     9.2829564839     5.6934540252
Ag      8.0392804206     9.2829508196     5.6934490231
Ag     10.7190348497     9.2829453757     5.6934446637
Ag     13.3987892788     9.2829508196     5.6934490231
Ag      2.6797580897     1.5471590544     8.1434708981
Ag      5.3595174249     1.5471577017     8.1434710615
Ag      8.0392767600     1.5471590544     8.1434708981
Ag     10.7190348497     1.5471602570     8.1434706815
Ag      4.0196365858     3.8678993911     8.1434710615
Ag      6.6993982639     3.8678993911     8.1434710615
Ag      9.3791567809     3.8679002576     8.1434685836
Ag     12.0589129185     3.8679002576     8.1434685836
Ag      5.3595174249     6.1886383750     8.1434708981
Ag      8.0392782728     6.1886379095     8.1434685836
Ag     10.7190348497     6.1886376559     8.1434661589
Ag     13.3987914266     6.1886379095     8.1434685836
Ag      6.6993975111     8.5093763554     8.1434706815
Ag      9.3791563416     8.5093748007     8.1434685836
Ag     12.0589133578     8.5093748007     8.1434685836
Ag     14.7386721883     8.5093763554     8.1434706815
64
Step 3 | ATOMIC_POSITIONS (angstrom) | Cartesian Angstrom
Ni      2.6797587124     1.5471594140     1.5000001930
Ni      5.3595174249     1.5471594140     1.5000001930
Ni      8.0392761373     1.5471594140     1.5000001930
Ni     10.7190348497     1.5471594140     1.5000001930
Ni      4.0196380686     3.8678985350     1.5000001930
Ni      6.6993967811     3.8678985350     1.5000001930
Ni      9.3791554935     3.8678985350     1.5000001930
Ni     12.0589142059     3.8678985350     1.5000001930
Ni      5.3595174249     6.1886376559     1.5000001930
Ni      8.0392761373     6.1886376559     1.5000001930
Ni     10.7190348497     6.1886376559     1.5000001930
Ni     13.3987935621     6.1886376559     1.5000001930
Ni      6.6993967811     8.5093767769     1.5000001930
Ni      9.3791554935     8.5093767769     1.5000001930
Ni     12.0589142059     8.5093767769     1.5000001930
Ni     14.7386729183     8.5093767769     1.5000001930
Ni      1.3398741904     0.7735767245     3.4549476731
Ni      4.0196398890     0.7734948145     3.4549544528
Ni      6.6993949607     0.7734948145     3.4549544528
Ni      9.3791606593     0.7735767245     3.4549476731
Ni      2.6796861035     3.0943628507     3.4549544528
Ni      5.3595174248     3.0943188280     3.4549754493
Ni      8.0393487462     3.0943628507     3.4549544528
Ni     10.7190348497     3.0943978248     3.4549200769
Ni      4.0195636394     5.4150988187     3.4549544528
Ni      6.6994712103     5.4150988187     3.4549544528
Ni      9.3792245268     5.4150978053     3.4548996025
Ni     12.0588451726     5.4150978053     3.4548996025
Ni      5.3595174248     7.7358030349     3.4549476731
Ni      8.0393445506     7.7357575715     3.4549200769
Ni     10.7190348497     7.7357173571     3.4548996025
Ni     13.3987251488     7.7357575715     3.4549200769
Ag      1.3398739432     2.3207434538     5.6609426236
Ag      4.0196322315     2.3207357509     5.6609495132
Ag      6.6994026182     2.3207357509     5.6609495132
Ag      9.3791609065     2.3207434538     5.6609426236
Ag      2.6797465089     4.6414852877     5.6609385735
Ag      5.3595174249     4.6414849821     5.6609495132
Ag      8.0392883408     4.6414852877     5.6609385735
Ag     10.7190348497     4.6414853297     5.6609263658
Ag      4.0196316098     6.9622198843     5.6609426236
Ag      6.6994032399     6.9622198843     5.6609426236
Ag      9.3791616317     6.9622138190     5.6609263658
Ag     12.0589080677     6.9622138190     5.6609263658
Ag      5.3595174249     9.2829564839     5.6609492254
Ag      8.0392771831     9.2829496297     5.6609426236
Ag     10.7190348497     9.2829423924     5.6609385735
Ag     13.3987925163     9.2829496297     5.6609426236
Ag      2.6797572180     1.5471585512     8.1754034634
Ag      5.3595174249     1.5471569835     8.1754045278
Ag      8.0392776317     1.5471585512     8.1754034634
Ag     10.7190348497     1.5471603083     8.1754023304
Ag      4.0196359638     3.8678997502     8.1754045278
Ag      6.6993988859     3.8678997502     8.1754045278
Ag      9.3791577866     3.8679005660     8.1754004381
Ag     12.0589119128     3.8679005660     8.1754004381
Ag      5.3595174249     6.1886393816     8.1754034634
Ag      8.0392790427     6.1886386263     8.1754004381
Ag     10.7190348497     6.1886376559     8.1753973355
Ag     13.3987906567     6.1886386263     8.1754004381
Ag      6.6993975555     8.5093763298     8.1754023304
Ag      9.3791561058     8.5093737755     8.1754004381
Ag     12.0589135936     8.5093737755     8.1754004381
Ag     14.7386721439     8.5093763298     8.1754023304
64
Step 4 | ATOMIC_POSITIONS (angstrom) | Cartesian Angstrom
Ni      2.6797587124     1.5471594140     1.5000001930
Ni      5.3595174249     1.5471594140     1.5000001930
Ni      8.0392761373     1.5471594140     1.5000001930
Ni     10.7190348497     1.5471594140     1.5000001930
Ni      4.0196380686     3.8678985350     1.5000001930
Ni      6.6993967811     3.8678985350     1.5000001930
Ni      9.3791554935     3.8678985350     1.5000001930
Ni     12.0589142059     3.8678985350     1.5000001930
Ni      5.3595174249     6.1886376559     1.5000001930
Ni      8.0392761373     6.1886376559     1.5000001930
Ni     10.7190348497     6.1886376559     1.5000001930
Ni     13.3987935621     6.1886376559     1.5000001930
Ni      6.6993967811     8.5093767769     1.5000001930
Ni      9.3791554935     8.5093767769     1.5000001930
Ni     12.0589142059     8.5093767769     1.5000001930
Ni     14.7386729183     8.5093767769     1.5000001930
Ni      1.3399039605     0.7735939123     3.4109322449
Ni      4.0196629644     0.7734927993     3.4109142551
Ni      6.6993718853     0.7734927993     3.4109142551
Ni      9.3791308892     0.7735939123     3.4109322449
Ni      2.6796958960     3.0943838422     3.4109142551
Ni      5.3595174248     3.0943188280     3.4109286579
Ni      8.0393389537     3.0943838422     3.4109142551
Ni     10.7190348497     3.0944454576     3.4108917869
Ni      4.0195503565     5.4150798424     3.4109142551
Ni      6.6994844932     5.4150798424     3.4109142551
Ni      9.3792406584     5.4151071189     3.4108570386
Ni     12.0588290410     5.4151071189     3.4108570386
Ni      5.3595174248     7.7357686593     3.4109322449
Ni      8.0393858018     7.7357337551     3.4108917869
Ni     10.7190348497     7.7356987300     3.4108570386
Ni     13.3986838976     7.7357337551     3.4108917869
Ag      1.3398759925     2.3207444684     5.6126943969
Ag      4.0196343543     2.3207369765     5.6126923484
Ag      6.6994004954     2.3207369765     5.6126923484
Ag      9.3791588572     2.3207444684     5.6126943969
Ag      2.6797485175     4.6414841280     5.6126847667
Ag      5.3595174249     4.6414825309     5.6126923484
Ag      8.0392863322     4.6414841280     5.6126847667
Ag     10.7190348497     4.6414854808     5.6126737016
Ag      4.0196317558     6.9622176023     5.6126943969
Ag      6.6994030939     6.9622176023     5.6126943969
Ag      9.3791617625     6.9622137435     5.6126737016
Ag     12.0589079369     6.9622137435     5.6126737016
Ag      5.3595174249     9.2829564839     5.6127094580
Ag      8.0392790864     9.2829508971     5.6126943969
Ag     10.7190348497     9.2829447118     5.6126847667
Ag     13.3987906130     9.2829508971     5.6126943969
Ag      2.6797578962     1.5471589427     8.2241660282
Ag      5.3595174249     1.5471572105     8.2241658681
Ag      8.0392769535     1.5471589427     8.2241660282
Ag     10.7190348497     1.5471611030     8.2241658440
Ag      4.0196361604     3.8678996367     8.2241658681
Ag      6.6993986893     3.8678996367     8.2241658681
Ag      9.3791577144     3.8679010788     8.2241612643
Ag     12.0589119850     3.8679010788     8.2241612643
Ag      5.3595174249     6.1886385984     8.2241660282
Ag      8.0392794508     6.1886383073     8.2241612643
Ag     10.7190348497     6.1886376559     8.2241566113
Ag     13.3987902486     6.1886383073     8.2241612643
Ag      6.6993982438     8.5093759324     8.2241658440
Ag      9.3791565861     8.5093735816     8.2241612643
Ag     12.0589131133     8.5093735816     8.2241612643
Ag     14.7386714556     8.5093759324     8.2241658440
64
Step 5 | ATOMIC_POSITIONS (angstrom) | Cartesian Angstrom
Ni      2.6797587124     1.5471594140     1.5000001930
Ni      5.3595174249     1.5471594140     1.5000001930
Ni      8.0392761373     1.5471594140     1.5000001930
Ni     10.7190348497     1.5471594140     1.5000001930
Ni      4.0196380686     3.8678985350     1.5000001930
Ni      6.6993967811     3.8678985350     1.5000001930
Ni      9.3791554935     3.8678985350     1.5000001930
Ni     12.0589142059     3.8678985350     1.5000001930
Ni      5.3595174249     6.1886376559     1.5000001930
Ni      8.0392761373     6.1886376559     1.5000001930
Ni     10.7190348497     6.1886376559     1.5000001930
Ni     13.3987935621     6.1886376559     1.5000001930
Ni      6.6993967811     8.5093767769     1.5000001930
Ni      9.3791554935     8.5093767769     1.5000001930
Ni     12.0589142059     8.5093767769     1.5000001930
Ni     14.7386729183     8.5093767769     1.5000001930
Ni      1.3399130858     0.7735991808     3.3673750446
Ni      4.0196682888     0.7734949303     3.3673466850
Ni      6.6993665609     0.7734949303     3.3673466850
Ni      9.3791217639     0.7735991808     3.3673750446
Ni      2.6797004038     3.0943873877     3.3673466850
Ni      5.3595174248     3.0943188280     3.3673510087
Ni      8.0393344459     3.0943873877     3.3673466850
Ni     10.7190348497     3.0944578118     3.3673417548
Ni      4.0195495398     5.4150741658     3.3673466850
Ni      6.6994853099     5.4150741658     3.3673466850
Ni      9.3792472163     5.4151109051     3.3673074301
Ni     12.0588224831     5.4151109051     3.3673074301
Ni      5.3595174248     7.7357581223     3.3673750446
Ni      8.0393965008     7.7357275780     3.3673417548
Ni     10.7190348497     7.7356911575     3.3673074301
Ni     13.3986731986     7.7357275780     3.3673417548
Ag      1.3398746622     2.3207419366     5.5695263692
Ag      4.0196337100     2.3207366045     5.5695174334
Ag      6.6994011397     2.3207366045     5.5695174334
Ag      9.3791601875     2.3207419366     5.5695263692
Ag      2.6797491363     4.6414837708     5.5695155476
Ag      5.3595174249     4.6414832749     5.5695174334
Ag      8.0392857134     4.6414837708     5.5695155476
Ag     10.7190348497     4.6414835640     5.5695076764
Ag      4.0196332832     6.9622200203     5.5695263692
Ag      6.6994015665     6.9622200203     5.5695263692
Ag      9.3791601026     6.9622147019     5.5695076764
Ag     12.0589095968     6.9622147019     5.5695076764
Ag      5.3595174249     9.2829564839     5.5695443456
Ag      8.0392762287     9.2829510109     5.5695263692
Ag     10.7190348497     9.2829454263     5.5695155476
Ag     13.3987934707     9.2829510109     5.5695263692
Ag      2.6797578270     1.5471589028     8.2695209776
Ag      5.3595174249     1.5471574892     8.2695202763
Ag      8.0392770227     1.5471589028     8.2695209776
Ag     10.7190348497     1.5471608403     8.2695210880
Ag      4.0196364017     3.8678994974     8.2695202763
Ag      6.6993984480     3.8678994974     8.2695202763
Ag      9.3791574819     3.8679007163     8.2695147052
Ag     12.0589122175     3.8679007163     8.2695147052
Ag      5.3595174249     6.1886386783     8.2695209776
Ag      8.0392790206     6.1886382873     8.2695147052
Ag     10.7190348497     6.1886376559     8.2695086384
Ag     13.3987906789     6.1886382873     8.2695147052
Ag      6.6993980163     8.5093760638     8.2695210880
Ag      9.3791563884     8.5093739643     8.2695147052
Ag     12.0589133110     8.5093739643     8.2695147052
Ag     14.7386716831     8.5093760638     8.2695210880
64
Step 6 | ATOMIC_POSITIONS (angstrom) | Cartesian Angstrom
Ni      2.6797587124     1.5471594140     1.5000001930
Ni      5.3595174249     1.5471594140     1.5000001930
Ni      8.0392761373     1.5471594140     1.5000001930
Ni     10.7190348497     1.5471594140     1.5000001930
Ni      4.0196380686     3.8678985350     1.5000001930
Ni      6.6993967811     3.8678985350     1.5000001930
Ni      9.3791554935     3.8678985350     1.5000001930
Ni     12.0589142059     3.8678985350     1.5000001930
Ni      5.3595174249     6.1886376559     1.5000001930
Ni      8.0392761373     6.1886376559     1.5000001930
Ni     10.7190348497     6.1886376559     1.5000001930
Ni     13.3987935621     6.1886376559     1.5000001930
Ni      6.6993967811     8.5093767769     1.5000001930
Ni      9.3791554935     8.5093767769     1.5000001930
Ni     12.0589142059     8.5093767769     1.5000001930
Ni     14.7386729183     8.5093767769     1.5000001930
Ni      1.3399211751     0.7736038512     3.3564224060
Ni      4.0196763801     0.7734970985     3.3563855854
Ni      6.6993584696     0.7734970985     3.3563855854
Ni      9.3791136746     0.7736038512     3.3564224060
Ni      2.6797063271     3.0943933109     3.3563855854
Ni      5.3595174248     3.0943188280     3.3563824943
Ni      8.0393285226     3.0943933109     3.3563855854
Ni     10.7190348497     3.0944699893     3.3563857082
Ni      4.0195473719     5.4150660745     3.3563855854
Ni      6.6994874778     5.4150660745     3.3563855854
Ni      9.3792499553     5.4151124865     3.3563508317
Ni     12.0588197441     5.4151124865     3.3563508317
Ni      5.3595174248     7.7357487816     3.3564224060
Ni      8.0394070469     7.7357214892     3.3563857082
Ni     10.7190348497     7.7356879949     3.3563508317
Ni     13.3986626525     7.7357214892     3.3563857082
Ag      1.3398751608     2.3207433122     5.5599329116
Ag      4.0196342031     2.3207368892     5.5599187983
Ag      6.6994006467     2.3207368892     5.5599187983
Ag      9.3791596889     2.3207433122     5.5599329116
Ag      2.6797487173     4.6414840126     5.5599199277
Ag      5.3595174249     4.6414827055     5.5599187983
Ag      8.0392861324     4.6414840126     5.5599199277
Ag     10.7190348497     4.6414846918     5.5599153304
Ag      4.0196323412     6.9622189007     5.5599329116
Ag      6.6994025085     6.9622189007     5.5599329116
Ag      9.3791610792     6.9622141380     5.5599153304
Ag     12.0589086202     6.9622141380     5.5599153304
Ag      5.3595174249     9.2829564839     5.5599524626
Ag      8.0392776693     9.2829507550     5.5599329116
Ag     10.7190348497     9.2829449425     5.5599199277
Ag     13.3987920301     9.2829507550     5.5599329116
Ag      2.6797581779     1.5471591054     8.2811014602
Ag      5.3595174249     1.5471576923     8.2811003210
Ag      8.0392766718     1.5471591054     8.2811014602
Ag     10.7190348497     1.5471608336     8.2811021443
Ag      4.0196365776     3.8678993958     8.2811003210
Ag      6.6993982721     3.8678993958     8.2811003210
Ag      9.3791571555     3.8679006925     8.2810944424
Ag     12.0589125440     3.8679006925     8.2810944424
Ag      5.3595174249     6.1886382732     8.2811014602
Ag      8.0392788367     6.1886380165     8.2810944424
Ag     10.7190348497     6.1886376559     8.2810874633
Ag     13.3987908627     6.1886380165     8.2810944424
Ag      6.6993980105     8.5093760671     8.2811021443
Ag      9.3791565310     8.5093742588     8.2810944424
Ag     12.0589131684     8.5093742588     8.2810944424
Ag     14.7386716889     8.5093760671     8.2811021443
64
Step 7 | ATOMIC_POSITIONS (angstrom) | Cartesian Angstrom
Ni      2.6797587124     1.5471594140     1.5000001930
Ni      5.3595174249     1.5471594140     1.5000001930
Ni      8.0392761373     1.5471594140     1.5000001930
Ni     10.7190348497     1.5471594140     1.5000001930
Ni      4.0196380686     3.8678985350     1.5000001930
Ni      6.6993967811     3.8678985350     1.5000001930
Ni      9.3791554935     3.8678985350     1.5000001930
Ni     12.0589142059     3.8678985350     1.5000001930
Ni      5.3595174249     6.1886376559     1.5000001930
Ni      8.0392761373     6.1886376559     1.5000001930
Ni     10.7190348497     6.1886376559     1.5000001930
Ni     13.3987935621     6.1886376559     1.5000001930
Ni      6.6993967811     8.5093767769     1.5000001930
Ni      9.3791554935     8.5093767769     1.5000001930
Ni     12.0589142059     8.5093767769     1.5000001930
Ni     14.7386729183     8.5093767769     1.5000001930
Ni      1.3399171810     0.7736015452     3.3549685047
Ni      4.0196736148     0.7735036507     3.3549369022
Ni      6.6993612349     0.7735036507     3.3549369022
Ni      9.3791176686     0.7736015452     3.3549685047
Ni      2.6797106189     3.0943876400     3.3549369022
Ni      5.3595174248     3.0943188280     3.3549324614
Ni      8.0393242308     3.0943876400     3.3549369022
Ni     10.7190348497     3.0944572096     3.3549385479
Ni      4.0195544289     5.4150651932     3.3549369022
Ni      6.6994804208     5.4150651932     3.3549369022
Ni      9.3792411654     5.4151074116     3.3549105582
Ni     12.0588285340     5.4151074116     3.3549105582
Ni      5.3595174248     7.7357533935     3.3549685047
Ni      8.0393959793     7.7357278791     3.3549385479
Ni     10.7190348497     7.7356981445     3.3549105582
Ni     13.3986737201     7.7357278791     3.3549385479
Ag      1.3398752584     2.3207427617     5.5594313845
Ag      4.0196342273     2.3207369032     5.5594142672
Ag      6.6994006224     2.3207369032     5.5594142672
Ag      9.3791595913     2.3207427617     5.5594313845
Ag      2.6797493950     4.6414836214     5.5594190390
Ag      5.3595174249     4.6414826775     5.5594142672
Ag      8.0392854547     4.6414836214     5.5594190390
Ag     10.7190348497     4.6414839975     5.5594184512
Ag      4.0196328667     6.9622190914     5.5594313845
Ag      6.6994019830     6.9622190914     5.5594313845
Ag      9.3791604779     6.9622144852     5.5594184512
Ag     12.0589092215     6.9622144852     5.5594184512
Ag      5.3595174249     9.2829564839     5.5594497568
Ag      8.0392772413     9.2829511147     5.5594313845
Ag     10.7190348497     9.2829457250     5.5594190390
Ag     13.3987924581     9.2829511147     5.5594313845
Ag      2.6797583033     1.5471591778     8.2832848034
Ag      5.3595174249     1.5471579996     8.2832834744
Ag      8.0392765465     1.5471591778     8.2832848034
Ag     10.7190348497     1.5471605500     8.2832857178
Ag      4.0196368438     3.8678992421     8.2832834744
Ag      6.6993980059     3.8678992421     8.2832834744
Ag      9.3791568125     3.8679002971     8.2832776408
Ag     12.0589128869     3.8679002971     8.2832776408
Ag      5.3595174249     6.1886381284     8.2832848034
Ag      8.0392783228     6.1886379172     8.2832776408
Ag     10.7190348497     6.1886376559     8.2832704540
Ag     13.3987913766     6.1886379172     8.2832776408
Ag      6.6993977649     8.5093762089     8.2832857178
Ag      9.3791563600     8.5093747536     8.2832776408
Ag     12.0589133394     8.5093747536     8.2832776408
Ag     14.7386719345     8.5093762089     8.2832857178
64
Step 8 | ATOMIC_POSITIONS (angstrom) | Cartesian Angstrom
Ni      2.6797587124     1.5471594140     1.5000001930
Ni      5.3595174249     1.5471594140     1.5000001930
Ni      8.0392761373     1.5471594140     1.5000001930
Ni     10.7190348497     1.5471594140     1.5000001930
Ni      4.0196380686     3.8678985350     1.5000001930
Ni      6.6993967811     3.8678985350     1.5000001930
Ni      9.3791554935     3.8678985350     1.5000001930
Ni     12.0589142059     3.8678985350     1.5000001930
Ni      5.3595174249     6.1886376559     1.5000001930
Ni      8.0392761373     6.1886376559     1.5000001930
Ni     10.7190348497     6.1886376559     1.5000001930
Ni     13.3987935621     6.1886376559     1.5000001930
Ni      6.6993967811     8.5093767769     1.5000001930
Ni      9.3791554935     8.5093767769     1.5000001930
Ni     12.0589142059     8.5093767769     1.5000001930
Ni     14.7386729183     8.5093767769     1.5000001930
Ni      1.3399092260     0.7735969523     3.3539660583
Ni      4.0196682494     0.7735161070     3.3539455539
Ni      6.6993666003     0.7735161070     3.3539455539
Ni      9.3791256236     0.7735969523     3.3539660583
Ni      2.6797187236     3.0943767653     3.3539455539
Ni      5.3595174248     3.0943188280     3.3539426757
Ni      8.0393161261     3.0943767653     3.3539455539
Ni     10.7190348497     3.0944322657     3.3539461675
Ni      4.0195678990     5.4150636116     3.3539455539
Ni      6.6994669507     5.4150636116     3.3539455539
Ni      9.3792242604     5.4150976515     3.3539276849
Ni     12.0588454390     5.4150976515     3.3539276849
Ni      5.3595174248     7.7357625792     3.3539660583
Ni      8.0393743772     7.7357403510     3.3539461675
Ni     10.7190348497     7.7357176647     3.3539276849
Ni     13.3986953222     7.7357403510     3.3539461675
Ag      1.3398758623     2.3207415295     5.5598863266
Ag      4.0196346834     2.3207371665     5.5598643253
Ag      6.6994001663     2.3207371665     5.5598643253
Ag      9.3791589874     2.3207415295     5.5598863266
Ag      2.6797514802     4.6414824175     5.5598757209
Ag      5.3595174249     4.6414821509     5.5598643253
Ag      8.0392833695     4.6414824175     5.5598757209
Ag     10.7190348497     4.6414822384     5.5598824054
Ag      4.0196342359     6.9622191844     5.5598863266
Ag      6.6994006138     6.9622191844     5.5598863266
Ag      9.3791589545     6.9622153647     5.5598824054
Ag     12.0589107449     6.9622153647     5.5598824054
Ag      5.3595174249     9.2829564839     5.5599022120
Ag      8.0392764762     9.2829522538     5.5598863266
Ag     10.7190348497     9.2829481329     5.5598757209
Ag     13.3987932232     9.2829522538     5.5598863266
Ag      2.6797585642     1.5471593284     8.2856862130
Ag      5.3595174249     1.5471586143     8.2856844626
Ag      8.0392762855     1.5471593284     8.2856862130
Ag     10.7190348497     1.5471600479     8.2856876487
Ag      4.0196373761     3.8678989348     8.2856844626
Ag      6.6993974736     3.8678989348     8.2856844626
Ag      9.3791561763     3.8678995970     8.2856790046
Ag     12.0589135231     3.8678995970     8.2856790046
Ag      5.3595174249     6.1886378271     8.2856862130
Ag      8.0392773985     6.1886377163     8.2856790046
Ag     10.7190348497     6.1886376559     8.2856716436
Ag     13.3987923009     6.1886377163     8.2856790046
Ag      6.6993973301     8.5093764599     8.2856876487
Ag      9.3791560719     8.5093756545     8.2856790046
Ag     12.0589136276     8.5093756545     8.2856790046
Ag     14.7386723693     8.5093764599     8.2856876487
64
Step 9 | ATOMIC_POSITIONS (angstrom) | Cartesian Angstrom
Ni      2.6797587124     1.5471594140     1.5000001930
Ni      5.3595174249     1.5471594140     1.5000001930
Ni      8.0392761373     1.5471594140     1.5000001930
Ni     10.7190348497     1.5471594140     1.5000001930
Ni      4.0196380686     3.8678985350     1.5000001930
Ni      6.6993967811     3.8678985350     1.5000001930
Ni      9.3791554935     3.8678985350     1.5000001930
Ni     12.0589142059     3.8678985350     1.5000001930
Ni      5.3595174249     6.1886376559     1.5000001930
Ni      8.0392761373     6.1886376559     1.5000001930
Ni     10.7190348497     6.1886376559     1.5000001930
Ni     13.3987935621     6.1886376559     1.5000001930
Ni      6.6993967811     8.5093767769     1.5000001930
Ni      9.3791554935     8.5093767769     1.5000001930
Ni     12.0589142059     8.5093767769     1.5000001930
Ni     14.7386729183     8.5093767769     1.5000001930
Ni      1.3398959140     0.7735892666     3.3531235002
Ni      4.0196586415     0.7735403079     3.3531185354
Ni      6.6993762082     0.7735403079     3.3531185354
Ni      9.3791389357     0.7735892666     3.3531235002
Ni      2.6797348782     3.0943563442     3.3531185354
Ni      5.3595174248     3.0943188280     3.3531134738
Ni      8.0392999715     3.0943563442     3.3531185354