148
Step 1 | ATOMIC_POSITIONS (angstrom) | Cartesian Angstrom
NI      1.2254504230     0.7101865830     1.4556095020
NI      2.4444040200     2.8214761450     1.4556095020
NI      3.6633576180     4.9327657080     1.4556095020
NI      4.8823112150     7.0440552710     1.4556095020
NI      6.1012648120     9.1553448320     1.4556095020
NI      7.3202184090    11.2666343950     1.4556095020
NI      3.6633576170     0.7101865830     1.4556095020
NI      4.8823112140     2.8214761450     1.4556095020
NI      6.1012648110     4.9327657080     1.4556095020
NI      7.3202184090     7.0440552710     1.4556095020
NI      8.5391720050     9.1553448320     1.4556095020
NI      9.7581256030    11.2666343950     1.4556095020
NI      6.1012648120     0.7101865830     1.4556095020
NI      7.3202184090     2.8214761450     1.4556095020
NI      8.5391720060     4.9327657080     1.4556095020
NI      9.7581256040     7.0440552710     1.4556095020
NI     10.9770792000     9.1553448320     1.4556095020
NI     12.1960327980    11.2666343950     1.4556095020
NI      8.5391720070     0.7101865830     1.4556095020
NI      9.7581256040     2.8214761450     1.4556095020
NI     10.9770792010     4.9327657080     1.4556095020
NI     12.1960327990     7.0440552710     1.4556095020
NI     13.4149863960     9.1553448320     1.4556095020
NI     14.6339399930    11.2666343950     1.4556095020
NI     10.9770792000     0.7101865830     1.4556095020
NI     12.1960327970     2.8214761450     1.4556095020
NI     13.4149863950     4.9327657080     1.4556095020
NI     14.6339399920     7.0440552710     1.4556095020
NI     15.8528935890     9.1553448320     1.4556095020
NI     17.0718471870    11.2666343950     1.4556095020
NI     13.4149863960     0.7101865830     1.4556095020
NI     14.6339399920     2.8214761450     1.4556095020
NI     15.8528935900     4.9327657080     1.4556095020
NI     17.0718471870     7.0440552710     1.4556095020
NI     18.2908007840     9.1553448320     1.4556095020
NI     19.5097543820    11.2666343950     1.4556095020
NI     13.4528121980     7.7633129005     3.4075907186
NI     14.6465400886     9.8311026663     3.3945876015
NI     15.8399812369     7.7655177957     3.3939273786
NI     12.2437058544     9.8365379157     3.4414474751
NI     14.6435597196     5.6885862821     3.4217339532
NI     17.0345815611     9.8320806524     3.4123564572
NI     11.0255926498     7.7542323629     3.4571203540
NI     13.4416436014    11.9226091044     3.4370194575
NI     12.2340034026     5.6737986551     3.4384715363
NI     15.8435069070    11.9184787517     3.4289481201
NI     17.0464832325     5.6820096510     3.4332731346
NI     18.2409769844     7.7581569151     3.4261171822
NI      9.7912523238     9.8433905412     3.4781941781
NI     11.0140379993    11.9459808315     3.4624566593
NI     13.4250002197     3.5689987423     3.4620115467
NI     18.2561781254    11.9329057244     3.4524291014
NI     15.8511895325     3.5733518180     3.4554289787
NI     19.4639567454     9.8391696811     3.4619294895
NI      4.8469223507     5.6613674009     3.4508653412
NI      7.3274139918     1.3739123370     3.4579498220
NI      9.7885182336     5.6545129500     3.4685767066
NI      3.6531744956     3.5544564374     3.4709465986
NI      6.0683902140     7.7476024477     3.4793000355
NI      4.9004319801     1.3920348015     3.4771966316
NI      8.5541542067     7.7466103971     3.4783595093
NI      9.7466189234     1.3838083884     3.4689427405
NI     10.9900270124     3.5420919855     3.4740691949
NI      2.4590733775     1.4208653719     3.4921827393
NI      7.3101762923     9.8458991365     3.4855856193
NI     12.1826844275     1.4108412767     3.4829806773
NI      6.0954404289     3.5243431676     3.4816467022
NI      7.3125952127     5.6459061736     3.4845168367
NI      8.5439820635     3.5175898524     3.4903857735
NI      8.5499316713    11.9582850213     3.4905688329
NI     14.6310813957     1.4296029683     3.4955819836
NI     20.7014391354    11.9551868046     3.4790182854
AG     -0.1010272824    -0.0237705990     5.7908948248
AG      5.7813033537     5.0379801330     5.7717574066
AG      7.2034713863     2.5391979576     5.7745404798
AG      8.6594901746     5.0587654028     5.7704022667
AG      1.3518445389     2.4720794977     5.7793687945
AG      5.8054147739    10.1623393232     5.8231492831
AG      2.7768967813    -0.0223793827     5.8008631383
AG      8.6428704297    10.1525501360     5.8418666413
AG     11.6284911982     0.0201949817     5.8044617161
AG     13.0701410319     2.4889464651     5.7857388116
AG      4.2737967475     2.4967733250     5.7933592961
AG      7.2386807905     7.6195575158     5.8208465200
AG     10.1311591468     2.5403912464     5.7845215957
AG      2.8566666575     4.9914400888     5.8208448885
AG      4.3545474848     7.5755365145     5.8196040521
AG      5.7100853136     0.0174513517     5.8146539857
AG     10.0627881332     7.6128453616     5.8342247942
AG      8.6807804224     0.0426590356     5.8178324703
AG     11.5441520212     5.0394736199     5.8012653710
AG     11.5024272409    10.1677595591     5.8384660127
AG     14.5166852444     4.9862768039     5.8249536683
AG     17.5148124311    10.1472967753     5.8404406741
AG     12.9907102530     7.5810034453     5.8444393832
AG     14.5032494633    10.1391095029     5.8515196239
AG     16.0067953287     7.5504172374     5.8593725831
AG      5.7467347514     3.3573770445     8.0905877045
AG      7.1940625716     5.8882892197     8.0918304384
AG      8.6649550706     3.3593088585     8.0803250255
AG      4.2932601780     5.8872177949     8.1063155108
AG      7.2066400563     0.8317916569     8.1082966465
AG     10.1222491923     5.8957832296     8.0846396611
AG      1.3513512749     0.8506462144     8.1017890201
AG      7.1298584605    11.0357903699     8.1757697523
AG     13.0526429559     0.8637039506     8.1264823764
AG      2.8222984384     3.3454358075     8.1144171184
AG      5.7351345085     8.4408225866     8.1160303653
AG      4.2844217790     0.8374464967     8.1197506544
AG      8.6603008378     8.3838882928     8.1748179191
AG     10.1387816210     0.8492902491     8.1147878889
AG     11.6065408542     3.3614985835     8.0826165527
AG     11.6028202023     8.4331432866     8.1219613363
AG     13.0672068986    10.9649849129     8.1247369878
AG     13.0717421279     5.8850350624     8.1036133829
AG     15.9925880014    10.9705083426     8.1079609396
AG     15.9964810865     5.8690391575     8.1256956961
AG     17.4581667142     8.4274090183     8.1210083703
AG     10.1799997173    11.0152391554     8.1840967738
AG     14.5249466059     3.3534721880     8.1259653797
AG     18.8987260051    10.9904617890     8.1370700743
AG     14.5246939363     8.4149294144     8.1253100048
O      10.1248979928     5.8821747496    10.4078204608
H      12.1684577470     5.9665427722    10.5732834136
C      11.1938458248     5.6384407492    10.9807703457
H       9.2740381185     4.8263301625    11.8997556839
O       9.8712712884     4.3976300961    12.5516181262
C      11.1738728487     4.8919174214    12.2759985459
H      11.8816293358     4.0468212788    12.1973902062
O      12.9371844044     6.3247651357    12.9447923249
C      11.6835532431     5.8383277313    13.4003550944
H      10.9340904039     6.6493101544    13.5025935685
H      13.4262468152     6.6389586680    13.7413401369
H      12.5679920076     4.3286885344    14.6632307858
C      11.7915566734     5.1143717483    14.7583047508
O      10.5434111419     4.5433422435    15.1603511510
O      13.5262063627     6.5650783196    15.5452610975
C      12.2099383812     6.0701339311    15.8893223458
H      10.0220308674     4.3340001520    14.3536295097
H      11.4785603548     6.8978257348    15.9333290527
H      13.8128728613     7.1938605254    16.2306378024
H      12.8786687627     4.4675375117    17.1793421432
C      12.2583494673     5.3815034077    17.2612812993
O      10.9771460597     5.1168766347    17.8091493885
H      12.7663134603     6.0636777296    17.9636255752
H      10.4671366881     4.6721683753    17.1027437225
O       8.6417345996    10.1433461034     9.7013258365
H       8.6705735944    10.1370522083    10.6730533315
