148
Step 1 | ATOMIC_POSITIONS (angstrom) | Cartesian Angstrom
NI      1.2254504230     0.7101865830     1.4556095020
NI      2.4444040200     2.8214761450     1.4556095020
NI      3.6633576180     4.9327657080     1.4556095020
NI      4.8823112150     7.0440552710     1.4556095020
NI      6.1012648120     9.1553448320     1.4556095020
NI      7.3202184090    11.2666343950     1.4556095020
NI      3.6633576170     0.7101865830     1.4556095020
NI      4.8823112140     2.8214761450     1.4556095020
NI      6.1012648110     4.9327657080     1.4556095020
NI      7.3202184090     7.0440552710     1.4556095020
NI      8.5391720050     9.1553448320     1.4556095020
NI      9.7581256030    11.2666343950     1.4556095020
NI      6.1012648120     0.7101865830     1.4556095020
NI      7.3202184090     2.8214761450     1.4556095020
NI      8.5391720060     4.9327657080     1.4556095020
NI      9.7581256040     7.0440552710     1.4556095020
NI     10.9770792000     9.1553448320     1.4556095020
NI     12.1960327980    11.2666343950     1.4556095020
NI      8.5391720070     0.7101865830     1.4556095020
NI      9.7581256040     2.8214761450     1.4556095020
NI     10.9770792010     4.9327657080     1.4556095020
NI     12.1960327990     7.0440552710     1.4556095020
NI     13.4149863960     9.1553448320     1.4556095020
NI     14.6339399930    11.2666343950     1.4556095020
NI     10.9770792000     0.7101865830     1.4556095020
NI     12.1960327970     2.8214761450     1.4556095020
NI     13.4149863950     4.9327657080     1.4556095020
NI     14.6339399920     7.0440552710     1.4556095020
NI     15.8528935890     9.1553448320     1.4556095020
NI     17.0718471870    11.2666343950     1.4556095020
NI     13.4149863960     0.7101865830     1.4556095020
NI     14.6339399920     2.8214761450     1.4556095020
NI     15.8528935900     4.9327657080     1.4556095020
NI     17.0718471870     7.0440552710     1.4556095020
NI     18.2908007840     9.1553448320     1.4556095020
NI     19.5097543820    11.2666343950     1.4556095020
NI     13.4528121980     7.7633129005     3.4075907186
NI     14.6465400886     9.8311026663     3.3945876015
NI     15.8399812369     7.7655177957     3.3939273786
NI     12.2437058544     9.8365379157     3.4414474751
NI     14.6435597196     5.6885862821     3.4217339532
NI     17.0345815611     9.8320806524     3.4123564572
NI     11.0255926498     7.7542323629     3.4571203540
NI     13.4416436014    11.9226091044     3.4370194575
NI     12.2340034026     5.6737986551     3.4384715363
NI     15.8435069070    11.9184787517     3.4289481201
NI     17.0464832325     5.6820096510     3.4332731346
NI     18.2409769844     7.7581569151     3.4261171822
NI      9.7912523238     9.8433905412     3.4781941781
NI     11.0140379993    11.9459808315     3.4624566593
NI     13.4250002197     3.5689987423     3.4620115467
NI     18.2561781254    11.9329057244     3.4524291014
NI     15.8511895325     3.5733518180     3.4554289787
NI     19.4639567454     9.8391696811     3.4619294895
NI      4.8469223507     5.6613674009     3.4508653412
NI      7.3274139918     1.3739123370     3.4579498220
NI      9.7885182336     5.6545129500     3.4685767066
NI      3.6531744956     3.5544564374     3.4709465986
NI      6.0683902140     7.7476024477     3.4793000355
NI      4.9004319801     1.3920348015     3.4771966316
NI      8.5541542067     7.7466103971     3.4783595093
NI      9.7466189234     1.3838083884     3.4689427405
NI     10.9900270124     3.5420919855     3.4740691949
NI      2.4590733775     1.4208653719     3.4921827393
NI      7.3101762923     9.8458991365     3.4855856193
NI     12.1826844275     1.4108412767     3.4829806773
NI      6.0954404289     3.5243431676     3.4816467022
NI      7.3125952127     5.6459061736     3.4845168367
NI      8.5439820635     3.5175898524     3.4903857735
NI      8.5499316713    11.9582850213     3.4905688329
NI     14.6310813957     1.4296029683     3.4955819836
NI     20.7014391354    11.9551868046     3.4790182854
AG     -0.1010272824    -0.0237705990     5.7908948248
AG      5.7813033537     5.0379801330     5.7717574066
AG      7.2034713863     2.5391979576     5.7745404798
AG      8.6594901746     5.0587654028     5.7704022667
AG      1.3518445389     2.4720794977     5.7793687945
AG      5.8054147739    10.1623393232     5.8231492831
AG      2.7768967813    -0.0223793827     5.8008631383
AG      8.6428704297    10.1525501360     5.8418666413
AG     11.6284911982     0.0201949817     5.8044617161
AG     13.0701410319     2.4889464651     5.7857388116
AG      4.2737967475     2.4967733250     5.7933592961
AG      7.2386807905     7.6195575158     5.8208465200
AG     10.1311591468     2.5403912464     5.7845215957
AG      2.8566666575     4.9914400888     5.8208448885
AG      4.3545474848     7.5755365145     5.8196040521
AG      5.7100853136     0.0174513517     5.8146539857
AG     10.0627881332     7.6128453616     5.8342247942
AG      8.6807804224     0.0426590356     5.8178324703
AG     11.5441520212     5.0394736199     5.8012653710
AG     11.5024272409    10.1677595591     5.8384660127
AG     14.5166852444     4.9862768039     5.8249536683
AG     17.5148124311    10.1472967753     5.8404406741
AG     12.9907102530     7.5810034453     5.8444393832
AG     14.5032494633    10.1391095029     5.8515196239
AG     16.0067953287     7.5504172374     5.8593725831
AG      5.7467347514     3.3573770445     8.0905877045
AG      7.1940625716     5.8882892197     8.0918304384
AG      8.6649550706     3.3593088585     8.0803250255
AG      4.2932601780     5.8872177949     8.1063155108
AG      7.2066400563     0.8317916569     8.1082966465
AG     10.1222491923     5.8957832296     8.0846396611
AG      1.3513512749     0.8506462144     8.1017890201
AG      7.1298584605    11.0357903699     8.1757697523
AG     13.0526429559     0.8637039506     8.1264823764
AG      2.8222984384     3.3454358075     8.1144171184
AG      5.7351345085     8.4408225866     8.1160303653
AG      4.2844217790     0.8374464967     8.1197506544
AG      8.6603008378     8.3838882928     8.1748179191
AG     10.1387816210     0.8492902491     8.1147878889
AG     11.6065408542     3.3614985835     8.0826165527
AG     11.6028202023     8.4331432866     8.1219613363
AG     13.0672068986    10.9649849129     8.1247369878
AG     13.0717421279     5.8850350624     8.1036133829
AG     15.9925880014    10.9705083426     8.1079609396
AG     15.9964810865     5.8690391575     8.1256956961
AG     17.4581667142     8.4274090183     8.1210083703
AG     10.1799997173    11.0152391554     8.1840967738
AG     14.5249466059     3.3534721880     8.1259653797
AG     18.8987260051    10.9904617890     8.1370700743
AG     14.5246939363     8.4149294144     8.1253100048
O      10.1248979928     5.8821747496    10.4078204608
H      12.1684577470     5.9665427722    10.5732834136
C      11.1938458248     5.6384407492    10.9807703457
H       9.2740381185     4.8263301625    11.8997556839
O       9.8712712884     4.3976300961    12.5516181262
C      11.1738728487     4.8919174214    12.2759985459
H      11.8816293358     4.0468212788    12.1973902062
O      12.9371844044     6.3247651357    12.9447923249
C      11.6835532431     5.8383277313    13.4003550944
H      10.9340904039     6.6493101544    13.5025935685
H      13.4262468152     6.6389586680    13.7413401369
H      12.5679920076     4.3286885344    14.6632307858
C      11.7915566734     5.1143717483    14.7583047508
O      10.5434111419     4.5433422435    15.1603511510
O      13.5262063627     6.5650783196    15.5452610975
C      12.2099383812     6.0701339311    15.8893223458
H      10.0220308674     4.3340001520    14.3536295097
H      11.4785603548     6.8978257348    15.9333290527
H      13.8128728613     7.1938605254    16.2306378024
H      12.8786687627     4.4675375117    17.1793421432
C      12.2583494673     5.3815034077    17.2612812993
O      10.9771460597     5.1168766347    17.8091493885
H      12.7663134603     6.0636777296    17.9636255752
H      10.4671366881     4.6721683753    17.1027437225
O       8.6417345996    10.1433461034     9.7013258365
H       8.6705735944    10.1370522083    10.6730533315
148
Step 2 | ATOMIC_POSITIONS (angstrom) | Cartesian Angstrom
NI      1.2254504230     0.7101865830     1.4556095020
NI      2.4444040200     2.8214761450     1.4556095020
NI      3.6633576180     4.9327657080     1.4556095020
NI      4.8823112150     7.0440552710     1.4556095020
NI      6.1012648120     9.1553448320     1.4556095020
NI      7.3202184090    11.2666343950     1.4556095020
NI      3.6633576170     0.7101865830     1.4556095020
NI      4.8823112140     2.8214761450     1.4556095020
NI      6.1012648110     4.9327657080     1.4556095020
NI      7.3202184090     7.0440552710     1.4556095020
NI      8.5391720050     9.1553448320     1.4556095020
NI      9.7581256030    11.2666343950     1.4556095020
NI      6.1012648120     0.7101865830     1.4556095020
NI      7.3202184090     2.8214761450     1.4556095020
NI      8.5391720060     4.9327657080     1.4556095020
NI      9.7581256040     7.0440552710     1.4556095020
NI     10.9770792000     9.1553448320     1.4556095020
NI     12.1960327980    11.2666343950     1.4556095020
NI      8.5391720070     0.7101865830     1.4556095020
NI      9.7581256040     2.8214761450     1.4556095020
NI     10.9770792010     4.9327657080     1.4556095020
NI     12.1960327990     7.0440552710     1.4556095020
NI     13.4149863960     9.1553448320     1.4556095020
NI     14.6339399930    11.2666343950     1.4556095020
NI     10.9770792000     0.7101865830     1.4556095020
NI     12.1960327970     2.8214761450     1.4556095020
NI     13.4149863950     4.9327657080     1.4556095020
NI     14.6339399920     7.0440552710     1.4556095020
NI     15.8528935890     9.1553448320     1.4556095020
NI     17.0718471870    11.2666343950     1.4556095020
NI     13.4149863960     0.7101865830     1.4556095020
NI     14.6339399920     2.8214761450     1.4556095020
NI     15.8528935900     4.9327657080     1.4556095020
NI     17.0718471870     7.0440552710     1.4556095020
NI     18.2908007840     9.1553448320     1.4556095020
NI     19.5097543820    11.2666343950     1.4556095020
NI     13.4529601474     7.7631868625     3.4076450676
NI     14.6464728734     9.8310253864     3.3947850451
NI     15.8394445257     7.7659041175     3.3939454554
NI     12.2438507873     9.8359516924     3.4412361501
NI     14.6432913429     5.6888667355     3.4218074552
NI     17.0348218589     9.8323365730     3.4123009997
NI     11.0258243359     7.7538932720     3.4565635535
NI     13.4421982112    11.9231892591     3.4368149520
NI     12.2339472889     5.6741140575     3.4383271318
NI     15.8434337292    11.9183504043     3.4284538395
NI     17.0466565710     5.6820302645     3.4330119751
NI     18.2409977590     7.7583691775     3.4256455307
NI      9.7913246738     9.8436198253     3.4779332869
NI     11.0140329142    11.9458155700     3.4622611461
NI     13.4253819702     3.5688823084     3.4620375740
NI     18.2558888440    11.9329056982     3.4522137462
NI     15.8511314538     3.5734850161     3.4550884632
NI     19.4638316944     9.8394846177     3.4615637572
NI      4.8470315175     5.6614963041     3.4508438899
NI      7.3275876523     1.3736667836     3.4578687185
NI      9.7883845579     5.6542879498     3.4675787789
NI      3.6530248794     3.5541848457     3.4715213145
NI      6.0684045091     7.7475707531     3.4789079487
NI      4.9005693300     1.3920461490     3.4771358729
NI      8.5543188447     7.7465217228     3.4784512864
NI      9.7459122860     1.3835466699     3.4691517928
NI     10.9897206296     3.5420951952     3.4745062102
NI      2.4585109886     1.4206129033     3.4918569129
NI      7.3102758894     9.8456740230     3.4859023883
NI     12.1824521201     1.4109848017     3.4827563465
NI      6.0958167322     3.5244069436     3.4815865378
NI      7.3125602935     5.6457306977     3.4856663960
NI      8.5437178313     3.5172676257     3.4907602479
NI      8.5497859238    11.9590707008     3.4910273295
NI     14.6313667675     1.4293469000     3.4956763076
NI     20.7014698504    11.9549943206     3.4791087870
AG     -0.1005661716    -0.0240004667     5.7908631469
AG      5.7810386282     5.0379318388     5.7712140700
AG      7.2032212478     2.5399702999     5.7735261205
AG      8.6601796880     5.0593287620     5.7705552697
AG      1.3520816289     2.4718970667     5.7793896480
AG      5.8051446123    10.1624831980     5.8226861862
AG      2.7766981405    -0.0221794657     5.8011549500
AG      8.6434588738    10.1522495306     5.8425189743
AG     11.6289611992     0.0199307824     5.8039311975
AG     13.0703848873     2.4892614689     5.7850018839
AG      4.2737256539     2.4971520667     5.7933658566
AG      7.2389881811     7.6189677817     5.8208562499
AG     10.1310102179     2.5401123158     5.7842637781
AG      2.8567139820     4.9917437853     5.8208241764
AG      4.3548817720     7.5755239429     5.8196745101
AG      5.7105402639     0.0184042808     5.8149119477
AG     10.0626195368     7.6124019449     5.8336525927
AG      8.6813740727     0.0426724966     5.8177685790
AG     11.5435339169     5.0405045045     5.8004706787
AG     11.5023492080    10.1673625198     5.8393018041
AG     14.5160008119     4.9858624635     5.8243659322
AG     17.5143704224    10.1475601940     5.8402819753
AG     12.9905410115     7.5802758098     5.8438412655
AG     14.5029084134    10.1399328573     5.8514468721
AG     16.0068953928     7.5506934709     5.8590664126
AG      5.7462117455     3.3577889851     8.0906305252
AG      7.1917738068     5.8879256406     8.0912074877
AG      8.6648030503     3.3588197417     8.0807075973
AG      4.2926047111     5.8870318242     8.1065050608
AG      7.2062404555     0.8321136724     8.1080591018
AG     10.1193554599     5.8952284451     8.0600241409
AG      1.3512544105     0.8507160533     8.1023060534
AG      7.1307751571    11.0351284340     8.1751334469
AG     13.0524231168     0.8629780632     8.1261964360
AG      2.8218397677     3.3453990378     8.1147597443
AG      5.7346547576     8.4409871784     8.1160135242
AG      4.2840493372     0.8384743333     8.1196607115
AG      8.6583280906     8.3857025643     8.1734841005
AG     10.1386313824     0.8488346666     8.1147792145
AG     11.6065010175     3.3600312330     8.0826328728
AG     11.6044217224     8.4359752893     8.1196185387
AG     13.0672016268    10.9652911019     8.1253328271
AG     13.0757321898     5.8846111064     8.0990678511
AG     15.9923280171    10.9706820215     8.1082388647
AG     15.9964236229     5.8695969967     8.1260946738
AG     17.4581391178     8.4276882415     8.1210032392
AG     10.1803760502    11.0146539500     8.1835579515
AG     14.5249268938     3.3534818744     8.1262286759
AG     18.8984799106    10.9900058766     8.1367787301
AG     14.5246053542     8.4155383145     8.1260046132
O      10.1238999083     5.8797367787    10.4331731148
H      12.1681979075     5.9685906348    10.5732210923
C      11.1944622358     5.6373965687    10.9905096064
H       9.2724107523     4.8253864884    11.8998341543
O       9.8721191300     4.3982290887    12.5508926114
C      11.1749715798     4.8901372655    12.2769865305
H      11.8835897000     4.0457763899    12.1967014493
O      12.9363489896     6.3256548215    12.9445514426
C      11.6841061452     5.8396676731    13.4015467264
H      10.9346196683     6.6508022915    13.5026277318
H      13.4269652120     6.6385743644    13.7419411087
H      12.5677698229     4.3289024518    14.6630822984
C      11.7915697466     5.1144610637    14.7589632213
O      10.5439073978     4.5433940119    15.1603652659
O      13.5262865226     6.5640146430    15.5446966426
C      12.2100539401     6.0701473434    15.8894292106
H      10.0215551939     4.3339098201    14.3541333692
H      11.4790010730     6.8978435125    15.9332148789
H      13.8121021237     7.1940786162    16.2295179288
H      12.8781795685     4.4678211236    17.1799710516
C      12.2579887060     5.3812852442    17.2612239166
O      10.9772667523     5.1178903109    17.8087444995
H      12.7664020577     6.0614259030    17.9640930772
H      10.4669125430     4.6726259544    17.1034283439
O       8.6432797723    10.1420059397     9.7015567494
H       8.6697122354    10.1375022907    10.6732484216
148
Step 3 | ATOMIC_POSITIONS (angstrom) | Cartesian Angstrom
NI      1.2254504230     0.7101865830     1.4556095020
NI      2.4444040200     2.8214761450     1.4556095020
NI      3.6633576180     4.9327657080     1.4556095020
NI      4.8823112150     7.0440552710     1.4556095020
NI      6.1012648120     9.1553448320     1.4556095020
NI      7.3202184090    11.2666343950     1.4556095020
NI      3.6633576170     0.7101865830     1.4556095020
NI      4.8823112140     2.8214761450     1.4556095020
NI      6.1012648110     4.9327657080     1.4556095020
NI      7.3202184090     7.0440552710     1.4556095020
NI      8.5391720050     9.1553448320     1.4556095020
NI      9.7581256030    11.2666343950     1.4556095020
NI      6.1012648120     0.7101865830     1.4556095020
NI      7.3202184090     2.8214761450     1.4556095020
NI      8.5391720060     4.9327657080     1.4556095020
NI      9.7581256040     7.0440552710     1.4556095020
NI     10.9770792000     9.1553448320     1.4556095020
NI     12.1960327980    11.2666343950     1.4556095020
NI      8.5391720070     0.7101865830     1.4556095020
NI      9.7581256040     2.8214761450     1.4556095020
NI     10.9770792010     4.9327657080     1.4556095020
NI     12.1960327990     7.0440552710     1.4556095020
NI     13.4149863960     9.1553448320     1.4556095020
NI     14.6339399930    11.2666343950     1.4556095020
NI     10.9770792000     0.7101865830     1.4556095020
NI     12.1960327970     2.8214761450     1.4556095020
NI     13.4149863950     4.9327657080     1.4556095020
NI     14.6339399920     7.0440552710     1.4556095020
NI     15.8528935890     9.1553448320     1.4556095020
NI     17.0718471870    11.2666343950     1.4556095020
NI     13.4149863960     0.7101865830     1.4556095020
NI     14.6339399920     2.8214761450     1.4556095020
NI     15.8528935900     4.9327657080     1.4556095020
NI     17.0718471870     7.0440552710     1.4556095020
NI     18.2908007840     9.1553448320     1.4556095020
NI     19.5097543820    11.2666343950     1.4556095020
NI     13.4531380561     7.7629821542     3.4075953305
NI     14.6463895818     9.8309467660     3.3950651616
NI     15.8389267242     7.7662382596     3.3939415892
NI     12.2439692987     9.8353906397     3.4411701056
NI     14.6430751666     5.6891150131     3.4218074281
NI     17.0350702475     9.8325758577     3.4122248526
NI     11.0260197727     7.7534705178     3.4558674126
NI     13.4426704527    11.9238250303     3.4366697734
NI     12.2339542816     5.6742854177     3.4379952915
NI     15.8433826857    11.9182533715     3.4279402041
NI     17.0467735030     5.6820170222     3.4326764028
NI     18.2410184180     7.7585668293     3.4251725109
NI      9.7913588473     9.8439066122     3.4776639953
NI     11.0140391089    11.9456780009     3.4621263220
NI     13.4257925126     3.5688086607     3.4618980789
NI     18.2556229790    11.9330346258     3.4519368295
NI     15.8510537658     3.5736387829     3.4546909275
NI     19.4637627152     9.8398613988     3.4610981378
NI      4.8471006437     5.6615695574     3.4507364882
NI      7.3277244081     1.3734487151     3.4577453694
NI      9.7881622060     5.6539122023     3.4663473213
NI      3.6528318896     3.5538781280     3.4721658426
NI      6.0684574602     7.7475409138     3.4784482974
NI      4.9006281232     1.3921626431     3.4770688869
NI      8.5545128336     7.7463988326     3.4785269724
NI      9.7451640712     1.3832613968     3.4693796491
NI     10.9894411046     3.5420751697     3.4749662776
NI      2.4578953686     1.4204024707     3.4914263069
NI      7.3104623311     9.8454752208     3.4863513469
NI     12.1821959036     1.4111950212     3.4824126174
NI      6.0961247129     3.5244723107     3.4813992148
NI      7.3125183289     5.6455153715     3.4870566697
NI      8.5434365085     3.5169125169     3.4911713397
NI      8.5496017085    11.9599207695     3.4915954735
NI     14.6315913369     1.4291478370     3.4957807088
NI     20.7015158412    11.9548676619     3.4792166084
AG     -0.0999468912    -0.0242976471     5.7908560989
AG      5.7806486248     5.0378562133     5.7704871620
AG      7.2029506354     2.5410652626     5.7722984980
AG      8.6600510999     5.0594233937     5.7694806108
AG      1.3524033147     2.4717063070     5.7793744195
AG      5.8048551999    10.1626279103     5.8220580389
AG      2.7765354367    -0.0219295424     5.8014956702
AG      8.6442116994    10.1518501197     5.8432034484
AG     11.6296596976     0.0196168724     5.8032049626
AG     13.0706788175     2.4896075228     5.7841154034
AG      4.2735957946     2.4976757794     5.7933825364
AG      7.2392606697     7.6182153385     5.8207399706
AG     10.1308237439     2.5397406648     5.7839821938
AG      2.8566828609     4.9921601238     5.8207800767
AG      4.3553041271     7.5755218530     5.8196580802
AG      5.7111055811     0.0196924077     5.8152069530
AG     10.0624024215     7.6131363995     5.8315899643
AG      8.6821622877     0.0427137643     5.8176289642
AG     11.5437229417     5.0410658733     5.7981552134
AG     11.5023687064    10.1669905657     5.8400275832
AG     14.5153319693     4.9851137450     5.8233235977
AG     17.5137265075    10.1479096837     5.8401024637
AG     12.9904225815     7.5794485849     5.8428562530
AG     14.5023744732    10.1410786741     5.8514293456
AG     16.0070041532     7.5510713980     5.8587472610
AG      5.7454968472     3.3583319369     8.0906648700
AG      7.1886391927     5.8874525469     8.0904662698
AG      8.6645321324     3.3581151561     8.0812264557
AG      4.2915995620     5.8868002604     8.1067824610
AG      7.2057021995     0.8326315714     8.1077027331
AG     10.1157687132     5.8946316288     8.0325047368
AG      1.3510864978     0.8507749762     8.1030441681
AG      7.1320843107    11.0341899067     8.1743203225
AG     13.0521786998     0.8619270599     8.1257324691
AG      2.8211442775     3.3454148517     8.1152237588
AG      5.7339260503     8.4412378991     8.1159840209
AG      4.2834999980     0.8398385658     8.1195511966
AG      8.6557434314     8.3878311433     8.1717728170
AG     10.1384212338     0.8481592478     8.1147549646
AG     11.6064266730     3.3582437868     8.0825705396
AG     11.6064121377     8.4394209634     8.1165822535
AG     13.0672636293    10.9659194809     8.1261831332
AG     13.0806212688     5.8840335016     8.0931732098
AG     15.9919428096    10.9709390399     8.1086369303
AG     15.9964686537     5.8703812913     8.1265793137
AG     17.4580602025     8.4280703394     8.1209786228
AG     10.1808522441    11.0140278320     8.1829592440
AG     14.5249224130     3.3533619243     8.1265342299
AG     18.8982055716    10.9893848287     8.1363612944
AG     14.5245910761     8.4164676670     8.1268618736
O      10.1171177933     5.8799863795    10.4584928865
H      12.1654222448     5.9702731327    10.5749970859
C      11.1984905273     5.6388283852    10.9988248474
H       9.2711655667     4.8250966838    11.8989407847
O       9.8737493578     4.3969406690    12.5524655241
C      11.1793557565     4.8846744492    12.2862388802
H      11.8859451253     4.0443401101    12.1968523953
O      12.9381169992     6.3284499548    12.9471069328
C      11.6838425367     5.8391230898    13.4029407762
H      10.9351321478     6.6526876248    13.5026647653
H      13.4266725777     6.6371387767    13.7403052431
H      12.5676966923     4.3291163307    14.6628975937
C      11.7916899385     5.1154304179    14.7594270162
O      10.5439167725     4.5432350422    15.1605273196
O      13.5271163886     6.5635847680    15.5449586752
C      12.2101336999     6.0693160101    15.8898371991
H      10.0212822429     4.3339228559    14.3547578221
H      11.4794971771     6.8981595252    15.9330938473
H      13.8108529439     7.1936944605    16.2269194680
H      12.8776640837     4.4674986959    17.1805826400
C      12.2576646674     5.3812077036    17.2607308258
O      10.9770531935     5.1195513730    17.8092391096
H      12.7669298912     6.0589900778    17.9652537221
H      10.4661390433     4.6728948388    17.1036860359
O       8.6454253950    10.1402954124     9.7012893743
H       8.6684988710    10.1380644379    10.6740340262
148
Step 4 | ATOMIC_POSITIONS (angstrom) | Cartesian Angstrom
NI      1.2254504230     0.7101865830     1.4556095020
NI      2.4444040200     2.8214761450     1.4556095020
NI      3.6633576180     4.9327657080     1.4556095020
NI      4.8823112150     7.0440552710     1.4556095020
NI      6.1012648120     9.1553448320     1.4556095020
NI      7.3202184090    11.2666343950     1.4556095020
NI      3.6633576170     0.7101865830     1.4556095020
NI      4.8823112140     2.8214761450     1.4556095020
NI      6.1012648110     4.9327657080     1.4556095020
NI      7.3202184090     7.0440552710     1.4556095020
NI      8.5391720050     9.1553448320     1.4556095020
NI      9.7581256030    11.2666343950     1.4556095020
NI      6.1012648120     0.7101865830     1.4556095020
NI      7.3202184090     2.8214761450     1.4556095020
NI      8.5391720060     4.9327657080     1.4556095020
NI      9.7581256040     7.0440552710     1.4556095020
NI     10.9770792000     9.1553448320     1.4556095020
NI     12.1960327980    11.2666343950     1.4556095020
NI      8.5391720070     0.7101865830     1.4556095020
NI      9.7581256040     2.8214761450     1.4556095020
NI     10.9770792010     4.9327657080     1.4556095020
NI     12.1960327990     7.0440552710     1.4556095020
NI     13.4149863960     9.1553448320     1.4556095020
NI     14.6339399930    11.2666343950     1.4556095020
NI     10.9770792000     0.7101865830     1.4556095020
NI     12.1960327970     2.8214761450     1.4556095020
NI     13.4149863950     4.9327657080     1.4556095020
NI     14.6339399920     7.0440552710     1.4556095020
NI     15.8528935890     9.1553448320     1.4556095020
NI     17.0718471870    11.2666343950     1.4556095020
NI     13.4149863960     0.7101865830     1.4556095020
NI     14.6339399920     2.8214761450     1.4556095020
NI     15.8528935900     4.9327657080     1.4556095020
NI     17.0718471870     7.0440552710     1.4556095020
NI     18.2908007840     9.1553448320     1.4556095020
NI     19.5097543820    11.2666343950     1.4556095020
NI     13.4531977668     7.7629205354     3.4074304407
NI     14.6463736377     9.8309407916     3.3951920658
NI     15.8388811522     7.7663021352     3.3939043045
NI     12.2439789316     9.8353116333     3.4413023856
NI     14.6430992460     5.6891923836     3.4217163151
NI     17.0351163327     9.8326024392     3.4121579334
NI     11.0260384789     7.7533170375     3.4554880561
NI     13.4426788099    11.9239538739     3.4367084627
NI     12.2340099694     5.6742369960     3.4376205894
NI     15.8433893340    11.9182346712     3.4278118093
NI     17.0467612809     5.6820412600     3.4325422737
NI     18.2410343566     7.7586261848     3.4250793436
NI      9.7913315283     9.8439923244     3.4775929189
NI     11.0140760843    11.9456454568     3.4621752659
NI     13.4258631589     3.5688446662     3.4617012679
NI     18.2555757471    11.9331531131     3.4517969197
NI     15.8510298257     3.5736977550     3.4545839232
NI     19.4637944618     9.8399761636     3.4608785808
NI      4.8470901962     5.6615724318     3.4506115872
NI      7.3277139632     1.3734174185     3.4576735890
NI      9.7880077440     5.6537098254     3.4658444455
NI      3.6527819034     3.5538136813     3.4723653885
NI      6.0685106396     7.7475524706     3.4782784045
NI      4.9005798627     1.3922732666     3.4770580528
NI      8.5545568481     7.7463359790     3.4784842539
NI      9.7449703594     1.3831644312     3.4694367774
NI     10.9893688813     3.5420346088     3.4750657915
NI      2.4577538300     1.4203800675     3.4912451377
NI      7.3105821351     9.8454388931     3.4865717197
NI     12.1820840629     1.4112741611     3.4822209154
NI      6.0961254543     3.5245021012     3.4812160790
NI      7.3124852165     5.6454750040     3.4875187377
NI      8.5433650860     3.5168036253     3.4912481677
NI      8.5495341133    11.9600770733     3.4918165515
NI     14.6315393865     1.4291447442     3.4958258734
NI     20.7015139829    11.9548731820     3.4792501778
AG     -0.0996486663    -0.0244360156     5.7908950372
AG      5.7803894882     5.0378194101     5.7701436850
AG      7.2028764603     2.5416165560     5.7718496557
AG      8.6589684470     5.0588211580     5.7677210862
AG      1.3525635380     2.4716561281     5.7793479466
AG      5.8047880323    10.1626412282     5.8217499705
AG      2.7765693536    -0.0218337246     5.8016187666
AG      8.6445211101    10.1516856967     5.8433302009
AG     11.6300538337     0.0194984889     5.8028494076
AG     13.0707883873     2.4896686402     5.7838027120
AG      4.2735051264     2.4979446299     5.7934103017
AG      7.2392534367     7.6178889717     5.8205560978
AG     10.1307463041     2.5395712729     5.7839256153
AG      2.8565774992     4.9923792891     5.8207550683
AG      4.3554780905     7.5755431163     5.8195460789
AG      5.7113345241     0.0203205564     5.8152970317
AG     10.0622825914     7.6147919419     5.8293839341
AG      8.6825250721     0.0427575302     5.8175132181
AG     11.5447616634     5.0405022961     5.7958922491
AG     11.5025179626    10.1670197408     5.8399949191
AG     14.5153078404     4.9845550560     5.8225837702
AG     17.5133627471    10.1480742291     5.8400415005
AG     12.9904696790     7.5792170560     5.8422105973
AG     14.5020413731    10.1416759961     5.8514915865