72
Step 1 | ATOMIC_POSITIONS (angstrom) | Cartesian Angstrom
Ni      1.2286390390     0.7093535490     9.0125970590
Ni      2.4572760100     2.8374169220     9.0125970590
Ni      3.6859498400     4.9655441370     9.0125970590
Ni      3.6859144660     0.7093535490     9.0125970590
Ni      4.9145514370     2.8374169220     9.0125970590
Ni      6.1432252670     4.9655441370     9.0125970590
Ni      6.1432636120     0.7093535490     9.0125970590
Ni      7.3719005830     2.8374169220     9.0125970590
Ni      8.6005744130     4.9655441370     9.0125970590
Ni      0.0000019230    -0.0000011100    11.0191845730
Ni      1.2286511800     2.1280835430    11.0191845730
Ni      2.4573004380     4.2561681970    11.0191845730
Ni      2.4573019230    -0.0000011100    11.0191845730
Ni      3.6859511800     2.1280835430    11.0191845730
Ni      4.9146004380     4.2561681970    11.0191845730
Ni      4.9146019230    -0.0000011100    11.0191845730
Ni      6.1432511800     2.1280835430    11.0191845730
Ni      7.3719004380     4.2561681970    11.0191845730
Ni      2.4572820074     1.4187159655    13.0265364501
Ni      3.6859485275     3.5468260387    13.0265374579
Ni      4.9145907684     5.6748964405    13.0265356186
Ni      4.9146207366     1.4187136165    13.0265385112
Ni      6.1432951188     3.5468282198    13.0265393532
Ni      7.3719350142     5.6748973070    13.0265382027
Ni      7.3719032081     1.4187155461    13.0265363491
Ni      8.6005752903     3.5468288138    13.0265380209
Ni      9.8292098690     5.6748947057    13.0265361569
Ni      1.2286404151     0.7093589960    15.0307668439
Ni      2.4572768462     2.8374236218    15.0307657850
Ni      3.6859448128     4.9655360414    15.0307661006
Ni      3.6859234279     0.7093539702    15.0307663829
Ni      4.9145589915     2.8374182957    15.0307642129
Ni      6.1432353528     4.9655357609    15.0307647889
Ni      6.1432584723     0.7093551608    15.0307674541
Ni      7.3719029241     2.8374243295    15.0307658445
Ni      8.6005717423     4.9655373333    15.0307670006
Ni     -0.0000016026     0.0000009877    17.0393162163
Ni      1.2286521458     2.1280878878    17.0393176813
Ni      2.4572972181     4.2561650122    17.0393143318
Ni      2.4573065619     0.0000013272    17.0393180013
Ni      3.6859496025     2.1280820484    17.0393195433
Ni      4.9146006572     4.2561627491    17.0393158045
Ni      4.9146039096    -0.0000016934    17.0393155577
Ni      6.1432528070     2.1280823293    17.0393167194
Ni      7.3719086395     4.2561657976    17.0393134713
Ni      2.4572850386     1.4187148252    19.0435295660
Ni      3.6859495508     3.5468227263    19.0435307185
Ni      4.9145931068     5.6748971052    19.0435290777
Ni      4.9146221407     1.4187109504    19.0435315217
Ni      6.1432974993     3.5468251042    19.0435326148
Ni      7.3719385117     5.6748984765    19.0435313457
Ni      7.3719017988     1.4187159604    19.0435291497
Ni      8.6005749163     3.5468285872    19.0435307055
Ni      9.8292071273     5.6748969461    19.0435289124
Ni      1.2286418367     0.7093594859    21.0551632454
Ni      2.4572781230     2.8374211934    21.0551622444
Ni      3.6859446896     4.9655364169    21.0551629434
Ni      3.6859267761     0.7093532839    21.0551622759
Ni      4.9145611215     2.8374140416    21.0551607220
Ni      6.1432394238     4.9655356604    21.0551622734
Ni      6.1432569981     0.7093557900    21.0551635552
Ni      7.3719030394     2.8374233138    21.0551625691
Ni      8.6005712891     4.9655392639    21.0551639900
Ni     -0.0000013001     0.0000008328    23.0532742333
Ni      1.2286528596     2.1280863051    23.0532719564
Ni      2.4572971623     4.2561650004    23.0532704166
Ni      2.4573088948     0.0000006982    23.0532740767
Ni      3.6859523909     2.1280799913    23.0532716386
Ni      4.9146025449     4.2561621951    23.0532726638
Ni      4.9146034614    -0.0000019806    23.0532694282
Ni      6.1432528333     2.1280806905    23.0532700898
Ni      7.3719080224     4.2561656695    23.0532685453
72
Step 2 | ATOMIC_POSITIONS (angstrom) | Cartesian Angstrom
Ni      1.2286390390     0.7093535490     9.0125970590
Ni      2.4572760100     2.8374169220     9.0125970590
Ni      3.6859498400     4.9655441370     9.0125970590
Ni      3.6859144660     0.7093535490     9.0125970590
Ni      4.9145514370     2.8374169220     9.0125970590
Ni      6.1432252670     4.9655441370     9.0125970590
Ni      6.1432636120     0.7093535490     9.0125970590
Ni      7.3719005830     2.8374169220     9.0125970590
Ni      8.6005744130     4.9655441370     9.0125970590
Ni      0.0000019230    -0.0000011100    11.0191845730
Ni      1.2286511800     2.1280835430    11.0191845730
Ni      2.4573004380     4.2561681970    11.0191845730
Ni      2.4573019230    -0.0000011100    11.0191845730
Ni      3.6859511800     2.1280835430    11.0191845730
Ni      4.9146004380     4.2561681970    11.0191845730
Ni      4.9146019230    -0.0000011100    11.0191845730
Ni      6.1432511800     2.1280835430    11.0191845730
Ni      7.3719004380     4.2561681970    11.0191845730
Ni      2.4572883549     1.4187177486    13.0276762398
Ni      3.6859528145     3.5468183774    13.0276781852
Ni      4.9145961881     5.6748937911    13.0276757859
Ni      4.9146149833     1.4187199758    13.0276790496
Ni      6.1432848089     3.5468236340    13.0276815036
Ni      7.3719268189     5.6748983152    13.0276790533
Ni      7.3719031436     1.4187199561    13.0276759327
Ni      8.6005715990     3.5468228356    13.0276783927
Ni      9.8292098547     5.6748952427    13.0276753160
Ni      1.2286417871     0.7093576033    15.0298140785
Ni      2.4572812923     2.8374287674    15.0298118175
Ni      3.6859468366     4.9655311319    15.0298131476
Ni      3.6859295967     0.7093534234    15.0298119035
Ni      4.9145685569     2.8374244732    15.0298089139
Ni      6.1432394049     4.9655301722    15.0298109536
Ni      6.1432539213     0.7093579695    15.0298135647
Ni      7.3718988483     2.8374320695    15.0298114732
Ni      8.6005648879     4.9655349044    15.0298132414
Ni      0.0000002576    -0.0000000250    17.0403331614
Ni      1.2286512251     2.1280865424    17.0403360717
Ni      2.4572998101     4.2561653136    17.0403302068
Ni      2.4573051229    -0.0000009847    17.0403360846
Ni      3.6859492616     2.1280817055    17.0403380513
Ni      4.9146018451     4.2561627774    17.0403327699
Ni      4.9146034687    -0.0000005853    17.0403304943
Ni      6.1432514823     2.1280842872    17.0403329043
Ni      7.3719069152     4.2561671146    17.0403282927
Ni      2.4572901119     1.4187160655    19.0429219479
Ni      3.6859539051     3.5468166838    19.0429241422
Ni      4.9145984088     5.6748936205    19.0429216274
Ni      4.9146165755     1.4187175669    19.0429239188
Ni      6.1432871263     3.5468221944    19.0429268515
Ni      7.3719291807     5.6748980120    19.0429244155
Ni      7.3719027579     1.4187198931    19.0429210190
Ni      8.6005711819     3.5468230190    19.0429245697
Ni      9.8292080585     5.6748961803    19.0429208380
Ni      1.2286431403     0.7093570414    21.0591839822
Ni      2.4572819315     2.8374271093    21.0591822266
Ni      3.6859476396     4.9655317226    21.0591839952
Ni      3.6859317042     0.7093521942    21.0591819853
Ni      4.9145706401     2.8374220459    21.0591797560
Ni      6.1432425509     4.9655302983    21.0591822760
Ni      6.1432537014     0.7093577990    21.0591840517
Ni      7.3718996384     2.8374318683    21.0591824392
Ni      8.6005648574     4.9655354991    21.0591845775
Ni     -0.0000002330    -0.0000002773    23.0485760400
Ni      1.2286524854     2.1280853969    23.0485742547
Ni      2.4572985776     4.2561644676    23.0485711261
Ni      2.4573070279    -0.0000007807    23.0485750258
Ni      3.6859517092     2.1280799255    23.0485735041
Ni      4.9146028366     4.2561625572    23.0485710991
Ni      4.9146027129    -0.0000014071    23.0485703001
Ni      6.1432515808     2.1280818210    23.0485703660
Ni      7.3719063446     4.2561658957    23.0485670152
72
Step 3 | ATOMIC_POSITIONS (angstrom) | Cartesian Angstrom
Ni      1.2286390390     0.7093535490     9.0125970590
Ni      2.4572760100     2.8374169220     9.0125970590
Ni      3.6859498400     4.9655441370     9.0125970590
Ni      3.6859144660     0.7093535490     9.0125970590
Ni      4.9145514370     2.8374169220     9.0125970590
Ni      6.1432252670     4.9655441370     9.0125970590
Ni      6.1432636120     0.7093535490     9.0125970590
Ni      7.3719005830     2.8374169220     9.0125970590
Ni      8.6005744130     4.9655441370     9.0125970590
Ni      0.0000019230    -0.0000011100    11.0191845730
Ni      1.2286511800     2.1280835430    11.0191845730
Ni      2.4573004380     4.2561681970    11.0191845730
Ni      2.4573019230    -0.0000011100    11.0191845730
Ni      3.6859511800     2.1280835430    11.0191845730
Ni      4.9146004380     4.2561681970    11.0191845730
Ni      4.9146019230    -0.0000011100    11.0191845730
Ni      6.1432511800     2.1280835430    11.0191845730
Ni      7.3719004380     4.2561681970    11.0191845730
Ni      2.4572974260     1.4187205615    13.0291518436
Ni      3.6859575896     3.5468078055    13.0291545810
Ni      4.9146034526     5.6748906410    13.0291519818
Ni      4.9146070497     1.4187277122    13.0291550565
Ni      6.1432697431     3.5468162467    13.0291589029
Ni      7.3719152798     5.6748989955    13.0291554402
Ni      7.3719033656     1.4187259561    13.0291513910
Ni      8.6005656576     3.5468142415    13.0291543650
Ni      9.8292093469     5.6748958472    13.0291508920
Ni      1.2286434885     0.7093561915    15.0288720459
Ni      2.4572875782     2.8374364106    15.0288687108
Ni      3.6859487078     4.9655249780    15.0288708196
Ni      3.6859388445     0.7093530288    15.0288681836
Ni      4.9145826317     2.8374332681    15.0288645640
Ni      6.1432457773     4.9655231827    15.0288676566
Ni      6.1432480045     0.7093613003    15.0288701488
Ni      7.3718945364     2.8374425762    15.0288678631
Ni      8.6005557519     4.9655313376    15.0288699088
Ni      0.0000021643    -0.0000011141    17.0416058524
Ni      1.2286499429     2.1280849543    17.0416102536
Ni      2.4573029113     4.2561657906    17.0416023314
Ni      2.4573034351    -0.0000036771    17.0416097919
Ni      3.6859485451     2.1280810416    17.0416127738
Ni      4.9146031147     4.2561627117    17.0416059138
Ni      4.9146033357     0.0000008815    17.0416016123
Ni      6.1432497996     2.1280863567    17.0416054871
Ni      7.3719058219     4.2561688605    17.0415988912
Ni      2.4572979744     1.4187190290    19.0428996519
Ni      3.6859584752     3.5468073554    19.0429025872
Ni      4.9146047369     5.6748898393    19.0428993858
Ni      4.9146086949     1.4187258846    19.0429013735
Ni      6.1432717243     3.5468159168    19.0429055961
Ni      7.3719170672     5.6748977085    19.0429020691
Ni      7.3719037383     1.4187254645    19.0428985311
Ni      8.6005658522     3.5468145336    19.0429030765
Ni      9.8292086584     5.6748954901    19.0428977884
Ni      1.2286442771     0.7093553180    21.0640468324
Ni      2.4572880331     2.8374353789    21.0640439816
Ni      3.6859497649     4.9655253868    21.0640468180
Ni      3.6859399692     0.7093518043    21.0640430917
Ni      4.9145843112     2.8374322929    21.0640403354
Ni      6.1432477078     4.9655236309    21.0640439985
Ni      6.1432492680     0.7093602548    21.0640460961
Ni      7.3718959869     2.8374419522    21.0640439232
Ni      8.6005568775     4.9655311975    21.0640472816
Ni      0.0000003238    -0.0000018712    23.0415274938
Ni      1.2286510376     2.1280840413    23.0415268389
Ni      2.4573004097     4.2561641726    23.0415213074
Ni      2.4573046580    -0.0000029324    23.0415261000
Ni      3.6859502927     2.1280797380    23.0415250994
Ni      4.9146027887     4.2561626962    23.0415191234
Ni      4.9146018675    -0.0000012319    23.0415202588
Ni      6.1432505347     2.1280832037    23.0415198250
Ni      7.3719049378     4.2561666241    23.0415146683
72
Step 4 | ATOMIC_POSITIONS (angstrom) | Cartesian Angstrom
Ni      1.2286390390     0.7093535490     9.0125970590
Ni      2.4572760100     2.8374169220     9.0125970590
Ni      3.6859498400     4.9655441370     9.0125970590
Ni      3.6859144660     0.7093535490     9.0125970590
Ni      4.9145514370     2.8374169220     9.0125970590
Ni      6.1432252670     4.9655441370     9.0125970590
Ni      6.1432636120     0.7093535490     9.0125970590
Ni      7.3719005830     2.8374169220     9.0125970590
Ni      8.6005744130     4.9655441370     9.0125970590
Ni      0.0000019230    -0.0000011100    11.0191845730
Ni      1.2286511800     2.1280835430    11.0191845730
Ni      2.4573004380     4.2561681970    11.0191845730
Ni      2.4573019230    -0.0000011100    11.0191845730
Ni      3.6859511800     2.1280835430    11.0191845730
Ni      4.9146004380     4.2561681970    11.0191845730
Ni      4.9146019230    -0.0000011100    11.0191845730
Ni      6.1432511800     2.1280835430    11.0191845730
Ni      7.3719004380     4.2561681970    11.0191845730
Ni      2.4573002563     1.4187217262    13.0295440165
Ni      3.6859578775     3.5468046654    13.0295463045
Ni      4.9146053165     5.6748900284    13.0295442758
Ni      4.9146042152     1.4187292165    13.0295466021
Ni      6.1432637059     3.5468130759    13.0295500666
Ni      7.3719109008     5.6748983639    13.0295470210
Ni      7.3719036447     1.4187274861    13.0295435593
Ni      8.6005628154     3.5468111470    13.0295459924
Ni      9.8292087295     5.6748956218    13.0295430608
Ni      1.2286444034     0.7093563035    15.0289539829
Ni      2.4572903218     2.8374392001    15.0289510363
Ni      3.6859489634     4.9655234498    15.0289526224
Ni      3.6859424668     0.7093536783    15.0289504408
Ni      4.9145882139     2.8374366725    15.0289473263
Ni      6.1432482236     4.9655218654    15.0289499333
Ni      6.1432466228     0.7093620032    15.0289517968
Ni      7.3718944086     2.8374456361    15.0289500487
Ni      8.6005530327     4.9655299958    15.0289514591
Ni      0.0000024525    -0.0000013351    17.0419835617
Ni      1.2286494432     2.1280846268    17.0419877357
Ni      2.4573035628     4.2561660584    17.0419804896
Ni      2.4573029085    -0.0000043392    17.0419872823
Ni      3.6859480385     2.1280807168    17.0419899676
Ni      4.9146033668     4.2561627794    17.0419837903
Ni      4.9146035344     0.0000011329    17.0419795763
Ni      6.1432496214     2.1280867205    17.0419832298
Ni      7.3719060029     4.2561693468    17.0419773244
Ni      2.4573005718     1.4187202207    19.0436372449
Ni      3.6859587757     3.5468044256    19.0436396496
Ni      4.9146062841     5.6748888753    19.0436367530
Ni      4.9146059251     1.4187275667    19.0436383157
Ni      6.1432658102     3.5468129865    19.0436419941
Ni      7.3719127648     5.6748969392    19.0436387495
Ni      7.3719038115     1.4187269028    19.0436359455
Ni      8.6005631890     3.5468115638    19.0436397631
Ni      9.8292081593     5.6748949901    19.0436349329
Ni      1.2286449350     0.7093553035    21.0647929179
Ni      2.4572909772     2.8374383921    21.0647899865
Ni      3.6859498254     4.9655238371    21.0647925989
Ni      3.6859435909     0.7093525561    21.0647888093
Ni      4.9145898650     2.8374359347    21.0647863369
Ni      6.1432498351     4.9655223299    21.0647896734
Ni      6.1432480319     0.7093607265    21.0647915685
Ni      7.3718958196     2.8374447906    21.0647897083
Ni      8.6005544225     4.9655298341    21.0647925960
Ni      0.0000001905    -0.0000024705    23.0387264163
Ni      1.2286503187     2.1280833000    23.0387260709
Ni      2.4573009494     4.2561640720    23.0387203880
Ni      2.4573035236    -0.0000035204    23.0387250564
Ni      3.6859496010     2.1280795776    23.0387239473
Ni      4.9146024493     4.2561626815    23.0387175151
Ni      4.9146016613    -0.0000011051    23.0387192734
Ni      6.1432501978     2.1280834019    23.0387186654
Ni      7.3719046318     4.2561667650    23.0387135733
72
Step 5 | ATOMIC_POSITIONS (angstrom) | Cartesian Angstrom
Ni      1.2286390390     0.7093535490     9.0125970590
Ni      2.4572760100     2.8374169220     9.0125970590
Ni      3.6859498400     4.9655441370     9.0125970590
Ni      3.6859144660     0.7093535490     9.0125970590
Ni      4.9145514370     2.8374169220     9.0125970590
Ni      6.1432252670     4.9655441370     9.0125970590
Ni      6.1432636120     0.7093535490     9.0125970590
Ni      7.3719005830     2.8374169220     9.0125970590
Ni      8.6005744130     4.9655441370     9.0125970590
Ni      0.0000019230    -0.0000011100    11.0191845730
Ni      1.2286511800     2.1280835430    11.0191845730
Ni      2.4573004380     4.2561681970    11.0191845730
Ni      2.4573019230    -0.0000011100    11.0191845730
Ni      3.6859511800     2.1280835430    11.0191845730
Ni      4.9146004380     4.2561681970    11.0191845730
Ni      4.9146019230    -0.0000011100    11.0191845730
Ni      6.1432511800     2.1280835430    11.0191845730
Ni      7.3719004380     4.2561681970    11.0191845730
Ni      2.4573027915     1.4187229702    13.0298581953
Ni      3.6859565095     3.5468022363    13.0298591067
Ni      4.9146063189     5.6748900010    13.0298584412
Ni      4.9146012755     1.4187291060    13.0298591555
Ni      6.1432563206     3.5468090035    13.0298611738
Ni      7.3719057796     5.6748965980    13.0298594947
Ni      7.3719040693     1.4187281509    13.0298577443
Ni      8.6005587063     3.5468078167    13.0298587038
Ni      9.8292074892     5.6748949479    13.0298572150
Ni      1.2286458642     0.7093570136    15.0295408445
Ni      2.4572940980     2.8374422033    15.0295392282
Ni      3.6859490089     4.9655228287    15.0295394022
Ni      3.6859467814     0.7093553754    15.0295387183
Ni      4.9145949788     2.8374407357    15.0295370242
Ni      6.1432509081     4.9655220483    15.0295381366
Ni      6.1432461750     0.7093622111    15.0295385823
Ni      7.3718958942     2.8374479825    15.0295381289
Ni      8.6005507261     4.9655286369    15.0295380760
Ni      0.0000024873    -0.0000014226    17.0424847128
Ni      1.2286489438     2.1280842603    17.0424878030
Ni      2.4573039158     4.2561665199    17.0424829226
Ni      2.4573023378    -0.0000046865    17.0424874489
Ni      3.6859473626     2.1280802961    17.0424890863
Ni      4.9146033315     4.2561630885    17.0424851777
Ni      4.9146040031     0.0000011702    17.0424820108
Ni      6.1432497852     2.1280865843    17.0424845810
Ni      7.3719065480     4.2561697330    17.0424809986
Ni      2.4573030184     1.4187215438    19.0451527919
Ni      3.6859574855     3.5468018784    19.0451536483
Ni      4.9146068808     5.6748884195    19.0451519087
Ni      4.9146030350     1.4187277086    19.0451524529
Ni      6.1432587972     3.5468089789    19.0451544363
Ni      7.3719080481     5.6748952749    19.0451523403
Ni      7.3719036542     1.4187276209    19.0451512885
Ni      8.6005592992     3.5468083457    19.0451533031
Ni      9.8292067932     5.6748941372    19.0451499519
Ni      1.2286461002     0.7093560256    21.0643176948
Ni      2.4572950476     2.8374414583    21.0643150464
Ni      3.6859493421     4.9655232394    21.0643163885
Ni      3.6859481862     0.7093544494    21.0643134662
Ni      4.9145966705     2.8374398466    21.0643119778
Ni      6.1432524092     4.9655225459    21.0643140031
Ni      6.1432473585     0.7093607869    21.0643151458
Ni      7.3718971664     2.8374467852    21.0643141013
Ni      8.6005521931     4.9655286877    21.0643156312
Ni     -0.0000002829    -0.0000030906    23.0352808131
Ni      1.2286493447     2.1280820888    23.0352807147
Ni      2.4573013179     4.2561639935    23.0352759322
Ni      2.4573019135    -0.0000039835    23.0352796981
Ni      3.6859487041     2.1280792358    23.0352783514
Ni      4.9146019761     4.2561626454    23.0352726096
Ni      4.9146014372    -0.0000010856    23.0352746814
Ni      6.1432497877     2.1280832830    23.0352737905
Ni      7.3719044390     4.2561669890    23.0352698798
72
Step 6 | ATOMIC_POSITIONS (angstrom) | Cartesian Angstrom
Ni      1.2286390390     0.7093535490     9.0125970590
Ni      2.4572760100     2.8374169220     9.0125970590
Ni      3.6859498400     4.9655441370     9.0125970590
Ni      3.6859144660     0.7093535490     9.0125970590
Ni      4.9145514370     2.8374169220     9.0125970590
Ni      6.1432252670     4.9655441370     9.0125970590
Ni      6.1432636120     0.7093535490     9.0125970590
Ni      7.3719005830     2.8374169220     9.0125970590
Ni      8.6005744130     4.9655441370     9.0125970590
Ni      0.0000019230    -0.0000011100    11.0191845730
Ni      1.2286511800     2.1280835430    11.0191845730
Ni      2.4573004380     4.2561681970    11.0191845730
Ni      2.4573019230    -0.0000011100    11.0191845730
Ni      3.6859511800     2.1280835430    11.0191845730
Ni      4.9146004380     4.2561681970    11.0191845730
Ni      4.9146019230    -0.0000011100    11.0191845730
Ni      6.1432511800     2.1280835430    11.0191845730
Ni      7.3719004380     4.2561681970    11.0191845730
Ni      2.4573042314     1.4187237113    13.0300700882
Ni      3.6859534269     3.5468014850    13.0300689336
Ni      4.9146058756     5.6748907430    13.0300701733
Ni      4.9145989858     1.4187267655    13.0300686753
Ni      6.1432492218     3.5468050453    13.0300684086
Ni      7.3719010151     5.6748938990    13.0300687432
Ni      7.3719044790     1.4187272687    13.0300695647
Ni      8.6005540274     3.5468051835    13.0300683407
Ni      9.8292056496     5.6748938765    13.0300689007
Ni      1.2286479365     0.7093581846    15.0306027041
Ni      2.4572983977     2.8374445083    15.0306030464
Ni      3.6859491377     4.9655236974    15.0306012958
Ni      3.6859507192     0.7093579743    15.0306027359
Ni      4.9146013028     2.8374445455    15.0306031673
Ni      6.1432529845     4.9655243067    15.0306021094
Ni      6.1432471705     0.7093617696    15.0306005791
Ni      7.3718989509     2.8374487054    15.0306019170
Ni      8.6005495576     4.9655278276    15.0305998552
Ni      0.0000025106    -0.0000014777    17.0432236516
Ni      1.2286488852     2.1280835956    17.0432248091
Ni      2.4573040646     4.2561671201    17.0432238021
Ni      2.4573016594    -0.0000044299    17.0432246606
Ni      3.6859467938     2.1280799846    17.0432246442
Ni      4.9146027727     4.2561640169    17.0432243519
Ni      4.9146045636     0.0000009396    17.0432229213
Ni      6.1432503380     2.1280857136    17.0432236838
Ni      7.3719069771     4.2561699714    17.0432237317
Ni      2.4573043824     1.4187223863    19.0469353480
Ni      3.6859546923     3.5468007789    19.0469340106
Ni      4.9146059604     5.6748887294    19.0469340057
Ni      4.9146006355     1.4187259443    19.0469330378
Ni      6.1432519494     3.5468050625    19.0469326179
Ni      7.3719035471     5.6748930359    19.0469323479
Ni      7.3719034131     1.4187266358    19.0469336744
Ni      8.6005551109     3.5468055748    19.0469330831
Ni      9.8292050327     5.6748929692    19.0469319991
Ni      1.2286478653     0.7093571760    21.0623354803
Ni      2.4572997591     2.8374436553    21.0623336925
Ni      3.6859488774     4.9655239791    21.0623330196
Ni      3.6859522741     0.7093574455    21.0623318581
Ni      4.9146028874     2.8374434311    21.0623316534
Ni      6.1432541889     4.9655248079    21.0623317324
Ni      6.1432479546     0.7093602590    21.0623316230
Ni      7.3718999961     2.8374470286    21.0623319794
Ni      8.6005509589     4.9655280132    21.0623312222
Ni     -0.0000008153    -0.0000038644    23.0318714991
Ni      1.2286484907     2.1280804830    23.0318716712
Ni      2.4573016981     4.2561639354    23.0318687425
Ni      2.4573000282    -0.0000042148    23.0318706433
Ni      3.6859477578     2.1280789312    23.0318690067
Ni      4.9146011393     4.2561629454    23.0318651353
Ni      4.9146012050    -0.0000010364    23.0318674329
Ni      6.1432494904     2.1280828072    23.0318663632
Ni      7.3719040790     4.2561671640    23.0318645959
72
Step 7 | ATOMIC_POSITIONS (angstrom) | Cartesian Angstrom
Ni      1.2286390390     0.7093535490     9.0125970590
Ni      2.4572760100     2.8374169220     9.0125970590
Ni      3.6859498400     4.9655441370     9.0125970590
Ni      3.6859144660     0.7093535490     9.0125970590
Ni      4.9145514370     2.8374169220     9.0125970590
Ni      6.1432252670     4.9655441370     9.0125970590
Ni      6.1432636120     0.7093535490     9.0125970590
Ni      7.3719005830     2.8374169220     9.0125970590
Ni      8.6005744130     4.9655441370     9.0125970590
Ni      0.0000019230    -0.0000011100    11.0191845730
Ni      1.2286511800     2.1280835430    11.0191845730
Ni      2.4573004380     4.2561681970    11.0191845730
Ni      2.4573019230    -0.0000011100    11.0191845730
Ni      3.6859511800     2.1280835430    11.0191845730
Ni      4.9146004380     4.2561681970    11.0191845730
Ni      4.9146019230    -0.0000011100    11.0191845730
Ni      6.1432511800     2.1280835430    11.0191845730
Ni      7.3719004380     4.2561681970    11.0191845730
Ni      2.4573037896     1.4187232555    13.0301784532
Ni      3.6859508782     3.5468030054    13.0301759731
Ni      4.9146042918     5.6748914853    13.0301782618
Ni      4.9145989055     1.4187236506    13.0301755842
Ni      6.1432467290     3.5468037635    13.0301737304
Ni      7.3718994146     5.6748917618    13.0301753067
Ni      7.3719042490     1.4187253372    13.0301777619
Ni      8.6005513279     3.5468050664    13.0301751372
Ni      9.8292041503     5.6748930964    13.0301769172
Ni      1.2286493049     0.7093588225    15.0314353015
Ni      2.4573006057     2.8374449894    15.0314366893
Ni      3.6859494976     4.9655256758    15.0314339242
Ni      3.6859521615     0.7093594914    15.0314365133
Ni      4.9146036620     2.8374459335    15.0314382589
Ni      6.1432532641     4.9655270213    15.0314359380
Ni      6.1432490033     0.7093609674    15.0314332912
Ni      7.3719012967     2.8374476506    15.0314356472
Ni      8.6005500119     4.9655282267    15.0314323749
Ni      0.0000026596    -0.0000014758    17.0439133324
Ni      1.2286491964     2.1280828643    17.0439132784
Ni      2.4573039252     4.2561676107    17.0439146737
Ni      2.4573012052    -0.0000038762    17.0439132252
Ni      3.6859469892     2.1280800466    17.0439121542
Ni      4.9146021905     4.2561651693    17.0439142285
Ni      4.9146047947     0.0000005314    17.0439137719
Ni      6.1432509777     2.1280846773    17.0439135259
Ni      7.3719065665     4.2561698503    17.0439158529
Ni      2.4573037358     1.4187220425    19.0475264654
Ni      3.6859525059     3.5468017117    19.0475239506
Ni      4.9146042449     5.6748894977    19.0475250313
Ni      4.9146002078     1.4187236990    19.0475230290
Ni      6.1432493325     3.5468036666    19.0475213446
Ni      7.3719014786     5.6748915310    19.0475220969
Ni      7.3719032571     1.4187246917    19.0475248223
Ni      8.6005528569     3.5468046154    19.0475227497
Ni      9.8292040552     5.6748922125    19.0475230144
Ni      1.2286491721     0.7093579081    21.0602535585
Ni      2.4573020859     2.8374437328    21.0602525374
Ni      3.6859492689     4.9655256171    21.0602504798
Ni      3.6859532013     0.7093594902    21.0602505630
Ni      4.9146050631     2.8374449146    21.0602512532
Ni      6.1432538816     4.9655274362    21.0602499967
Ni      6.1432497466     0.7093597569    21.0602490328
Ni      7.3719022866     2.8374455778    21.0602503487
Ni      8.6005512046     4.9655280163    21.0602480516
Ni     -0.0000008003    -0.0000043182    23.0303401166
Ni      1.2286481631     2.1280794007    23.0303404714
Ni      2.4573019007     4.2561639940    23.0303393094
Ni      2.4572987272    -0.0000042080    23.0303394585
Ni      3.6859473849     2.1280790642    23.0303379582
Ni      4.9146005710     4.2561636454    23.0303356002
Ni      4.9146011676    -0.0000012030    23.0303380715
Ni      6.1432497542     2.1280824002    23.0303368906
Ni      7.3719035340     4.2561670653    23.0303368328
72
Step 8 | ATOMIC_POSITIONS (angstrom) | Cartesian Angstrom
Ni      1.2286390390     0.7093535490     9.0125970590
Ni      2.4572760100     2.8374169220     9.0125970590
Ni      3.6859498400     4.9655441370     9.0125970590
Ni      3.6859144660     0.7093535490     9.0125970590
Ni      4.9145514370     2.8374169220     9.0125970590
Ni      6.1432252670     4.9655441370     9.0125970590
Ni      6.1432636120     0.7093535490     9.0125970590
Ni      7.3719005830     2.8374169220     9.0125970590
Ni      8.6005744130     4.9655441370     9.0125970590
Ni      0.0000019230    -0.0000011100    11.0191845730
Ni      1.2286511800     2.1280835430    11.0191845730
Ni      2.4573004380     4.2561681970    11.0191845730
Ni      2.4573019230    -0.0000011100    11.0191845730
Ni      3.6859511800     2.1280835430    11.0191845730
Ni      4.9146004380     4.2561681970    11.0191845730
Ni      4.9146019230    -0.0000011100    11.0191845730
Ni      6.1432511800     2.1280835430    11.0191845730
Ni      7.3719004380     4.2561681970    11.0191845730
Ni      2.4573026531     1.4187222698    13.0303801901
Ni      3.6859489478     3.5468052447    13.0303771070
Ni      4.9146022454     5.6748920320    13.0303797846
Ni      4.9145996738     1.4187206215    13.0303766465
Ni      6.1432460153     3.5468035922    13.0303739278
Ni      7.3718988399     5.6748900261    13.0303760329
Ni      7.3719035942     1.4187229963    13.0303793323
Ni      8.6005494445     3.5468057323    13.0303760066
Ni      9.8292027755     5.6748924401    13.0303783516
Ni      1.2286505274     0.7093591559    15.0321545951
Ni      2.4573020607     2.8374449822    15.0321564806
Ni      3.6859502413     4.9655280152    15.0321535503
Ni      3.6859527436     0.7093604301    15.0321563500
Ni      4.9146044619     2.8374464882    15.0321587273