86
Step 1 | ATOMIC_POSITIONS (angstrom) | Cartesian Angstrom
Ni      1.2286390390     0.7093535490     9.0125970590
Ni      2.4572760100     2.8374169220     9.0125970590
Ni      3.6859498400     4.9655441370     9.0125970590
Ni      3.6859144660     0.7093535490     9.0125970590
Ni      4.9145514370     2.8374169220     9.0125970590
Ni      6.1432252670     4.9655441370     9.0125970590
Ni      6.1432636120     0.7093535490     9.0125970590
Ni      7.3719005830     2.8374169220     9.0125970590
Ni      8.6005744130     4.9655441370     9.0125970590
Ni      0.0000019230    -0.0000011100    11.0191845730
Ni      1.2286511800     2.1280835430    11.0191845730
Ni      2.4573004380     4.2561681970    11.0191845730
Ni      2.4573019230    -0.0000011100    11.0191845730
Ni      3.6859511800     2.1280835430    11.0191845730
Ni      4.9146004380     4.2561681970    11.0191845730
Ni      4.9146019230    -0.0000011100    11.0191845730
Ni      6.1432511800     2.1280835430    11.0191845730
Ni      7.3719004380     4.2561681970    11.0191845730
Ni      9.8291970100     5.6748892401    13.0324849556
Ni      4.9145980198     5.6748893593    13.0324852164
Ni      7.3718991758     1.4187202853    13.0324856500
Ni      8.6005492460     3.5468057814    13.0324864151
Ni      7.3718984520     5.6748900664    13.0324864346
Ni      2.4573016324     1.4187213286    13.0324867123
Ni      3.6859500153     3.5468058594    13.0324876950
Ni      6.1432488122     3.5468055587    13.0324879319
Ni      4.9146003559     1.4187209547    13.0324881305
Ni      4.9146024517     2.8374451427    15.0334585589
Ni      2.4573039655     2.8374470172    15.0334598186
Ni      6.1432518675     4.9655284072    15.0334598528
Ni      7.3719008977     2.8374462771    15.0334599804
Ni      3.6859555058     0.7093603620    15.0334602556
Ni      1.2286550209     0.7093609929    15.0334616076
Ni      3.6859521613     4.9655297045    15.0334616685
Ni      8.6005513471     4.9655301153    15.0334618667
Ni      6.1432529377     0.7093606827    15.0334623189
Ni      7.3718981461     4.2561658701    17.0436126492
Ni      2.4573001516     4.2561668027    17.0436139163
Ni      4.9146014848    -0.0000023770    17.0436145683
Ni      4.9146006221     4.2561672435    17.0436152860
Ni      0.0000023638    -0.0000021113    17.0436153847
Ni      6.1432512178     2.1280823767    17.0436158106
Ni      1.2286541909     2.1280837412    17.0436166733
Ni      2.4573047358    -0.0000005294    17.0436167517
Ni      3.6859557290     2.1280847607    17.0436183569
Ni      7.3719874636     1.4187857607    19.0412297404
Ni      9.8292548443     5.6749153417    19.0416279868
Ni      2.4574050060     1.4189041872    19.0408928072
Ni      4.9146371518     5.6749303401    19.0413038677
Ni      4.9144101200     1.4189402545    19.0412771449
Ni      3.6859809767     3.5465812740    19.0407715216
Ni      7.3718455075     5.6741738581    19.0413991093
Ni      8.5999782710     3.5469864936    19.0412935373
Ni      6.1437158569     3.5470285012    19.0415319556
Ni      4.9136087762     2.8366881736    21.0503935499
Ni      6.1432680102     4.9651956176    21.0541346918
Ni      3.6859441669     4.9648518612    21.0523540290
Ni      3.6860209077     0.7112362007    21.0516411828
Ni      2.4585878602     2.8364830619    21.0512414781
Ni      1.2291323571     0.7097903122    21.0522793660
Ni      7.3719547513     2.8375424642    21.0543488969
Ni      6.1427699406     0.7098207328    21.0522615049
Ni      8.6005736289     4.9650284110    21.0537739824
Ni      3.6871335776     2.1390967183    22.9962925607
Ni      1.2229937728     2.1281808175    23.0197475208
Ni      2.4538096845     4.2621763870    23.0185521247
Ni      6.1494137012     2.1273109890    23.0186907615
Ni     -0.0008133872    -0.0002317453    23.0265690562
Ni      2.4546544779    -0.0061253396    23.0199286835
Ni      7.3718811489     4.2566577727    23.0271559083
Ni      4.9179277290     4.2619816804    23.0179867971
Ni      4.9187007344    -0.0069144003    23.0179701062
O       3.6877595795     2.1329347983    24.9001808360
H       4.0403916068     1.2064844208    24.9285937671
H       5.2760743535     2.8619472244    25.9565827672
H       3.8001495813     3.8671862602    25.9542756235
C       4.1724941014     2.8517375502    26.0147990729
O       4.1826736398     0.7783243348    27.2320783993
H       5.1632052131     0.8364418337    27.2403451988
C       3.7044547817     2.1263783672    27.2669417754
H       2.5898145564     2.0434307706    27.2642496323
C       4.1773603141     2.8225800906    28.5301576833
H       3.8333632388     3.8618507066    28.5626443644
H       5.2865231517     2.8099911959    28.5626683585
O       3.6951482643     2.1248922567    29.6794475761
H       4.0393317781     2.6014219281    30.4519015113
86
Step 2 | ATOMIC_POSITIONS (angstrom) | Cartesian Angstrom
Ni      1.2286390390     0.7093535490     9.0125970590
Ni      2.4572760100     2.8374169220     9.0125970590
Ni      3.6859498400     4.9655441370     9.0125970590
Ni      3.6859144660     0.7093535490     9.0125970590
Ni      4.9145514370     2.8374169220     9.0125970590
Ni      6.1432252670     4.9655441370     9.0125970590
Ni      6.1432636120     0.7093535490     9.0125970590
Ni      7.3719005830     2.8374169220     9.0125970590
Ni      8.6005744130     4.9655441370     9.0125970590
Ni      0.0000019230    -0.0000011100    11.0191845730
Ni      1.2286511800     2.1280835430    11.0191845730
Ni      2.4573004380     4.2561681970    11.0191845730
Ni      2.4573019230    -0.0000011100    11.0191845730
Ni      3.6859511800     2.1280835430    11.0191845730
Ni      4.9146004380     4.2561681970    11.0191845730
Ni      4.9146019230    -0.0000011100    11.0191845730
Ni      6.1432511800     2.1280835430    11.0191845730
Ni      7.3719004380     4.2561681970    11.0191845730
Ni      9.8291970100     5.6748892401    13.0324849556
Ni      4.9145980198     5.6748893593    13.0324852164
Ni      7.3718991758     1.4187202853    13.0324856500
Ni      8.6005492460     3.5468057814    13.0324864151
Ni      7.3718984520     5.6748900664    13.0324864346
Ni      2.4573016324     1.4187213286    13.0324867123
Ni      3.6859500153     3.5468058594    13.0324876950
Ni      6.1432488122     3.5468055587    13.0324879319
Ni      4.9146003559     1.4187209547    13.0324881305
Ni      4.9146024517     2.8374451427    15.0334585589
Ni      2.4573039655     2.8374470172    15.0334598186
Ni      6.1432518675     4.9655284072    15.0334598528
Ni      7.3719008977     2.8374462771    15.0334599804
Ni      3.6859555058     0.7093603620    15.0334602556
Ni      1.2286550209     0.7093609929    15.0334616076
Ni      3.6859521613     4.9655297045    15.0334616685
Ni      8.6005513471     4.9655301153    15.0334618667
Ni      6.1432529377     0.7093606827    15.0334623189
Ni      7.3718981461     4.2561658701    17.0436126492
Ni      2.4573001516     4.2561668027    17.0436139163
Ni      4.9146014848    -0.0000023770    17.0436145683
Ni      4.9146006221     4.2561672435    17.0436152860
Ni      0.0000023638    -0.0000021113    17.0436153847
Ni      6.1432512178     2.1280823767    17.0436158106
Ni      1.2286541909     2.1280837412    17.0436166733
Ni      2.4573047358    -0.0000005294    17.0436167517
Ni      3.6859557290     2.1280847607    17.0436183569
Ni      7.3721594636     1.4189470928    19.0417297090
Ni      9.8293183208     5.6749537142    19.0429246445
Ni      2.4574557869     1.4191642904    19.0403770742
Ni      4.9147427790     5.6749959399    19.0419881145
Ni      4.9141873425     1.4192311281    19.0414596053
Ni      3.6860017883     3.5463126958    19.0400136233
Ni      7.3717568890     5.6726753254    19.0422294596
Ni      8.5987367906     3.5473969953    19.0416933778
Ni      6.1448210895     3.5475647986    19.0423124884
Ni      4.9131722152     2.8360228357    21.0440131979
Ni      6.1438039663     4.9645261961    21.0545656198
Ni      3.6859317053     4.9639906626    21.0503442513
Ni      3.6861114385     0.7136461866    21.0483259335
Ni      2.4596028146     2.8353977591    21.0463518364
Ni      1.2298271851     0.7103600043    21.0503554009
Ni      7.3721469482     2.8381728313    21.0552926816
Ni      6.1421559180     0.7104577739    21.0501770630
Ni      8.6001185603     4.9638366992    21.0533138919
Ni      3.6898355963     2.1586894666    22.9667692067
Ni      1.2131711050     2.1281743004    23.0131335028
Ni      2.4471753453     4.2730770400    23.0097189276
Ni      6.1601420857     2.1256393688    23.0103457981
Ni     -0.0023062519    -0.0002618996    23.0328177713
Ni      2.4504964780    -0.0167438870    23.0137262787
Ni      7.3718055880     4.2579172547    23.0349095878
Ni      4.9243384000     4.2724652814    23.0082222683
Ni      4.9256346313    -0.0187472300    23.0082532505
O       3.6591595411     2.1049436577    24.9406820065
H       4.0385352949     1.1924854521    24.9467154867
H       5.2823302448     2.8709311282    25.9629293723
H       3.7949096209     3.8814915322    25.9466345045
C       4.1855219799     2.8602279993    26.0363454584
O       4.1879631591     0.7647809899    27.2225347665
H       5.1567278950     0.8301204638    27.2425861420
C       3.7080683636     2.1250443983    27.2820525494
H       2.6035269401     2.0451181179    27.2645994174
C       4.1810105211     2.8231451469    28.5431026989
H       3.8327889678     3.8765756240    28.5526894542
H       5.2914858058     2.8168632775    28.5497345951
O       3.6851026276     2.1185898249    29.6845912190
H       4.0359712812     2.5974193209    30.4542093592
86
Step 3 | ATOMIC_POSITIONS (angstrom) | Cartesian Angstrom
Ni      1.2286390390     0.7093535490     9.0125970590
Ni      2.4572760100     2.8374169220     9.0125970590
Ni      3.6859498400     4.9655441370     9.0125970590
Ni      3.6859144660     0.7093535490     9.0125970590
Ni      4.9145514370     2.8374169220     9.0125970590
Ni      6.1432252670     4.9655441370     9.0125970590
Ni      6.1432636120     0.7093535490     9.0125970590
Ni      7.3719005830     2.8374169220     9.0125970590
Ni      8.6005744130     4.9655441370     9.0125970590
Ni      0.0000019230    -0.0000011100    11.0191845730
Ni      1.2286511800     2.1280835430    11.0191845730
Ni      2.4573004380     4.2561681970    11.0191845730
Ni      2.4573019230    -0.0000011100    11.0191845730
Ni      3.6859511800     2.1280835430    11.0191845730
Ni      4.9146004380     4.2561681970    11.0191845730
Ni      4.9146019230    -0.0000011100    11.0191845730
Ni      6.1432511800     2.1280835430    11.0191845730
Ni      7.3719004380     4.2561681970    11.0191845730
Ni      9.8291970100     5.6748892401    13.0324849556
Ni      4.9145980198     5.6748893593    13.0324852164
Ni      7.3718991758     1.4187202853    13.0324856500
Ni      8.6005492460     3.5468057814    13.0324864151
Ni      7.3718984520     5.6748900664    13.0324864346
Ni      2.4573016324     1.4187213286    13.0324867123
Ni      3.6859500153     3.5468058594    13.0324876950
Ni      6.1432488122     3.5468055587    13.0324879319
Ni      4.9146003559     1.4187209547    13.0324881305
Ni      4.9146024517     2.8374451427    15.0334585589
Ni      2.4573039655     2.8374470172    15.0334598186
Ni      6.1432518675     4.9655284072    15.0334598528
Ni      7.3719008977     2.8374462771    15.0334599804
Ni      3.6859555058     0.7093603620    15.0334602556
Ni      1.2286550209     0.7093609929    15.0334616076
Ni      3.6859521613     4.9655297045    15.0334616685
Ni      8.6005513471     4.9655301153    15.0334618667
Ni      6.1432529377     0.7093606827    15.0334623189
Ni      7.3718981461     4.2561658701    17.0436126492
Ni      2.4573001516     4.2561668027    17.0436139163
Ni      4.9146014848    -0.0000023770    17.0436145683
Ni      4.9146006221     4.2561672435    17.0436152860
Ni      0.0000023638    -0.0000021113    17.0436153847
Ni      6.1432512178     2.1280823767    17.0436158106
Ni      1.2286541909     2.1280837412    17.0436166733
Ni      2.4573047358    -0.0000005294    17.0436167517
Ni      3.6859557290     2.1280847607    17.0436183569
Ni      7.3722958711     1.4190818822    19.0419255489
Ni      9.8292980417     5.6749523311    19.0436865800
Ni      2.4573006487     1.4191937849    19.0392717683
Ni      4.9148675083     5.6750156155    19.0423444433
Ni      4.9142117967     1.4192215037    19.0408192795
Ni      3.6859581058     3.5463835322    19.0386759245
Ni      7.3717176857     5.6713860383    19.0425765092
Ni      8.5975751871     3.5478449126    19.0413864945
Ni      6.1459921435     3.5481777084    19.0422169816
Ni      4.9145450673     2.8363787280    21.0377915585
Ni      6.1451515377     4.9640200008    21.0529877718
Ni      3.6859176570     4.9639148715    21.0483165803
Ni      3.6861001537     0.7144487452    21.0456484845
Ni      2.4587513017     2.8353725187    21.0411808500
Ni      1.2300961857     0.7103962836    21.0488239454
Ni      7.3724615027     2.8394387646    21.0543059723
Ni      6.1421124413     0.7105610519    21.0482033435
Ni      8.5988458110     4.9625673378    21.0506921613
Ni      3.6920939276     2.1725585256    22.9629117396
Ni      1.2072537789     2.1279157157    23.0079523809
Ni      2.4423000312     4.2803488559    23.0031498659
Ni      6.1667492939     2.1241052111    23.0041536740
Ni     -0.0032765194     0.0004202929    23.0380842512
Ni      2.4484688965    -0.0233195655    23.0086793565
Ni      7.3716797320     4.2593510154    23.0418838744
Ni      4.9291904353     4.2795374346    23.0010703906
Ni      4.9298545292    -0.0260582300    23.0004666469
O       3.6376052921     2.0875964470    24.9562296945
H       4.0369377911     1.1824211081    24.9655650353
H       5.2899311318     2.8793248206    25.9675364293
H       3.7936415087     3.8860012118    25.9421799010
C       4.1833122677     2.8603646083    26.0472648611
O       4.1821179804     0.7638394133    27.2170537376
H       5.1618596907     0.8225708835    27.2451157255
C       3.7150472994     2.1246599559    27.2946548866
H       2.6142040296     2.0465422758    27.2658279797
C       4.1816020464     2.8242268864    28.5505773680
H       3.8348113398     3.8793960283    28.5458262588
H       5.2930641581     2.8227785719    28.5432039132
O       3.6824057495     2.1210716739    29.6885808482
H       4.0313063913     2.5915465590    30.4583878496
86
Step 4 | ATOMIC_POSITIONS (angstrom) | Cartesian Angstrom
Ni      1.2286390390     0.7093535490     9.0125970590
Ni      2.4572760100     2.8374169220     9.0125970590
Ni      3.6859498400     4.9655441370     9.0125970590
Ni      3.6859144660     0.7093535490     9.0125970590
Ni      4.9145514370     2.8374169220     9.0125970590
Ni      6.1432252670     4.9655441370     9.0125970590
Ni      6.1432636120     0.7093535490     9.0125970590
Ni      7.3719005830     2.8374169220     9.0125970590
Ni      8.6005744130     4.9655441370     9.0125970590
Ni      0.0000019230    -0.0000011100    11.0191845730
Ni      1.2286511800     2.1280835430    11.0191845730
Ni      2.4573004380     4.2561681970    11.0191845730
Ni      2.4573019230    -0.0000011100    11.0191845730
Ni      3.6859511800     2.1280835430    11.0191845730
Ni      4.9146004380     4.2561681970    11.0191845730
Ni      4.9146019230    -0.0000011100    11.0191845730
Ni      6.1432511800     2.1280835430    11.0191845730
Ni      7.3719004380     4.2561681970    11.0191845730
Ni      9.8291970100     5.6748892401    13.0324849556
Ni      4.9145980198     5.6748893593    13.0324852164
Ni      7.3718991758     1.4187202853    13.0324856500
Ni      8.6005492460     3.5468057814    13.0324864151
Ni      7.3718984520     5.6748900664    13.0324864346
Ni      2.4573016324     1.4187213286    13.0324867123
Ni      3.6859500153     3.5468058594    13.0324876950
Ni      6.1432488122     3.5468055587    13.0324879319
Ni      4.9146003559     1.4187209547    13.0324881305
Ni      4.9146024517     2.8374451427    15.0334585589
Ni      2.4573039655     2.8374470172    15.0334598186
Ni      6.1432518675     4.9655284072    15.0334598528
Ni      7.3719008977     2.8374462771    15.0334599804
Ni      3.6859555058     0.7093603620    15.0334602556
Ni      1.2286550209     0.7093609929    15.0334616076
Ni      3.6859521613     4.9655297045    15.0334616685
Ni      8.6005513471     4.9655301153    15.0334618667
Ni      6.1432529377     0.7093606827    15.0334623189
Ni      7.3718981461     4.2561658701    17.0436126492
Ni      2.4573001516     4.2561668027    17.0436139163
Ni      4.9146014848    -0.0000023770    17.0436145683
Ni      4.9146006221     4.2561672435    17.0436152860
Ni      0.0000023638    -0.0000021113    17.0436153847
Ni      6.1432512178     2.1280823767    17.0436158106
Ni      1.2286541909     2.1280837412    17.0436166733
Ni      2.4573047358    -0.0000005294    17.0436167517
Ni      3.6859557290     2.1280847607    17.0436183569
Ni      7.3724617695     1.4191999063    19.0418088360
Ni      9.8292337519     5.6749483712    19.0440891070
Ni      2.4569652348     1.4190313769    19.0372932024
Ni      4.9150335985     5.6750272969    19.0423904351
Ni      4.9143968444     1.4189538041    19.0392873463
Ni      3.6858540559     3.5467257148    19.0363846185
Ni      7.3716968042     5.6700259736    19.0423571340
Ni      8.5961706071     3.5484023986    19.0400849045
Ni      6.1475423563     3.5490263063    19.0411140108
Ni      4.9168994223     2.8371654493    21.0300813079
Ni      6.1476868987     4.9635172702    21.0493644500
Ni      3.6859046695     4.9643273585    21.0456385417
Ni      3.6860188852     0.7155391655    21.0431245341
Ni      2.4571204439     2.8356669164    21.0345857685
Ni      1.2301962056     0.7100154212    21.0470778769
Ni      7.3729995987     2.8416952155    21.0516607408
Ni      6.1424777654     0.7102948461    21.0455463506
Ni      8.5964224518     4.9607906261    21.0455175686
Ni      3.6947022834     2.1877094004    22.9710375732
Ni      1.2025886265     2.1274046591    23.0014041702
Ni      2.4372034161     4.2870944327    22.9954290492
Ni      6.1721893673     2.1221100970    22.9969151099
Ni     -0.0041190253     0.0019715371    23.0447429953
Ni      2.4474518920    -0.0288593158    23.0021423896
Ni      7.3714901611     4.2614430312    23.0510047381
Ni      4.9344345852     4.2863129813    22.9928528867
Ni      4.9333563728    -0.0321595822    22.9908426751
O       3.6166084464     2.0713908683    24.9706211479
H       4.0331575835     1.1714732180    24.9919386110
H       5.2916598656     2.8890598669    25.9721657603
H       3.7935960523     3.8841571104    25.9383774592
C       4.1796491253     2.8584413487    26.0511031188
O       4.1879923081     0.7668072169    27.2141884053
H       5.1586770896     0.8097643493    27.2484353008
C       3.7220010152     2.1262093143    27.3049145304
H       2.6249922412     2.0487544414    27.2696510602
C       4.1839593243     2.8262966677    28.5576521885
H       3.8382542803     3.8781082344    28.5385192840
H       5.2937087055     2.8304130595    28.5392760004
O       3.6799740251     2.1254203321    29.6897522621
H       4.0266143036     2.5857880327    30.4706068727
86
Step 5 | ATOMIC_POSITIONS (angstrom) | Cartesian Angstrom
Ni      1.2286390390     0.7093535490     9.0125970590
Ni      2.4572760100     2.8374169220     9.0125970590
Ni      3.6859498400     4.9655441370     9.0125970590
Ni      3.6859144660     0.7093535490     9.0125970590
Ni      4.9145514370     2.8374169220     9.0125970590
Ni      6.1432252670     4.9655441370     9.0125970590
Ni      6.1432636120     0.7093535490     9.0125970590
Ni      7.3719005830     2.8374169220     9.0125970590
Ni      8.6005744130     4.9655441370     9.0125970590
Ni      0.0000019230    -0.0000011100    11.0191845730
Ni      1.2286511800     2.1280835430    11.0191845730
Ni      2.4573004380     4.2561681970    11.0191845730
Ni      2.4573019230    -0.0000011100    11.0191845730
Ni      3.6859511800     2.1280835430    11.0191845730
Ni      4.9146004380     4.2561681970    11.0191845730
Ni      4.9146019230    -0.0000011100    11.0191845730
Ni      6.1432511800     2.1280835430    11.0191845730
Ni      7.3719004380     4.2561681970    11.0191845730
Ni      9.8291970100     5.6748892401    13.0324849556
Ni      4.9145980198     5.6748893593    13.0324852164
Ni      7.3718991758     1.4187202853    13.0324856500
Ni      8.6005492460     3.5468057814    13.0324864151
Ni      7.3718984520     5.6748900664    13.0324864346
Ni      2.4573016324     1.4187213286    13.0324867123
Ni      3.6859500153     3.5468058594    13.0324876950
Ni      6.1432488122     3.5468055587    13.0324879319
Ni      4.9146003559     1.4187209547    13.0324881305
Ni      4.9146024517     2.8374451427    15.0334585589
Ni      2.4573039655     2.8374470172    15.0334598186
Ni      6.1432518675     4.9655284072    15.0334598528
Ni      7.3719008977     2.8374462771    15.0334599804
Ni      3.6859555058     0.7093603620    15.0334602556
Ni      1.2286550209     0.7093609929    15.0334616076
Ni      3.6859521613     4.9655297045    15.0334616685
Ni      8.6005513471     4.9655301153    15.0334618667
Ni      6.1432529377     0.7093606827    15.0334623189
Ni      7.3718981461     4.2561658701    17.0436126492
Ni      2.4573001516     4.2561668027    17.0436139163
Ni      4.9146014848    -0.0000023770    17.0436145683
Ni      4.9146006221     4.2561672435    17.0436152860
Ni      0.0000023638    -0.0000021113    17.0436153847
Ni      6.1432512178     2.1280823767    17.0436158106
Ni      1.2286541909     2.1280837412    17.0436166733
Ni      2.4573047358    -0.0000005294    17.0436167517
Ni      3.6859557290     2.1280847607    17.0436183569
Ni      7.3726657835     1.4192524492    19.0410912818
Ni      9.8291472300     5.6749599705    19.0436565931
Ni      2.4564330351     1.4185814530    19.0342190794
Ni      4.9152240403     5.6750318275    19.0417673346
Ni      4.9147645951     1.4183237814    19.0365769164
Ni      3.6856881153     3.5474119859    19.0329203610
Ni      7.3716971652     5.6690588364    19.0409728997
Ni      8.5947295719     3.5489317785    19.0370573684
Ni      6.1493456877     3.5500574392    19.0382995649
Ni      4.9194827467     2.8380554809    21.0217470306
Ni      6.1517814830     4.9631123864    21.0431855591
Ni      3.6858999423     4.9654076683    21.0423852104
Ni      3.6858765527     0.7182359879    21.0416398918
Ni      2.4555736271     2.8359542783    21.0273255936
Ni      1.2300033364     0.7089892986    21.0451790048
Ni      7.3737933972     2.8452306678    21.0470930765
Ni      6.1435020181     0.7094742115    21.0420448144
Ni      8.5925265729     4.9584761027    21.0372298241
Ni      3.6975026043     2.2037464714    22.9940896208
Ni      1.2007099951     2.1266352909    22.9928511983
Ni      2.4324641566     4.2919607022    22.9861984396
Ni      6.1749042972     2.1196650915    22.9883111383
Ni     -0.0045857843     0.0047366710    23.0530117349
Ni      2.4481874589    -0.0318840651    22.9935075582
Ni      7.3712580768     4.2642989883    23.0625916162
Ni      4.9395993057     4.2917204629    22.9833233967
Ni      4.9352055311    -0.0353416716    22.9790246083
O       3.6001276581     2.0528921425    24.9822517197
H       4.0237223938     1.1624770861    25.0277873520
H       5.2843159096     2.8993448689    25.9751446266
H       3.7928481341     3.8769179125    25.9349183307
C       4.1767843639     2.8529954753    26.0495592775
O       4.1882455157     0.7723139867    27.2147298134
H       5.1642741396     0.7923015385    27.2537626880
C       3.7292108446     2.1297586155    27.3097840744
H       2.6356780481     2.0511592017    27.2776264952
C       4.1905214795     2.8282192213    28.5619229603
H       3.8422203075     3.8752293769    28.5312404626
H       5.2945172293     2.8402547453    28.5400401402
O       3.6799252586     2.1346631602    29.6959215123
H       4.0192385475     2.5766868888    30.4865397663
86
Step 6 | ATOMIC_POSITIONS (angstrom) | Cartesian Angstrom
Ni      1.2286390390     0.7093535490     9.0125970590
Ni      2.4572760100     2.8374169220     9.0125970590
Ni      3.6859498400     4.9655441370     9.0125970590
Ni      3.6859144660     0.7093535490     9.0125970590
Ni      4.9145514370     2.8374169220     9.0125970590
Ni      6.1432252670     4.9655441370     9.0125970590
Ni      6.1432636120     0.7093535490     9.0125970590
Ni      7.3719005830     2.8374169220     9.0125970590
Ni      8.6005744130     4.9655441370     9.0125970590
Ni      0.0000019230    -0.0000011100    11.0191845730
Ni      1.2286511800     2.1280835430    11.0191845730
Ni      2.4573004380     4.2561681970    11.0191845730
Ni      2.4573019230    -0.0000011100    11.0191845730
Ni      3.6859511800     2.1280835430    11.0191845730
Ni      4.9146004380     4.2561681970    11.0191845730
Ni      4.9146019230    -0.0000011100    11.0191845730
Ni      6.1432511800     2.1280835430    11.0191845730
Ni      7.3719004380     4.2561681970    11.0191845730
Ni      9.8291970100     5.6748892401    13.0324849556
Ni      4.9145980198     5.6748893593    13.0324852164
Ni      7.3718991758     1.4187202853    13.0324856500
Ni      8.6005492460     3.5468057814    13.0324864151
Ni      7.3718984520     5.6748900664    13.0324864346
Ni      2.4573016324     1.4187213286    13.0324867123
Ni      3.6859500153     3.5468058594    13.0324876950
Ni      6.1432488122     3.5468055587    13.0324879319
Ni      4.9146003559     1.4187209547    13.0324881305
Ni      4.9146024517     2.8374451427    15.0334585589
Ni      2.4573039655     2.8374470172    15.0334598186
Ni      6.1432518675     4.9655284072    15.0334598528
Ni      7.3719008977     2.8374462771    15.0334599804
Ni      3.6859555058     0.7093603620    15.0334602556
Ni      1.2286550209     0.7093609929    15.0334616076
Ni      3.6859521613     4.9655297045    15.0334616685
Ni      8.6005513471     4.9655301153    15.0334618667
Ni      6.1432529377     0.7093606827    15.0334623189
Ni      7.3718981461     4.2561658701    17.0436126492
Ni      2.4573001516     4.2561668027    17.0436139163
Ni      4.9146014848    -0.0000023770    17.0436145683
Ni      4.9146006221     4.2561672435    17.0436152860
Ni      0.0000023638    -0.0000021113    17.0436153847
Ni      6.1432512178     2.1280823767    17.0436158106
Ni      1.2286541909     2.1280837412    17.0436166733
Ni      2.4573047358    -0.0000005294    17.0436167517
Ni      3.6859557290     2.1280847607    17.0436183569
Ni      7.3728571718     1.4192040423    19.0397292724
Ni      9.8291089546     5.6749907377    19.0419846860
Ni      2.4559211419     1.4179369838    19.0310063310
Ni      4.9153552032     5.6750065064    19.0402804990
Ni      4.9151679733     1.4175061000    19.0334679226
Ni      3.6855471450     3.5482226440    19.0294014075
Ni      7.3717142616     5.6696042653    19.0382427292
Ni      8.5941329972     3.5489879194    19.0325957710
Ni      6.1504806876     3.5507627480    19.0340814224
Ni      4.9200419390     2.8381888680    21.0167304916
Ni      6.1563080035     4.9630152566    21.0363946356
Ni      3.6859112316     4.9670337939    21.0397201391
Ni      3.6857817793     0.7236171842    21.0423694063
Ni      2.4561974483     2.8355965310    21.0228642542
Ni      1.2293271361     0.7073938047    21.0436247766
Ni      7.3745256927     2.8490719091    21.0423122063
Ni      6.1452294839     0.7081641649    21.0385251157
Ni      8.5883279712     4.9564702654    21.0285558001
Ni      3.6994311216     2.2154148227    23.0248086274
Ni      1.2034574543     2.1259660395    22.9840738211
Ni      2.4300551442     4.2923556337    22.9777356043
Ni      6.1727959179     2.1176870315    22.9803681685
Ni     -0.0042786643     0.0080560685    23.0604140926
Ni      2.4508966432    -0.0302031078    22.9846153607
Ni      7.3711292202     4.2670402929    23.0730897769
Ni      4.9426527588     4.2932972525    22.9749169418
Ni      4.9341765250    -0.0332754789    22.9681072836
O       3.5941924454     2.0428854079    24.9878096078
H       4.0113816195     1.1516214731    25.0645177530
H       5.2740600067     2.9056888667    25.9729152063
H       3.7895252470     3.8669386034    25.9318065919
C       4.1700453233     2.8473746210    26.0456806792
O       4.1934975950     0.7745201272    27.2191642271
H       5.1675189654     0.7750812611    27.2599589185
C       3.7355136274     2.1337993704    27.3103285211
H       2.6414663505     2.0535659663    27.2883950178
C       4.1961102634     2.8306967393    28.5639995951
H       3.8454046034     3.8735751925    28.5263922308
H       5.2996864439     2.8493313711    28.5468539158
O       3.6800638504     2.1422866300    29.6984960384
H       4.0140234815     2.5705697392    30.5058272945
86
Step 7 | ATOMIC_POSITIONS (angstrom) | Cartesian Angstrom
Ni      1.2286390390     0.7093535490     9.0125970590
Ni      2.4572760100     2.8374169220     9.0125970590
Ni      3.6859498400     4.9655441370     9.0125970590
Ni      3.6859144660     0.7093535490     9.0125970590
Ni      4.9145514370     2.8374169220     9.0125970590
Ni      6.1432252670     4.9655441370     9.0125970590
Ni      6.1432636120     0.7093535490     9.0125970590
Ni      7.3719005830     2.8374169220     9.0125970590
Ni      8.6005744130     4.9655441370     9.0125970590
Ni      0.0000019230    -0.0000011100    11.0191845730
Ni      1.2286511800     2.1280835430    11.0191845730
Ni      2.4573004380     4.2561681970    11.0191845730
Ni      2.4573019230    -0.0000011100    11.0191845730
Ni      3.6859511800     2.1280835430    11.0191845730
Ni      4.9146004380     4.2561681970    11.0191845730
Ni      4.9146019230    -0.0000011100    11.0191845730
Ni      6.1432511800     2.1280835430    11.0191845730
Ni      7.3719004380     4.2561681970    11.0191845730
Ni      9.8291970100     5.6748892401    13.0324849556
Ni      4.9145980198     5.6748893593    13.0324852164
Ni      7.3718991758     1.4187202853    13.0324856500