85
Step 1 | ATOMIC_POSITIONS (angstrom) | Cartesian Angstrom
NI      1.2286390390     0.7093535490     9.0128649340
NI      2.4572760100     2.8374169220     9.0128649340
NI      3.6859498400     4.9655441370     9.0128649340
NI      3.6859144660     0.7093535490     9.0128649340
NI      4.9145514370     2.8374169220     9.0128649340
NI      6.1432252670     4.9655441370     9.0128649340
NI      6.1432636120     0.7093535490     9.0128649340
NI      7.3719005830     2.8374169220     9.0128649340
NI      8.6005744130     4.9655441370     9.0128649340
NI      0.0000019230    -0.0000011100    11.0189462060
NI      1.2286511800     2.1280835430    11.0189462060
NI      2.4573004370     4.2561681970    11.0189462060
NI      2.4573019230    -0.0000011100    11.0189462060
NI      3.6859511800     2.1280835430    11.0189462060
NI      4.9146004370     4.2561681970    11.0189462060
NI      4.9146019230    -0.0000011100    11.0189462060
NI      6.1432511800     2.1280835430    11.0189462060
NI      7.3719004370     4.2561681970    11.0189462060
NI      2.4640404916     1.4225853277    13.0274189916
NI      3.6923449925     3.5507361477    13.0276087398
NI      4.9211563963     1.4222889059    13.0275392492
NI      4.9211789550     5.6790585265    13.0278132664
NI      7.3788385943     1.4223576268    13.0277913358
NI      6.1493970240     3.5503344906    13.0285208505
NI      8.6070689274     3.5501704901    13.0284714085
NI      7.3780924813     5.6788736893    13.0284583693
NI      9.8356892594     5.6785959734    13.0281780342
NI      8.6116556374     4.9719785133    15.0183731351
NI      7.3826153568     2.8439704477    15.0188060696
NI      6.1543213581     4.9715344780    15.0189641057
NI      3.6966987019     4.9715632238    15.0199814236
NI      6.1538491298     0.7157020090    15.0200013923
NI      4.9252794289     2.8435703124    15.0198790824
NI      2.4678677880     2.8434053480    15.0201552464
NI      3.6964413161     0.7155312407    15.0201250767
NI      1.2386654960     0.7152019872    15.0209073634
CU      3.6981309765     2.1351341092    17.0979279954
CU      1.2409147217     2.1353995327    17.0979276994
CU      2.4697772692     0.0069945595    17.0979077121
CU      0.0123189124     0.0071312695    17.0978064082
CU      4.9272958439     4.2630351164    17.0985591890
CU      6.1555964108     2.1356410568    17.0985637959
CU      4.9265208401     0.0071809464    17.0985555764
CU      2.4694759846     4.2628776448    17.0987585857
CU      7.3842474025     4.2632491034    17.0988615086
CU      9.8379674895     5.6800522266    19.1896608944
CU      7.3807395313     1.4236839531    19.1897901786
CU      4.9234093940     5.6800854453    19.1898374655
CU      2.4663931459     1.4239642674    19.1885485136
CU      8.6093150299     3.5518166561    19.1903030648
CU      7.3805731016     5.6799898543    19.1902534637
CU      4.9235952553     1.4243037898    19.1892690466
CU      3.6953106525     3.5517485903    19.1892737516
CU      6.1525372391     3.5522637912    19.1906483319
CU      8.6036948466     4.9671922573    21.2816133422
CU      7.3745612166     2.8386425559    21.2815380114
CU      6.1456450113     4.9670990452    21.2817141712
CU      6.1460578183     0.7115747418    21.2805662828
CU      3.6891066396     4.9666547636    21.2804945455
CU      4.9164922642     2.8385166193    21.2794535573
CU      2.4624237615     2.8382029972    21.2805581441
CU      3.6891599883     0.7135129571    21.2810094080
CU      1.2328967475     0.7119396596    21.2812442039
CU      3.6868916768     2.1333864945    23.3304704000
CU      6.1450631768     2.1271508461    23.3289822758
CU      4.9143557350     4.2587215404    23.3281539293
CU      2.4531623528    -0.0063720348    23.3291713965
CU      1.2220552377     2.1278362598    23.3296816225
CU      4.9149497382    -0.0059934962    23.3303466682
CU      2.4528210793     4.2594881919    23.3293245891
CU     -0.0009219598    -0.0010731072    23.3327261938
CU      7.3682377198     4.2538875165    23.3341940836
O       3.7293786517     2.1126161832    25.1530978471
H       5.3095545617     2.8456223807    26.2353115647
H       3.8336764695     3.8580123770    26.2379815816
C       4.1956366246     2.8238081108    26.2655342393
O       4.2143108571     0.7639253091    27.5139869009
H       5.1943838949     0.8216512437    27.5155623440
C       3.7399042028     2.1058063368    27.5407667751
H       2.6218894531     2.0279879809    27.5401383265
C       4.2093445960     2.8071485219    28.8060486128
H       3.8657430150     3.8464305651    28.8392444648
H       5.3189291431     2.7943003905    28.8390216099
O       3.7274234306     2.1092869207    29.9569548445
H       4.0716896797     2.5859681464    30.7280680724
85
Step 2 | ATOMIC_POSITIONS (angstrom) | Cartesian Angstrom
NI      1.2286390390     0.7093535490     9.0128649340
NI      2.4572760100     2.8374169220     9.0128649340
NI      3.6859498400     4.9655441370     9.0128649340
NI      3.6859144660     0.7093535490     9.0128649340
NI      4.9145514370     2.8374169220     9.0128649340
NI      6.1432252670     4.9655441370     9.0128649340
NI      6.1432636120     0.7093535490     9.0128649340
NI      7.3719005830     2.8374169220     9.0128649340
NI      8.6005744130     4.9655441370     9.0128649340
NI      0.0000019230    -0.0000011100    11.0189462060
NI      1.2286511800     2.1280835430    11.0189462060
NI      2.4573004370     4.2561681970    11.0189462060
NI      2.4573019230    -0.0000011100    11.0189462060
NI      3.6859511800     2.1280835430    11.0189462060
NI      4.9146004370     4.2561681970    11.0189462060
NI      4.9146019230    -0.0000011100    11.0189462060
NI      6.1432511800     2.1280835430    11.0189462060
NI      7.3719004370     4.2561681970    11.0189462060
NI      2.4637443197     1.4223736565    13.0275506212
NI      3.6922102104     3.5507944937    13.0275676801
NI      4.9210762507     1.4221330066    13.0273848075
NI      4.9212127027     5.6787468277    13.0278728707
NI      7.3786431997     1.4225698828    13.0278097487
NI      6.1493389478     3.5502701586    13.0292800756
NI      8.6069405587     3.5501545149    13.0290303083
NI      7.3780434132     5.6787928893    13.0290072150
NI      9.8354104199     5.6783707167    13.0281273760
NI      8.6114810882     4.9719266258    15.0180170567
NI      7.3823297543     2.8435927599    15.0180597282
NI      6.1539343189     4.9714611647    15.0184546118
NI      3.6965608603     4.9716962672    15.0202260854
NI      6.1538936742     0.7155867069    15.0202638675
NI      4.9248335270     2.8432621154    15.0197569124
NI      2.4680241129     2.8429471198    15.0197339460
NI      3.6961799777     0.7159006046    15.0196517143
NI      1.2385157506     0.7152002825    15.0208520470
CU      3.6978049747     2.1349709609    17.0983392692
CU      1.2405769962     2.1356410232    17.0980614241
CU      2.4698300065     0.0066284981    17.0980203682
CU      0.0120499847     0.0070007446    17.0974834579
CU      4.9275450923     4.2629538960    17.0989307857
CU      6.1557265194     2.1358950715    17.0989517393
CU      4.9261759835     0.0065567463    17.0985806343
CU      2.4687618427     4.2628601026    17.0990858786
CU      7.3841390004     4.2631128190    17.0986729342
CU      9.8384667892     5.6804742262    19.1904296688
CU      7.3810299537     1.4230067042    19.1904405622
CU      4.9230840983     5.6807019213    19.1905807691
CU      2.4661495924     1.4238106211    19.1870727063
CU      8.6092286501     3.5514990205    19.1912936353
CU      7.3801882061     5.6801007047    19.1912011436
CU      4.9232180928     1.4242584292    19.1883074404
CU      3.6951321580     3.5513855328    19.1882953725
CU      6.1524239156     3.5523437905    19.1913415973
CU      8.6043039830     4.9673824759    21.2821469979
CU      7.3744042015     2.8384730716    21.2815675425
CU      6.1454991973     4.9668623237    21.2819421095
CU      6.1456238850     0.7119596828    21.2792405670
CU      3.6890023310     4.9658531612    21.2789025021
CU      4.9151699093     2.8376862046    21.2762924727
CU      2.4645878834     2.8366314056    21.2789910212
CU      3.6889108162     0.7163566589    21.2802917674
CU      1.2336015672     0.7125271155    21.2803190560
CU      3.6917202897     2.1429026376    23.3345725739
CU      6.1514023069     2.1283133486    23.3262420056
CU      4.9181998855     4.2645265832    23.3241685952
CU      2.4497558045    -0.0127143963    23.3266517558
CU      1.2160600300     2.1281965886    23.3279861395
CU      4.9175617899    -0.0111805140    23.3293071819
CU      2.4501469496     4.2648874065    23.3267322352
CU     -0.0012798312    -0.0019558861    23.3352656292
CU      7.3680048240     4.2534989366    23.3390997793
O       3.7163579477     2.0968333666    25.1634386067
H       5.3114406381     2.8501232114    26.2416184349
H       3.8332331581     3.8705115984    26.2414567236
C       4.1962516678     2.8255538552    26.2542323611
O       4.2180413440     0.7515899156    27.5152512285
H       5.1881338060     0.8176257856    27.5155024246
C       3.7419316443     2.0993393284    27.5428624860
H       2.6333769943     2.0287909809    27.5400995777
C       4.2126782384     2.8085114278    28.8133974830
H       3.8651964277     3.8579678570    28.8317353450
H       5.3226652953     2.7994871454    28.8290892168
O       3.7189785449     2.1037319084    29.9605831739
H       4.0695254467     2.5836713509    30.7303407202
85
Step 3 | ATOMIC_POSITIONS (angstrom) | Cartesian Angstrom
NI      1.2286390390     0.7093535490     9.0128649340
NI      2.4572760100     2.8374169220     9.0128649340
NI      3.6859498400     4.9655441370     9.0128649340
NI      3.6859144660     0.7093535490     9.0128649340
NI      4.9145514370     2.8374169220     9.0128649340
NI      6.1432252670     4.9655441370     9.0128649340
NI      6.1432636120     0.7093535490     9.0128649340
NI      7.3719005830     2.8374169220     9.0128649340
NI      8.6005744130     4.9655441370     9.0128649340
NI      0.0000019230    -0.0000011100    11.0189462060
NI      1.2286511800     2.1280835430    11.0189462060
NI      2.4573004370     4.2561681970    11.0189462060
NI      2.4573019230    -0.0000011100    11.0189462060
NI      3.6859511800     2.1280835430    11.0189462060
NI      4.9146004370     4.2561681970    11.0189462060
NI      4.9146019230    -0.0000011100    11.0189462060
NI      6.1432511800     2.1280835430    11.0189462060
NI      7.3719004370     4.2561681970    11.0189462060
NI      2.4633406527     1.4220914366    13.0276012960
NI      3.6920366213     3.5508675960    13.0274727416
NI      4.9209842842     1.4219316560    13.0271380180
NI      4.9211752029     5.6783763334    13.0278762871
NI      7.3783726550     1.4227462291    13.0277535746
NI      6.1491885714     3.5501484878    13.0300927157
NI      8.6068085135     3.5501042755    13.0296060831
NI      7.3779654245     5.6787202874    13.0295819638
NI      9.8350957372     5.6781110802    13.0280253575
NI      8.6112407027     4.9718286451    15.0176900488
NI      7.3819446966     2.8431625369    15.0173059244
NI      6.1534455212     4.9713292317    15.0179855713
NI      3.6963187068     4.9717915903    15.0205945086
NI      6.1538629352     0.7154046865    15.0206248631
NI      4.9242299957     2.8428736522    15.0197211004
NI      2.4682004511     2.8424279677    15.0193527581
NI      3.6958621268     0.7163282584    15.0192068657
NI      1.2383047155     0.7151689666    15.0208535615
CU      3.6974258486     2.1347810042    17.0985878041
CU      1.2401014895     2.1358735272    17.0981235215
CU      2.4698048012     0.0061506084    17.0980750911
CU      0.0117274703     0.0068296177    17.0971729516
CU      4.9277418431     4.2628532504    17.0993467924
CU      6.1558227376     2.1361203789    17.0994003637
CU      4.9257443055     0.0058545466    17.0986083846
CU      2.4679438901     4.2628010337    17.0994547467
CU      7.3839488932     4.2629131841    17.0984574163
CU      9.8388162022     5.6808137805    19.1912394923
CU      7.3812676259     1.4224205975    19.1910801003
CU      4.9227993794     5.6812269699    19.1913606201
CU      2.4658377383     1.4235946969    19.1850782536
CU      8.6090237616     3.5512695582    19.1925122921
CU      7.3798101342     5.6800940433    19.1924203395
CU      4.9228243924     1.4240712818    19.1868769032
CU      3.6948502280     3.5511116652    19.1867871407
CU      6.1523964505     3.5525046594    19.1920970442
CU      8.6045045453     4.9674699806    21.2825329084
CU      7.3744480003     2.8387552977    21.2812344766
CU      6.1459476232     4.9665828584    21.2817084588
CU      6.1452264069     0.7122752849    21.2777930333
CU      3.6888789274     4.9651930580    21.2768375523
CU      4.9140187343     2.8368840367    21.2727809310
CU      2.4667198214     2.8350230858    21.2776730431
CU      3.6886926896     0.7192978945    21.2802689517
CU      1.2342742635     0.7131033825    21.2793700359
CU      3.6974224039     2.1536342251    23.3429333380
CU      6.1576904814     2.1295582082    23.3226394695
CU      4.9223084494     4.2706865054    23.3191112245
CU      2.4470411693    -0.0179190417    23.3232349472
CU      1.2110849329     2.1285129552    23.3256636619
CU      4.9195040324    -0.0153292350    23.3278521346
CU      2.4475776346     4.2702782089    23.3233554820
CU     -0.0017987097    -0.0027938025    23.3382667638
CU      7.3679653801     4.2531308036    23.3453911797
O       3.6988440769     2.0767774163    25.1697498212
H       5.3107380994     2.8560471163    26.2459456368
H       3.8341961383     3.8788079383    26.2440513175
C       4.1978842944     2.8281418442    26.2556967214
O       4.2135203349     0.7432862088    27.5172727545
H       5.1903536251     0.8103656531    27.5154717764
C       3.7456815992     2.0962244336    27.5435738618
H       2.6460766544     2.0284021115    27.5404289554
C       4.2138864631     2.8096058771    28.8152637225
H       3.8665141785     3.8643760065    28.8231737783
H       5.3251545732     2.8061345165    28.8199930705
O       3.7142467600     2.1049603075    29.9632301192
H       4.0646527911     2.5778994126    30.7331751547
85
Step 4 | ATOMIC_POSITIONS (angstrom) | Cartesian Angstrom
NI      1.2286390390     0.7093535490     9.0128649340
NI      2.4572760100     2.8374169220     9.0128649340
NI      3.6859498400     4.9655441370     9.0128649340
NI      3.6859144660     0.7093535490     9.0128649340
NI      4.9145514370     2.8374169220     9.0128649340
NI      6.1432252670     4.9655441370     9.0128649340
NI      6.1432636120     0.7093535490     9.0128649340
NI      7.3719005830     2.8374169220     9.0128649340
NI      8.6005744130     4.9655441370     9.0128649340
NI      0.0000019230    -0.0000011100    11.0189462060
NI      1.2286511800     2.1280835430    11.0189462060
NI      2.4573004370     4.2561681970    11.0189462060
NI      2.4573019230    -0.0000011100    11.0189462060
NI      3.6859511800     2.1280835430    11.0189462060
NI      4.9146004370     4.2561681970    11.0189462060
NI      4.9146019230    -0.0000011100    11.0189462060
NI      6.1432511800     2.1280835430    11.0189462060
NI      7.3719004370     4.2561681970    11.0189462060
NI      2.4628933172     1.4217888871    13.0275408261
NI      3.6918513592     3.5509347248    13.0273410714
NI      4.9208959378     1.4217233116    13.0268468995
NI      4.9210446743     5.6780252213    13.0278134195
NI      7.3780680892     1.4228192843    13.0276189827
NI      6.1489444764     3.5499784309    13.0307421429
NI      8.6067011187     3.5500147526    13.0300477584
NI      7.3778577609     5.6786730150    13.0300407071
NI      9.8348116768     5.6778715099    13.0278940550
NI      8.6109690720     4.9716889711    15.0174692413
NI      7.3815180172     2.8427768845    15.0167449098
NI      6.1529441563     4.9711441003    15.0176888789
NI      3.6959865222     4.9718052396    15.0210162740
NI      6.1537249937     0.7151687372    15.0210074129
NI      4.9235818407     2.8424815228    15.0197984055
NI      2.4683339526     2.8419748504    15.0191239441
NI      3.6955511303     0.7166940441    15.0189176300
NI      1.2380518156     0.7150913849    15.0209123095
CU      3.6970630939     2.1345967691    17.0985345458
CU      1.2395599817     2.1360240768    17.0980607147
CU      2.4696691490     0.0056448413    17.0980291254
CU      0.0114068853     0.0066434373    17.0969984510
CU      4.9277981566     4.2627529194    17.0996948338
CU      6.1558312945     2.1362316817    17.0997900516
CU      4.9253018176     0.0052254635    17.0986223200
CU      2.4671889626     4.2627026458    17.0997563205
CU      7.3836955330     4.2626843411    17.0983124881
CU      9.8388594188     5.6809566704    19.1918236955
CU      7.3813604802     1.4221009193    19.1914881644
CU      4.9226311630     5.6814981908    19.1919178930
CU      2.4655344444     1.4233572229    19.1829822810
CU      8.6087640182     3.5511930351    19.1936592673
CU      7.3795500038     5.6800006553    19.1936360703
CU      4.9224903753     1.4237355867    19.1852203655
CU      3.6944894946     3.5510079222    19.1849743038
CU      6.1524482445     3.5526971341    19.1926531961
CU      8.6041456022     4.9674479139    21.2826516717
CU      7.3747726531     2.8395320040    21.2805334673
CU      6.1470560700     4.9663613157    21.2809145667
CU      6.1450100915     0.7123965040    21.2765326528
CU      3.6887754809     4.9649257755    21.2746327538
CU      4.9133012288     2.8363046648    21.2698165595
CU      2.4684039022     2.8337807251    21.2771146825
CU      3.6886173099     0.7217501037    21.2811969217
CU      1.2346848613     0.7134869382    21.2785926824
CU      3.7027593361     2.1632525993    23.3529344757
CU      6.1620932001     2.1306520509    23.3187741417
CU      4.9256331985     4.2755668692    23.3138873060
CU      2.4460686979    -0.0200114080    23.3194687286
CU      1.2090161958     2.1287111285    23.3230668099
CU      4.9199750002    -0.0167814782    23.3261938239
CU      2.4459567405     4.2741334018    23.3198087205
CU     -0.0023524432    -0.0032592477    23.3410660057
CU      7.3682393057     4.2529472776    23.3519254004
O       3.6834903883     2.0613898118    25.1800311439
H       5.3087034528     2.8617998390    26.2467180062
H       3.8360745871     3.8803982073    26.2451301309
C       4.1956018082     2.8266171221    26.2608884857
O       4.2169830349     0.7408058263    27.5195617415
H       5.1869335642     0.7994995911    27.5154707045
C       3.7510515825     2.0967063037    27.5446369182
H       2.6544152757     2.0273550229    27.5408931671
C       4.2147654746     2.8110473860    28.8135570513
H       3.8690569034     3.8650638752    28.8147785536
H       5.3254462918     2.8129318466    28.8135080509
O       3.7115020131     2.1092458850    29.9587954353
H       4.0602763680     2.5729694363    30.7400928897
85
Step 5 | ATOMIC_POSITIONS (angstrom) | Cartesian Angstrom
NI      1.2286390390     0.7093535490     9.0128649340
NI      2.4572760100     2.8374169220     9.0128649340
NI      3.6859498400     4.9655441370     9.0128649340
NI      3.6859144660     0.7093535490     9.0128649340
NI      4.9145514370     2.8374169220     9.0128649340
NI      6.1432252670     4.9655441370     9.0128649340
NI      6.1432636120     0.7093535490     9.0128649340
NI      7.3719005830     2.8374169220     9.0128649340
NI      8.6005744130     4.9655441370     9.0128649340
NI      0.0000019230    -0.0000011100    11.0189462060
NI      1.2286511800     2.1280835430    11.0189462060
NI      2.4573004370     4.2561681970    11.0189462060
NI      2.4573019230    -0.0000011100    11.0189462060
NI      3.6859511800     2.1280835430    11.0189462060
NI      4.9146004370     4.2561681970    11.0189462060
NI      4.9146019230    -0.0000011100    11.0189462060
NI      6.1432511800     2.1280835430    11.0189462060
NI      7.3719004370     4.2561681970    11.0189462060
NI      2.4622403206     1.4213612482    13.0273401281
NI      3.6915808164     3.5509972833    13.0271396216
NI      4.9207670225     1.4214382428    13.0264352834
NI      4.9207475974     5.6775827598    13.0276707443
NI      7.3776146551     1.4227759746    13.0273653538
NI      6.1484953511     3.5496895484    13.0313810064
NI      8.6065729733     3.5498350277    13.0304604052
NI      7.3776565153     5.6786292674    13.0305061499
NI      9.8344619610     5.6775739975    13.0277046905
NI      8.6105411210     4.9714372808    15.0172971083
NI      7.3808756963     2.8423279968    15.0162453983
NI      6.1522579613     4.9708098536    15.0175001943
NI      3.6954134156     4.9717171615    15.0216176871
NI      6.1533894822     0.7147739543    15.0215165890
NI      4.9226890368     2.8419653795    15.0200208245
NI      2.4684052030     2.8414667561    15.0190055486
NI      3.6951329004     0.7170498029    15.0187224995
NI      1.2376338068     0.7149099886    15.0210315212
CU      3.6965799901     2.1343382216    17.0980260127
CU      1.2387522683     2.1361048287    17.0977997871
CU      2.4693371718     0.0049343448    17.0978263929
CU      0.0109629440     0.0063680116    17.0969803878
CU      4.9276783616     4.2626090338    17.1000223018
CU      6.1557036254     2.1362188922    17.1001826404
CU      4.9246821497     0.0044668556    17.0985960226
CU      2.4662387147     4.2625198893    17.1000315231
CU      7.3832674007     4.2623451825    17.0982460575
CU      9.8385233831     5.6809162499    19.1922513490
CU      7.3812936816     1.4219905983    19.1916972697
CU      4.9225378873     5.6815646179    19.1923007724
CU      2.4651768455     1.4230345311    19.1802269805
CU      8.6084250728     3.5512244889    19.1949982631
CU      7.3793498675     5.6798810197    19.1951594165
CU      4.9220697721     1.4231290105    19.1828401293
CU      3.6939064131     3.5510109989    19.1822593806
CU      6.1525359309     3.5529280825    19.1930170831
CU      8.6030684855     4.9673651200    21.2825851435
CU      7.3755785440     2.8411048957    21.2792386182
CU      6.1492917792     4.9662062151    21.2792119899
CU      6.1449900117     0.7123249990    21.2750644838
CU      3.6886924068     4.9650895046    21.2715032946
CU      4.9127971495     2.8358164677    21.2666941895
CU      2.4702541847     2.8326102977    21.2773613423
CU      3.6887441596     0.7245828628    21.2835282012
CU      1.2348564099     0.7137365402    21.2776787886
CU      3.7092951507     2.1744283547    23.3693521688
CU      6.1656643698     2.1320056499    23.3132639156
CU      4.9291348012     4.2805593377    23.3066767690
CU      2.4469890056    -0.0187862394    23.3140542291
CU      1.2100030512     2.1289064532    23.3192710821
CU      4.9188684509    -0.0152439948    23.3237592564
CU      2.4450561056     4.2774695521    23.3148695895
CU     -0.0030784640    -0.0033056256    23.3444514538
CU      7.3690442314     4.2530300972    23.3609057113
O       3.6648043916     2.0460196461    25.1974708438
H       5.3028798059     2.8686026282    26.2435868541
H       3.8382517468     3.8757237373    26.2453422960
C       4.1922358489     2.8211676743    26.2676196032
O       4.2165684806     0.7422628288    27.5232325695
H       5.1894771457     0.7820963987    27.5154749272
C       3.7560649597     2.0974978599    27.5474359964
H       2.6627375640     2.0250541243    27.5420464880
C       4.2190929211     2.8139567137    28.8089627873
H       3.8725594017     3.8633322405    28.8029951246
H       5.3243170376     2.8224133878    28.8075469788
O       3.7107813677     2.1195853282    29.9537762364
H       4.0523896123     2.5639758887    30.7464986221
85
Step 6 | ATOMIC_POSITIONS (angstrom) | Cartesian Angstrom
NI      1.2286390390     0.7093535490     9.0128649340
NI      2.4572760100     2.8374169220     9.0128649340
NI      3.6859498400     4.9655441370     9.0128649340
NI      3.6859144660     0.7093535490     9.0128649340
NI      4.9145514370     2.8374169220     9.0128649340
NI      6.1432252670     4.9655441370     9.0128649340
NI      6.1432636120     0.7093535490     9.0128649340
NI      7.3719005830     2.8374169220     9.0128649340
NI      8.6005744130     4.9655441370     9.0128649340
NI      0.0000019230    -0.0000011100    11.0189462060
NI      1.2286511800     2.1280835430    11.0189462060
NI      2.4573004370     4.2561681970    11.0189462060
NI      2.4573019230    -0.0000011100    11.0189462060
NI      3.6859511800     2.1280835430    11.0189462060
NI      4.9146004370     4.2561681970    11.0189462060
NI      4.9146019230    -0.0000011100    11.0189462060
NI      6.1432511800     2.1280835430    11.0189462060
NI      7.3719004370     4.2561681970    11.0189462060
NI      2.4617448396     1.4210530215    13.0271082902
NI      3.6913598496     3.5509793370    13.0270042693
NI      4.9206412456     1.4212410922    13.0261800277
NI      4.9204091174     5.6773144127    13.0275450064
NI      7.3772533800     1.4225843119    13.0271536042
NI      6.1480543123     3.5494278883    13.0315296862
NI      8.6064773952     3.5496351543    13.0305327566
NI      7.3774317202     5.6786017304    13.0306517839
NI      9.8342388599     5.6773911093    13.0275909057
NI      8.6101401134     4.9711754893    15.0173014427
NI      7.3803409541     2.8421107783    15.0161865777
NI      6.1517786360     4.9704670447    15.0175807395
NI      3.6948676210     4.9715376578    15.0220168809
NI      6.1529821305     0.7144082337    15.0218090805
NI      4.9220939872     2.8416425890    15.0202481747
NI      2.4682624397     2.8412420434    15.0190993856
NI      3.6948231403     0.7170711928    15.0187721329
NI      1.2372283958     0.7146783035    15.0211091059
CU      3.6962215197     2.1341204836    17.0971350720
CU      1.2381241369     2.1360022098    17.0974061765
CU      2.4689371946     0.0044285784    17.0975146693
CU      0.0106161230     0.0061419999    17.0972366704
CU      4.9273569350     4.2624779198    17.1000052234
CU      6.1554203273     2.1360104642    17.1002212523
CU      4.9242080629     0.0040343540    17.0984818292
CU      2.4656346288     4.2623302738    17.1000030656
CU      7.3828654033     4.2620830039    17.0983665165
CU      9.8378724834     5.6806611204    19.1920737787
CU      7.3810361310     1.4222290317    19.1914291191
CU      4.9225973093     5.6813233978    19.1920592920
CU      2.4650304429     1.4228480681    19.1786929861
CU      8.6082921667     3.5513196996    19.1955581136
CU      7.3793645524     5.6799344907    19.1959361483
CU      4.9217500647     1.4226143146    19.1812666165
CU      3.6934134258     3.5510625548    19.1802829694
CU      6.1525191139     3.5529777010    19.1927032012
CU      8.6018678133     4.9673843645    21.2824770600
CU      7.3765483717     2.8426166651    21.2781539488
CU      6.1514913427     4.9663669994    21.2774982841
CU      6.1453172820     0.7120565184    21.2742578297
CU      3.6887371560     4.9657960797    21.2691932284
CU      4.9128298356     2.8358175949    21.2657398894
CU      2.4712839352     2.8323995335    21.2786442663
CU      3.6891311104     0.7262401838    21.2860725018
CU      1.2345290329     0.7136158677    21.2770608250
CU      3.7128136421     2.1795855276    23.3848320340
CU      6.1658483724     2.1329455647    23.3091586168
CU      4.9306321509     4.2825508846    23.3015797007
CU      2.4499387001    -0.0136576817    23.3100908299
CU      1.2146302165     2.1291219023    23.3163822808
CU      4.9165390988    -0.0104787918    23.3219521722
CU      2.4458432249     4.2780853070    23.3113517756
CU     -0.0034412550    -0.0025484405    23.3461734399
CU      7.3701284015     4.2535875681    23.3670708237
O       3.6529305461     2.0395716386    25.2091644408
H       5.2975006954     2.8711112582    26.2369365405
H       3.8381408247     3.8664004611    26.2445645913
C       4.1887932854     2.8162187842    26.2714130239
O       4.2179260185     0.7440737702    27.5268442182
H       5.1917465939     0.7675968727    27.5155425169
C       3.7600766492     2.0980103090    27.5512746556
H       2.6636705189     2.0228380425    27.5441107743
C       4.2212242276     2.8174535014    28.8062255016
H       3.8746270967     3.8622288661    28.7937051172
H       5.3266109020     2.8291789544    28.8061049869
O       3.7102964575     2.1267818485    29.9474642703
H       4.0474416978     2.5588131849    30.7512570666
85
Step 7 | ATOMIC_POSITIONS (angstrom) | Cartesian Angstrom
NI      1.2286390390     0.7093535490     9.0128649340
NI      2.4572760100     2.8374169220     9.0128649340
NI      3.6859498400     4.9655441370     9.0128649340
NI      3.6859144660     0.7093535490     9.0128649340
NI      4.9145514370     2.8374169220     9.0128649340
NI      6.1432252670     4.9655441370     9.0128649340
NI      6.1432636120     0.7093535490     9.0128649340
NI      7.3719005830     2.8374169220     9.0128649340
NI      8.6005744130     4.9655441370     9.0128649340
NI      0.0000019230    -0.0000011100    11.0189462060
NI      1.2286511800     2.1280835430    11.0189462060
NI      2.4573004370     4.2561681970    11.0189462060
NI      2.4573019230    -0.0000011100    11.0189462060
NI      3.6859511800     2.1280835430    11.0189462060
NI      4.9146004370     4.2561681970    11.0189462060
NI      4.9146019230    -0.0000011100    11.0189462060
NI      6.1432511800     2.1280835430    11.0189462060
NI      7.3719004370     4.2561681970    11.0189462060
NI      2.4612874265     1.4207838634    13.0268911958
NI      3.6911184234     3.5508736420    13.0269289887
NI      4.9204615556     1.4210702750    13.0260426338
NI      4.9200118303     5.6771043509    13.0274650612
NI      7.3768934974     1.4222928407    13.0269985973
NI      6.1475714139     3.5491548763    13.0314013853
NI      8.6063450834     3.5493867781    13.0304245088
NI      7.3771343779     5.6785475718    13.0306404463
NI      9.8340211304     5.6772331588    13.0275411068