85
Step 1 | ATOMIC_POSITIONS (angstrom) | Cartesian Angstrom
NI      1.2286390390     0.7093535490     9.0128649340
NI      2.4572760100     2.8374169220     9.0128649340
NI      3.6859498400     4.9655441370     9.0128649340
NI      3.6859144660     0.7093535490     9.0128649340
NI      4.9145514370     2.8374169220     9.0128649340
NI      6.1432252670     4.9655441370     9.0128649340
NI      6.1432636120     0.7093535490     9.0128649340
NI      7.3719005830     2.8374169220     9.0128649340
NI      8.6005744130     4.9655441370     9.0128649340
NI      0.0000019230    -0.0000011100    11.0189462060
NI      1.2286511800     2.1280835430    11.0189462060
NI      2.4573004370     4.2561681970    11.0189462060
NI      2.4573019230    -0.0000011100    11.0189462060
NI      3.6859511800     2.1280835430    11.0189462060
NI      4.9146004370     4.2561681970    11.0189462060
NI      4.9146019230    -0.0000011100    11.0189462060
NI      6.1432511800     2.1280835430    11.0189462060
NI      7.3719004370     4.2561681970    11.0189462060
NI      2.4398358102     1.4200755602    13.0225998189
NI      3.6692265320     3.5480863010    13.0281969967
NI      4.8969117461     1.4212563670    13.0310298635
NI      4.8980246346     5.6759705612    13.0287609786
NI      7.3538320686     1.4210211813    13.0301880261
NI      6.1253297888     3.5484305013    13.0242856102
NI      8.5828750287     3.5485189453    13.0288781884
NI      7.3536254427     5.6768712113    13.0299971250
NI      9.8114202481     5.6767738607    13.0320613581
NI      8.5733110845     4.9713545358    15.0152169347
NI      7.3397365907     2.8437480195    15.0208127547
NI      6.1132146350     4.9669761797    15.0234580547
NI      3.6531199625     4.9707552688    15.0135452649
NI      6.1130767853     0.7093023866    15.0164131366
NI      4.8859664603     2.8437498586    15.0239463667
NI      2.4276504124     2.8389471325    15.0177970862
NI      3.6530367028     0.7147219624    15.0200548055
NI      1.2016655205     0.7145727713    15.0169923308
CU      3.6455648481     2.1394266211    17.0988574790
CU      1.1894561535     2.1400274302    17.0961826837
CU      2.4180831546     0.0129823130    17.0995516422
CU     -0.0409622537     0.0117035541    17.0985643866
CU      4.8719288852     4.2698179943    17.0920216782
CU      6.1033396156     2.1368227341    17.0930490502
CU      4.8780566094     0.0110282301    17.1032577083
CU      2.4178494227     4.2713709950    17.1003806104
CU      7.3347316082     4.2698785465    17.0934394037
CU      9.7825462273     5.7042742305    19.2098071613
CU      7.3245094046     1.4446593035    19.1876870670
CU      4.8657359404     5.7041719853    19.1831288124
CU      2.4116751633     1.4475131791    19.1956896001
CU      8.5555182360     3.5735945496    19.1859365699
CU      7.3272801636     5.7048456316    19.1865123504
CU      4.8693762928     1.4457550792    19.1929318633
CU      3.6398776263     3.5737594203    19.1874385764
CU      6.0966381892     3.5744869451    19.1602058049
CU      8.5442533797     5.0101907836    21.2915344930
CU      7.3069640319     2.8825325740    21.2574918391
CU      6.0836604104     5.0040453688    21.2456107279
CU      6.0854808102     0.7586268297    21.3137197080
CU      3.6275311189     5.0095299053    21.2930343676
CU      4.8657567556     2.8848122801    21.2676246535
CU      2.4009225495     2.8903583493    21.2792049890
CU      3.6389059086     0.7484802750    21.2789227001
CU      1.1620204518     0.7485882737    21.2731128061
CU      3.5992824464     2.1739920484    23.3107370678
CU      6.0714447747     2.1544755685    23.3652220944
CU      4.8052896243     4.3391437724    23.3190297230
CU      2.3855158766     0.0814320389    23.2939280783
CU      1.1721756900     2.1732172299    23.3071397544
CU      4.8466677690     0.0623779385    23.4026180392
CU      2.3858972158     4.3146081197    23.3921375163
CU     -0.0729890896     0.0610071778    23.3950005353
CU      7.3417572212     4.3398489962    23.2941478409
O       6.0890325888     3.7190930442    24.6793308644
H       7.0793553748     4.5465949101    26.2848243185
H       5.2860542368     4.6746856247    26.3167126509
C       6.1343951035     4.0160893907    26.0890003630
O       7.1789745922     1.8820039010    26.6372600863
H       7.0992838387     1.5342010036    25.7232759512
C       6.0664226593     2.7337410795    26.9053410011
H       5.1154779925     2.2164542752    26.6633146243
C       6.0743206964     3.0694907437    28.3885203572
H       5.4065690385     3.9321623893    28.5719236038
H       7.1020501171     3.3575361416    28.6724392893
O       5.6325118500     1.9219442230    29.1202233027
H       5.8060720862     2.0753430554    30.0621909751
85
Step 2 | ATOMIC_POSITIONS (angstrom) | Cartesian Angstrom
NI      1.2286390390     0.7093535490     9.0128649340
NI      2.4572760100     2.8374169220     9.0128649340
NI      3.6859498400     4.9655441370     9.0128649340
NI      3.6859144660     0.7093535490     9.0128649340
NI      4.9145514370     2.8374169220     9.0128649340
NI      6.1432252670     4.9655441370     9.0128649340
NI      6.1432636120     0.7093535490     9.0128649340
NI      7.3719005830     2.8374169220     9.0128649340
NI      8.6005744130     4.9655441370     9.0128649340
NI      0.0000019230    -0.0000011100    11.0189462060
NI      1.2286511800     2.1280835430    11.0189462060
NI      2.4573004370     4.2561681970    11.0189462060
NI      2.4573019230    -0.0000011100    11.0189462060
NI      3.6859511800     2.1280835430    11.0189462060
NI      4.9146004370     4.2561681970    11.0189462060
NI      4.9146019230    -0.0000011100    11.0189462060
NI      6.1432511800     2.1280835430    11.0189462060
NI      7.3719004370     4.2561681970    11.0189462060
NI      2.4400590228     1.4201801053    13.0227434656
NI      3.6692482285     3.5482628092    13.0281702279
NI      4.8972712748     1.4211064433    13.0308727025
NI      4.8980348501     5.6761434084    13.0286754019
NI      7.3540573867     1.4208752947    13.0300202599
NI      6.1256404706     3.5484498498    13.0248667541
NI      8.5832182605     3.5486646964    13.0287550049
NI      7.3540522815     5.6768638294    13.0298171819
NI      9.8116514869     5.6768053142    13.0309917073
NI      8.5738193744     4.9715671602    15.0152167150
NI      7.3403741854     2.8436627792    15.0204988293
NI      6.1135408744     4.9674253714    15.0227249076
NI      3.6532308301     4.9710300654    15.0135450928
NI      6.1134232221     0.7092494690    15.0164437418
NI      4.8860471324     2.8436832998    15.0232066202
NI      2.4279312876     2.8389849012    15.0184274421
NI      3.6533287024     0.7148668593    15.0203618705
NI      1.2020301324     0.7147834051    15.0175802950
CU      3.6459751487     2.1396768229    17.0988329318
CU      1.1894711596     2.1401767733    17.0963383514
CU      2.4181708170     0.0130934153    17.0992827215
CU     -0.0409586558     0.0117434187    17.0985599279
CU      4.8719076327     4.2701561845    17.0923350282
CU      6.1034906717     2.1369746227    17.0933237856
CU      4.8779287904     0.0113608303    17.1027412839
CU      2.4180659045     4.2714635974    17.1003366282
CU      7.3350776550     4.2701814562    17.0934571148
CU      9.7826006387     5.7043545650    19.2092317534
CU      7.3243747224     1.4447771352    19.1879175478
CU      4.8655369355     5.7041667623    19.1832502043
CU      2.4114581859     1.4474925606    19.1959184172
CU      8.5553743080     3.5738398663    19.1859722667
CU      7.3271055551     5.7046156780    19.1863784521
CU      4.8691755999     1.4459399246    19.1929663654
CU      3.6395597581     3.5739250762    19.1875586297
CU      6.0964431661     3.5743499900    19.1603418280
CU      8.5444117815     5.0101948441    21.2916929461
CU      7.3067616823     2.8827595416    21.2577159785
CU      6.0837169324     5.0037103742    21.2455587285
CU      6.0856335801     0.7589484303    21.3133642033
CU      3.6279991048     5.0093316151    21.2936142065
CU      4.8657760462     2.8848864001    21.2673035084
CU      2.4007273817     2.8902600847    21.2791926288
CU      3.6387944422     0.7483891392    21.2792218107
CU      1.1619029603     0.7485299460    21.2733112585
CU      3.5995355455     2.1740906903    23.3105260450
CU      6.0718481810     2.1547605683    23.3653757578
CU      4.8047043958     4.3395862799    23.3185418146
CU      2.3857889552     0.0816299794    23.2935279026
CU      1.1727560153     2.1732767821    23.3074412224
CU      4.8470383111     0.0624953124    23.4021572303
CU      2.3867265115     4.3146860183    23.3916372814
CU     -0.0723932655     0.0607331835    23.3948441019
CU      7.3423160612     4.3400367779    23.2945810640
O       6.0896042861     3.7185841840    24.6789845615
H       7.0789682533     4.5463966460    26.2850977663
H       5.2859535899     4.6746591253    26.3172501567
C       6.1342122392     4.0156582153    26.0888955125
O       7.1796304489     1.8815669534    26.6374949768
H       7.0988432980     1.5338019561    25.7232923342
C       6.0667298616     2.7329817195    26.9055703331
H       5.1155359567     2.2161170403    26.6635110846
C       6.0740377012     3.0685869968    28.3887897023
H       5.4064537440     3.9319103122    28.5712071055
H       7.1019139933     3.3570850563    28.6721499053
O       5.6323095958     1.9208760561    29.1203197119
H       5.8062804329     2.0754677971    30.0622610862
