85
Step 1 | ATOMIC_POSITIONS (angstrom) | Cartesian Angstrom
NI      1.2286390390     0.7093535490     9.0128649340
NI      2.4572760100     2.8374169220     9.0128649340
NI      3.6859498400     4.9655441370     9.0128649340
NI      3.6859144660     0.7093535490     9.0128649340
NI      4.9145514370     2.8374169220     9.0128649340
NI      6.1432252670     4.9655441370     9.0128649340
NI      6.1432636120     0.7093535490     9.0128649340
NI      7.3719005830     2.8374169220     9.0128649340
NI      8.6005744130     4.9655441370     9.0128649340
NI      0.0000019230    -0.0000011100    11.0189462060
NI      1.2286511800     2.1280835430    11.0189462060
NI      2.4573004370     4.2561681970    11.0189462060
NI      2.4573019230    -0.0000011100    11.0189462060
NI      3.6859511800     2.1280835430    11.0189462060
NI      4.9146004370     4.2561681970    11.0189462060
NI      4.9146019230    -0.0000011100    11.0189462060
NI      6.1432511800     2.1280835430    11.0189462060
NI      7.3719004370     4.2561681970    11.0189462060
NI      2.4640441081     1.4225842078    13.0274102622
NI      3.6923479966     3.5507369995    13.0275986531
NI      4.9211540626     1.4222902820    13.0275305244
NI      4.9211840494     5.6790527229    13.0278045660
NI      7.3788375928     1.4223609809    13.0277839501
NI      6.1493969421     3.5503396684    13.0285114147
NI      8.6070665100     3.5501751266    13.0284624598
NI      7.3780910286     5.6788698875    13.0284491897
NI      9.8356858727     5.6785922214    13.0281694326
NI      8.6116523896     4.9719779316    15.0183578280
NI      7.3826141912     2.8439752988    15.0187921300
NI      6.1543232805     4.9715334751    15.0189481726
NI      3.6967007502     4.9715609570    15.0199674588
NI      6.1538471285     0.7157021949    15.0199886766
NI      4.9252803096     2.8435732015    15.0198631527
NI      2.4678685126     2.8434066508    15.0201408767
NI      3.6964408728     0.7155291160    15.0201101112
NI      1.2386683732     0.7152004848    15.0208952862
CU      3.6981314309     2.1351346210    17.0979180725
CU      1.2409147610     2.1354007402    17.0979185385
CU      2.4697779705     0.0069926977    17.0978967946
CU      0.0123199293     0.0071308395    17.0977968370
CU      4.9272975980     4.2630354511    17.0985472520
CU      6.1555963667     2.1356431451    17.0985537722
CU      4.9265195212     0.0071799268    17.0985457782
CU      2.4694751351     4.2628775055    17.0987481174
CU      7.3842467627     4.2632501180    17.0988498576
CU      9.8379666347     5.6800517576    19.1896530788
CU      7.3807397801     1.4236855746    19.1897822571
CU      4.9234107261     5.6800851675    19.1898292233
CU      2.4663936812     1.4239645089    19.1885412098
CU      8.6093146976     3.5518168447    19.1902948051
CU      7.3805729824     5.6799898448    19.1902453845
CU      4.9235947888     1.4243040167    19.1892613316
CU      3.6953106706     3.5517482385    19.1892659782
CU      6.1525379995     3.5522641480    19.1906397641
CU      8.6036947946     4.9671922626    21.2816126495
CU      7.3745615986     2.8386429794    21.2815383600
CU      6.1456448655     4.9670992187    21.2817144296
CU      6.1460565121     0.7115759166    21.2805666127
CU      3.6891074301     4.9666532208    21.2804958832
CU      4.9164900266     2.8385157500    21.2794545362
CU      2.4624260994     2.8382020837    21.2805586062
CU      3.6891602736     0.7135157840    21.2810089002
CU      1.2328982068     0.7119403306    21.2812436301
CU      3.6868907213     2.1333836043    23.3304820515
CU      6.1450670081     2.1271506806    23.3289840595
CU      4.9143573573     4.2587220852    23.3281571231
CU      2.4531630964    -0.0063712373    23.3291746206
CU      1.2220521272     2.1278361269    23.3296839808
CU      4.9149503748    -0.0059948061    23.3303494323
CU      2.4528187407     4.2594906888    23.3293246642
CU     -0.0009229814    -0.0010708042    23.3327305924
CU      7.3682391700     4.2538866649    23.3341982930
O       3.7293772711     2.1126131223    25.1530989038
H       5.3095543964     2.8456225881    26.2353170662
H       3.8336770861     3.8580125153    26.2379869167
C       4.1956373488     2.8238086334    26.2655400480
O       4.2143039551     0.7639202082    27.5139893766
H       5.1943843449     0.8216517680    27.5155678330
C       3.7399030309     2.1058067425    27.5407712804
H       2.6218909173     2.0279883013    27.5401439918
C       4.2093455639     2.8071492223    28.8060541771
H       3.8657435961     3.8464308671    28.8392502852
H       5.3189289717     2.7943005898    28.8390274588
O       3.7274190291     2.1092804045    29.9569643038
H       4.0716893221     2.5859677783    30.7280730789
85
Step 2 | ATOMIC_POSITIONS (angstrom) | Cartesian Angstrom
NI      1.2286390390     0.7093535490     9.0128649340
NI      2.4572760100     2.8374169220     9.0128649340
NI      3.6859498400     4.9655441370     9.0128649340
NI      3.6859144660     0.7093535490     9.0128649340
NI      4.9145514370     2.8374169220     9.0128649340
NI      6.1432252670     4.9655441370     9.0128649340
NI      6.1432636120     0.7093535490     9.0128649340
NI      7.3719005830     2.8374169220     9.0128649340
NI      8.6005744130     4.9655441370     9.0128649340
NI      0.0000019230    -0.0000011100    11.0189462060
NI      1.2286511800     2.1280835430    11.0189462060
NI      2.4573004370     4.2561681970    11.0189462060
NI      2.4573019230    -0.0000011100    11.0189462060
NI      3.6859511800     2.1280835430    11.0189462060
NI      4.9146004370     4.2561681970    11.0189462060
NI      4.9146019230    -0.0000011100    11.0189462060
NI      6.1432511800     2.1280835430    11.0189462060
NI      7.3719004370     4.2561681970    11.0189462060
NI      2.4637459223     1.4223756296    13.0275344972
NI      3.6922114812     3.5507913037    13.0275518039
NI      4.9210746269     1.4221363951    13.0273707759
NI      4.9212160296     5.6787452758    13.0278586662
NI      7.3786443467     1.4225734745    13.0277951548
NI      6.1493394817     3.5502717560    13.0292644815
NI      8.6069396583     3.5501550249    13.0290147223
NI      7.3780428142     5.6787898367    13.0289934358
NI      9.8354080150     5.6783687194    13.0281142389
NI      8.6114790703     4.9719257171    15.0179946182
NI      7.3823296355     2.8435967277    15.0180365785
NI      6.1539366048     4.9714606331    15.0184321641
NI      3.6965619912     4.9716934303    15.0202043688
NI      6.1538918806     0.7155876540    15.0202416599
NI      4.9248339548     2.8432641351    15.0197315867
NI      2.4680247441     2.8429491689    15.0197091218
NI      3.6961801486     0.7158993337    15.0196275548
NI      1.2385180681     0.7152002696    15.0208300758
CU      3.6978062904     2.1349726516    17.0983146035
CU      1.2405775600     2.1356422003    17.0980387965
CU      2.4698303144     0.0066261936    17.0979964499
CU      0.0120505455     0.0070008475    17.0974602091
CU      4.9275472086     4.2629541027    17.0989046262
CU      6.1557257011     2.1358966534    17.0989274900
CU      4.9261757832     0.0065549844    17.0985569786
CU      2.4687604159     4.2628603764    17.0990613539
CU      7.3841392158     4.2631149359    17.0986481455
CU      9.8384648298     5.6804734487    19.1904136016
CU      7.3810299257     1.4230092589    19.1904246511
CU      4.9230862453     5.6807010718    19.1905640618
CU      2.4661506507     1.4238107727    19.1870587983
CU      8.6092277484     3.5514997174    19.1912768068
CU      7.3801882709     5.6801002134    19.1911852058
CU      4.9232178211     1.4242580330    19.1882927455
CU      3.6951323636     3.5513853320    19.1882802921
CU      6.1524252770     3.5523440932    19.1913239272
CU      8.6043026663     4.9673826260    21.2821493545
CU      7.3744054445     2.8384745880    21.2815710841
CU      6.1455008704     4.9668630950    21.2819464902
CU      6.1456222593     0.7119610959    21.2792462114
CU      3.6890032596     4.9658519849    21.2789096406
CU      4.9151676593     2.8376847192    21.2762991978
CU      2.4645899012     2.8366308452    21.2789967457
CU      3.6889117855     0.7163586226    21.2802966005
CU      1.2336033785     0.7125279398    21.2803221274
CU      3.6917168512     2.1428938349    23.3345951375
CU      6.1514093151     2.1283124095    23.3262570989
CU      4.9182029562     4.2645300122    23.3241881837
CU      2.4497580719    -0.0127114131    23.3266728124
CU      1.2160564042     2.1281960256    23.3280056954
CU      4.9175612300    -0.0111822232    23.3293255442
CU      2.4501426665     4.2648916128    23.3267489031
CU     -0.0012808985    -0.0019529226    23.3352908696
CU      7.3680072681     4.2534977703    23.3391247916
O       3.7163574669     2.0968342753    25.1634398197
H       5.3114406494     2.8501230879    26.2416245581
H       3.8332332820     3.8705107838    26.2414630755
C       4.1962533507     2.8255512998    26.2542414378
O       4.2180423015     0.7515911255    27.5152561801
H       5.1881289084     0.8176238428    27.5155091653
C       3.7419235248     2.0993376558    27.5428670504
H       2.6333748146     2.0287915778    27.5401073505
C       4.2126783077     2.8085054404    28.8134021054
H       3.8651969131     3.8579665240    28.8317443173
H       5.3226639700     2.7994864810    28.8290988885
O       3.7189740182     2.1037255347    29.9605954330
H       4.0695251398     2.5836707110    30.7303463301
85
Step 3 | ATOMIC_POSITIONS (angstrom) | Cartesian Angstrom
NI      1.2286390390     0.7093535490     9.0128649340
NI      2.4572760100     2.8374169220     9.0128649340
NI      3.6859498400     4.9655441370     9.0128649340
NI      3.6859144660     0.7093535490     9.0128649340
NI      4.9145514370     2.8374169220     9.0128649340
NI      6.1432252670     4.9655441370     9.0128649340
NI      6.1432636120     0.7093535490     9.0128649340
NI      7.3719005830     2.8374169220     9.0128649340
NI      8.6005744130     4.9655441370     9.0128649340
NI      0.0000019230    -0.0000011100    11.0189462060
NI      1.2286511800     2.1280835430    11.0189462060
NI      2.4573004370     4.2561681970    11.0189462060
NI      2.4573019230    -0.0000011100    11.0189462060
NI      3.6859511800     2.1280835430    11.0189462060
NI      4.9146004370     4.2561681970    11.0189462060
NI      4.9146019230    -0.0000011100    11.0189462060
NI      6.1432511800     2.1280835430    11.0189462060
NI      7.3719004370     4.2561681970    11.0189462060
NI      2.4633423874     1.4220921149    13.0275742490
NI      3.6920374105     3.5508640535    13.0274449356
NI      4.9209815375     1.4219337819    13.0271110908
NI      4.9211786128     5.6783766374    13.0278505604
NI      7.3783749749     1.4227475969    13.0277284439
NI      6.1491883046     3.5501509551    13.0300660565
NI      8.6068091386     3.5501048882    13.0295779966
NI      7.3779646154     5.6787191992    13.0295535923
NI      9.8350936385     5.6781098594    13.0279973444
NI      8.6112386523     4.9718271401    15.0176540909
NI      7.3819454847     2.8431638825    15.0172704938
NI      6.1534459108     4.9713304269    15.0179497568
NI      3.6963219980     4.9717885609    15.0205588728
NI      6.1538625499     0.7154079324    15.0205893013
NI      4.9242291322     2.8428749354    15.0196826184
NI      2.4682017361     2.8424266177    15.0193148259
NI      3.6958594762     0.7163298748    15.0191689806
NI      1.2383087636     0.7151705280    15.0208183934
CU      3.6974262726     2.1347825943    17.0985541296
CU      1.2401029568     2.1358736225    17.0980912199
CU      2.4698042182     0.0061502713    17.0980425027
CU      0.0117297826     0.0068312435    17.0971422533
CU      4.9277441678     4.2628530324    17.0993132824
CU      6.1558223556     2.1361223039    17.0993683537
CU      4.9257434563     0.0058545402    17.0985787554
CU      2.4679433083     4.2627994041    17.0994237918
CU      7.3839484780     4.2629141007    17.0984257213
CU      9.8388155588     5.6808136547    19.1912208220
CU      7.3812680224     1.4224222402    19.1910610915
CU      4.9228010343     5.6812268669    19.1913410250
CU      2.4658387830     1.4235949549    19.1850598902
CU      8.6090235190     3.5512694712    19.1924927564
CU      7.3798097209     5.6800943463    19.1924017748
CU      4.9228241062     1.4240712933    19.1868584854
CU      3.6948506983     3.5511112443    19.1867686398
CU      6.1523971804     3.5525046656    19.1920767613
CU      8.6045036847     4.9674698396    21.2825350057
CU      7.3744483648     2.8387576129    21.2812376684
CU      6.1459486940     4.9665820902    21.2817137079
CU      6.1452252062     0.7122772547    21.2777978188
CU      3.6888806280     4.9651915817    21.2768449300
CU      4.9140162560     2.8368831067    21.2727871179
CU      2.4667236010     2.8350223374    21.2776792790
CU      3.6886938942     0.7193017870    21.2802744050
CU      1.2342761593     0.7131044452    21.2793728143
CU      3.6974230753     2.1536322701    23.3429574346
CU      6.1577016392     2.1295582060    23.3226608066
CU      4.9223138157     4.2706933063    23.3191361382
CU      2.4470398238    -0.0179223708    23.3232614926
CU      1.2110757758     2.1285128954    23.3256901197
CU      4.9195060693    -0.0153356605    23.3278769275
CU      2.4475718510     4.2702858389    23.3233777184
CU     -0.0017994341    -0.0027911721    23.3383038174
CU      7.3679678194     4.2531298869    23.3454295656
O       3.6988396433     2.0767742242    25.1697632576
H       5.3107375204     2.8560481990    26.2459547631
H       3.8341964429     3.8788100601    26.2440595080
C       4.1978859311     2.8281405388    26.2557038229
O       4.2135175806     0.7432815760    27.5172790343
H       5.1903500411     0.8103621693    27.5154789896
C       3.7456747003     2.0962216475    27.5435798170
H       2.6460766312     2.0284027247    27.5404372991
C       4.2138837150     2.8095991307    28.8152748063
H       3.8665147257     3.8643749904    28.8231814394
H       5.3251531988     2.8061342141    28.8200006617
O       3.7142370944     2.1049498548    29.9632385504
H       4.0646514971     2.5778974117    30.7331832471
85
Step 4 | ATOMIC_POSITIONS (angstrom) | Cartesian Angstrom
NI      1.2286390390     0.7093535490     9.0128649340
NI      2.4572760100     2.8374169220     9.0128649340
NI      3.6859498400     4.9655441370     9.0128649340
NI      3.6859144660     0.7093535490     9.0128649340
NI      4.9145514370     2.8374169220     9.0128649340
NI      6.1432252670     4.9655441370     9.0128649340
NI      6.1432636120     0.7093535490     9.0128649340
NI      7.3719005830     2.8374169220     9.0128649340
NI      8.6005744130     4.9655441370     9.0128649340
NI      0.0000019230    -0.0000011100    11.0189462060
NI      1.2286511800     2.1280835430    11.0189462060
NI      2.4573004370     4.2561681970    11.0189462060
NI      2.4573019230    -0.0000011100    11.0189462060
NI      3.6859511800     2.1280835430    11.0189462060
NI      4.9146004370     4.2561681970    11.0189462060
NI      4.9146019230    -0.0000011100    11.0189462060
NI      6.1432511800     2.1280835430    11.0189462060
NI      7.3719004370     4.2561681970    11.0189462060
NI      2.4628996813     1.4217891642    13.0275096934
NI      3.6918539148     3.5509309505    13.0273104715
NI      4.9208936426     1.4217242909    13.0268156265
NI      4.9210474010     5.6780260699    13.0277815497
NI      7.3780676718     1.4228179211    13.0275895883
NI      6.1489426763     3.5499808246    13.0307086913
NI      8.6067030785     3.5500183611    13.0300155408
NI      7.3778595038     5.6786747304    13.0300044616
NI      9.8348092457     5.6778732303    13.0278611791
NI      8.6109695695     4.9716885763    15.0174311727
NI      7.3815203334     2.8427791019    15.0167102939
NI      6.1529466466     4.9711455324    15.0176508963
NI      3.6959879973     4.9718006279    15.0209755930
NI      6.1537219880     0.7151729370    15.0209671304
NI      4.9235812487     2.8424813364    15.0197563784
NI      2.4683359020     2.8419755000    15.0190854825
NI      3.6955518164     0.7166966369    15.0188774212
NI      1.2380570236     0.7150950171    15.0208751115
CU      3.6970645491     2.1345990842    17.0984924122
CU      1.2395639005     2.1360247035    17.0980209854
CU      2.4696700800     0.0056482011    17.0979911734
CU      0.0114089404     0.0066460702    17.0969629966
CU      4.9277986418     4.2627518526    17.0996552326
CU      6.1558305384     2.1362324785    17.0997500710
CU      4.9253027264     0.0052286214    17.0985855914
CU      2.4671911069     4.2627006869    17.0997172527
CU      7.3836974521     4.2626851567    17.0982754656
CU      9.8388586046     5.6809560612    19.1917999809
CU      7.3813607233     1.4221039709    19.1914645800
CU      4.9226335003     5.6814975258    19.1918939437
CU      2.4655366935     1.4233586464    19.1829655442
CU      8.6087660377     3.5511925586    19.1936331881
CU      7.3795506166     5.6800027854    19.1936112523
CU      4.9224911195     1.4237364694    19.1852024457
CU      3.6944905407     3.5510080595    19.1849569002
CU      6.1524482823     3.5526959926    19.1926281485
CU      8.6041449247     4.9674464900    21.2826495740
CU      7.3747701382     2.8395349495    21.2805356274
CU      6.1470543771     4.9663573190    21.2809191996
CU      6.1450121305     0.7123977305    21.2765397269
CU      3.6887783405     4.9649273868    21.2746459352
CU      4.9133039450     2.8363082103    21.2698321155
CU      2.4684020397     2.8337867239    21.2771238817
CU      3.6886203273     0.7217451133    21.2812017816
CU      1.2346824354     0.7134856980    21.2785947870
CU      3.7027411466     2.1632158594    23.3529322351
CU      6.1620872881     2.1306484596    23.3188069270
CU      4.9256287584     4.2755586406    23.3139250691
CU      2.4460741272    -0.0200027187    23.3195101554
CU      1.2090212826     2.1287096783    23.3231051958
CU      4.9199703782    -0.0167788442    23.3262262207
CU      2.4459566663     4.2741255429    23.3198426167
CU     -0.0023507367    -0.0032556841    23.3411036415
CU      7.3682409416     4.2529488435    23.3519572594
O       3.6835261665     2.0614305712    25.1800263725
H       5.3087038137     2.8617873324    26.2467202202
H       3.8360730615     3.8803844126    26.2451334672
C       4.1956031584     2.8266172539    26.2608944390
O       4.2169800836     0.7408160111    27.5195630950
H       5.1869333934     0.7995153166    27.5154776649
C       3.7510369446     2.0967085140    27.5446420046
H       2.6543857895     2.0273564923    27.5408999468
C       4.2147588531     2.8110391835    28.8135664824
H       3.8690539001     3.8650474073    28.8148071752
H       5.3254365078     2.8129143994    28.8135357955
O       3.7115055129     2.1092358472    29.9588085502
H       4.0602817526     2.5729742474    30.7400852171
85
Step 5 | ATOMIC_POSITIONS (angstrom) | Cartesian Angstrom
NI      1.2286390390     0.7093535490     9.0128649340
NI      2.4572760100     2.8374169220     9.0128649340
NI      3.6859498400     4.9655441370     9.0128649340
NI      3.6859144660     0.7093535490     9.0128649340
NI      4.9145514370     2.8374169220     9.0128649340
NI      6.1432252670     4.9655441370     9.0128649340
NI      6.1432636120     0.7093535490     9.0128649340
NI      7.3719005830     2.8374169220     9.0128649340
NI      8.6005744130     4.9655441370     9.0128649340
NI      0.0000019230    -0.0000011100    11.0189462060
NI      1.2286511800     2.1280835430    11.0189462060
NI      2.4573004370     4.2561681970    11.0189462060
NI      2.4573019230    -0.0000011100    11.0189462060
NI      3.6859511800     2.1280835430    11.0189462060
NI      4.9146004370     4.2561681970    11.0189462060
NI      4.9146019230    -0.0000011100    11.0189462060
NI      6.1432511800     2.1280835430    11.0189462060
NI      7.3719004370     4.2561681970    11.0189462060
NI      2.4622417471     1.4213558975    13.0273069463
NI      3.6915811292     3.5509971356    13.0271071899
NI      4.9207684269     1.4214318331    13.0264004920
NI      4.9207457960     5.6775825725    13.0276360579
NI      7.3776080991     1.4227709993    13.0273332334
NI      6.1484931747     3.5496890105    13.0313511119
NI      8.6065724325     3.5498395135    13.0304294458
NI      7.3776600655     5.6786313710    13.0304703906
NI      9.8344572548     5.6775778057    13.0276680876
NI      8.6105405171     4.9714393024    15.0172570821
NI      7.3808724912     2.8423251791    15.0162071547
NI      6.1522569672     4.9708100211    15.0174605779
NI      3.6954101778     4.9717164335    15.0215798931
NI      6.1533847783     0.7147744548    15.0214782286
NI      4.9226857798     2.8419592169    15.0199810491
NI      2.4684072638     2.8414641549    15.0189674184
NI      3.6951345929     0.7170526532    15.0186813521
NI      1.2376334063     0.7149111008    15.0209950528
CU      3.6965792276     2.1343368483    17.0979764737
CU      1.2387503201     2.1361052990    17.0977539904
CU      2.4693374832     0.0049335036    17.0977820691
CU      0.0109597551     0.0063684807    17.0969364746
CU      4.9276778166     4.2626072866    17.0999798298
CU      6.1557022392     2.1362174797    17.1001382118
CU      4.9246802162     0.0044659723    17.0985510993
CU      2.4662354761     4.2625187223    17.0999892315
CU      7.3832664945     4.2623438353    17.0982035718
CU      9.8385230043     5.6809164675    19.1922294445
CU      7.3812938732     1.4219905100    19.1916739213
CU      4.9225382192     5.6815652593    19.1922786607
CU      2.4651769341     1.4230337677    19.1801902397
CU      8.6084257886     3.5512227823    19.1949792875
CU      7.3793483400     5.6798831233    19.1951423783
CU      4.9220673947     1.4231266217    19.1828054524
CU      3.6939042246     3.5510100519    19.1822240754
CU      6.1525352452     3.5529277488    19.1929933773
CU      8.6030634774     4.9673634125    21.2825849773
CU      7.3755801636     2.8411157053    21.2792365637
CU      6.1493021392     4.9662006660    21.2792109946
CU      6.1449935961     0.7123243102    21.2750634001
CU      3.6886939382     4.9650926806    21.2715003895
CU      4.9127977226     2.8358170871    21.2666883878
CU      2.4702634439     2.8326081219    21.2773682727
CU      3.6887470112     0.7245950461    21.2835434867
CU      1.2348534694     0.7137359499    21.2776757035
CU      3.7093237436     2.1744779174    23.3694189134
CU      6.1656888567     2.1320117260    23.3132596070
CU      4.9291575605     4.2805907986    23.3066631391
CU      2.4469939072    -0.0187807399    23.3140707003
CU      1.2100074194     2.1289058779    23.3192926790
CU      4.9188611691    -0.0152421227    23.3237802186
CU      2.4450470408     4.2774881022    23.3148736832
CU     -0.0030817387    -0.0033077745    23.3445130574
CU      7.3690469448     4.2530308336    23.3609955496
O       3.6647231363     2.0459505825    25.1975587534
H       5.3028576522     2.8686330722    26.2435883192
H       3.8382630115     3.8757117179    26.2453529753
C       4.1922195021     2.8211511372    26.2676582649
O       4.2165691763     0.7422605532    27.5232546353
H       5.1894750958     0.7820198483    27.5154817300
C       3.7560881101     2.0974976115    27.5474584263
H       2.6627670886     2.0250441037    27.5420576313
C       4.2191004653     2.8139609068    28.8089577107
H       3.8725737244     3.8633200501    28.8029562405
H       5.3243067282     2.8224482693    28.8075287765
O       3.7107660730     2.1196184157    29.9537581129
H       4.0523540058     2.5639337317    30.7465384021
85
Step 6 | ATOMIC_POSITIONS (angstrom) | Cartesian Angstrom
NI      1.2286390390     0.7093535490     9.0128649340
NI      2.4572760100     2.8374169220     9.0128649340
NI      3.6859498400     4.9655441370     9.0128649340
NI      3.6859144660     0.7093535490     9.0128649340
NI      4.9145514370     2.8374169220     9.0128649340
NI      6.1432252670     4.9655441370     9.0128649340
NI      6.1432636120     0.7093535490     9.0128649340
NI      7.3719005830     2.8374169220     9.0128649340
NI      8.6005744130     4.9655441370     9.0128649340
NI      0.0000019230    -0.0000011100    11.0189462060
NI      1.2286511800     2.1280835430    11.0189462060
NI      2.4573004370     4.2561681970    11.0189462060
NI      2.4573019230    -0.0000011100    11.0189462060
NI      3.6859511800     2.1280835430    11.0189462060
NI      4.9146004370     4.2561681970    11.0189462060
NI      4.9146019230    -0.0000011100    11.0189462060
NI      6.1432511800     2.1280835430    11.0189462060
NI      7.3719004370     4.2561681970    11.0189462060
NI      2.4617489001     1.4210482125    13.0270873814
NI      3.6913611111     3.5509791325    13.0269842333
NI      4.9206433715     1.4212343425    13.0261570249
NI      4.9204075289     5.6773151111    13.0275218814
NI      7.3772473525     1.4225785558    13.0271340517
NI      6.1480532992     3.5494272495    13.0315089691
NI      8.6064772443     3.5496393335    13.0305125122
NI      7.3774359242     5.6786048972    13.0306247762
NI      9.8342359480     5.6773964169    13.0275659245
NI      8.6101422843     4.9711795647    15.0172722625
NI      7.3803396279     2.8421078951    15.0161596350
NI      6.1517796908     4.9704685072    15.0175509899
NI      3.6948659816     4.9715389911    15.0219863961
NI      6.1529795909     0.7144088071    15.0217790427
NI      4.9220944699     2.8416370933    15.0202171351
NI      2.4682644348     2.8412409659    15.0190713057
NI      3.6948275212     0.7170719374    15.0187410826
NI      1.2372276415     0.7146787655    15.0210821507
CU      3.6962218564     2.1341185979    17.0970889062
CU      1.2381234488     2.1360020410    17.0973629827
CU      2.4689386526     0.0044289734    17.0974722481
CU      0.0106129366     0.0061419295    17.0971917839
CU      4.9273561386     4.2624767863    17.0999625283
CU      6.1554198683     2.1360079626    17.1001761101
CU      4.9242081933     0.0040348789    17.0984368461
CU      2.4656342452     4.2623302729    17.0999606847
CU      7.3828654283     4.2620818099    17.0983252232
CU      9.8378750002     5.6806619406    19.1920500068
CU      7.3810362265     1.4222266526    19.1914045400
CU      4.9225959328     5.6813239121    19.1920356882
CU      2.4650312250     1.4228478237    19.1786642558
CU      8.6082935431     3.5513173932    19.1955344087
CU      7.3793632845     5.6799360170    19.1959132484
CU      4.9217486704     1.4226139596    19.1812395441
CU      3.6934133158     3.5510605327    19.1802569158
CU      6.1525175423     3.5529762649    19.1926788209
CU      8.6018674294     4.9673834160    21.2824776532
CU      7.3765493118     2.8426199352    21.2781564168
CU      6.1514947483     4.9663645130    21.2775035500
CU      6.1453204115     0.7120548032    21.2742586391
CU      3.6887376227     4.9657976896    21.2691979111
CU      4.9128320385     2.8358184212    21.2657367794
CU      2.4712863164     2.8323986986    21.2786438448
CU      3.6891317686     0.7262437575    21.2860740295
CU      1.2345264412     0.7136145192    21.2770614238
CU      3.7128327687     2.1796218144    23.3848128933
CU      6.1658647657     2.1329479033    23.3091685177
CU      4.9306457194     4.2825705933    23.3015839789
CU      2.4499361182    -0.0136621601    23.3101252692
CU      1.2146275178     2.1291206538    23.3164152646
CU      4.9165395174    -0.0104857936    23.3219786480
CU      2.4458369106     4.2780968725    23.3113687113
CU     -0.0034425777    -0.0025534468    23.3462183419
CU      7.3701263306     4.2535869687    23.3671232010
O       3.6529229074     2.0395555559    25.2091733272
H       5.2975071484     2.8711174817    26.2369641329
H       3.8381440782     3.8664256733    26.2445800463
C       4.1887933261     2.8162281062    26.2714232639
O       4.2179246628     0.7440543752    27.5268528852
H       5.1917314867     0.7675957421    27.5155509851
C       3.7600772504     2.0980039635    27.5512845421
H       2.6636783372     2.0228376172    27.5441170540
C       4.2212145440     2.8174449267    28.8062420814
H       3.8746248446     3.8622292207    28.7937172068
H       5.3266035041     2.8291726475    28.8061063301
O       3.7102801145     2.1267722965    29.9474872620
H       4.0474335737     2.5588004108    30.7512660858
85
Step 7 | ATOMIC_POSITIONS (angstrom) | Cartesian Angstrom
NI      1.2286390390     0.7093535490     9.0128649340
NI      2.4572760100     2.8374169220     9.0128649340
NI      3.6859498400     4.9655441370     9.0128649340
NI      3.6859144660     0.7093535490     9.0128649340
NI      4.9145514370     2.8374169220     9.0128649340
NI      6.1432252670     4.9655441370     9.0128649340
NI      6.1432636120     0.7093535490     9.0128649340
NI      7.3719005830     2.8374169220     9.0128649340
NI      8.6005744130     4.9655441370     9.0128649340
NI      0.0000019230    -0.0000011100    11.0189462060
NI      1.2286511800     2.1280835430    11.0189462060
NI      2.4573004370     4.2561681970    11.0189462060
NI      2.4573019230    -0.0000011100    11.0189462060
NI      3.6859511800     2.1280835430    11.0189462060
NI      4.9146004370     4.2561681970    11.0189462060
NI      4.9146019230    -0.0000011100    11.0189462060
NI      6.1432511800     2.1280835430    11.0189462060
NI      7.3719004370     4.2561681970    11.0189462060
NI      2.4612902135     1.4207807083    13.0268753478
NI      3.6911184050     3.5508735030    13.0269156916
NI      4.9204634680     1.4210644911    13.0260252557
NI      4.9200103467     5.6771062056    13.0274475799
NI      7.3768901727     1.4222875122    13.0269843986
NI      6.1475728245     3.5491553390    13.0313828002
NI      8.6063440134     3.5493909790    13.0304078220
NI      7.3771383679     5.6785478008    13.0306162795
NI      9.8340185407     5.6772368266    13.0275222218