85
Step 1 | ATOMIC_POSITIONS (angstrom) | Cartesian Angstrom
NI      1.2286390390     0.7093535490     9.0128649340
NI      2.4572760100     2.8374169220     9.0128649340
NI      3.6859498400     4.9655441370     9.0128649340
NI      3.6859144660     0.7093535490     9.0128649340
NI      4.9145514370     2.8374169220     9.0128649340
NI      6.1432252670     4.9655441370     9.0128649340
NI      6.1432636120     0.7093535490     9.0128649340
NI      7.3719005830     2.8374169220     9.0128649340
NI      8.6005744130     4.9655441370     9.0128649340
NI      0.0000019230    -0.0000011100    11.0189462060
NI      1.2286511800     2.1280835430    11.0189462060
NI      2.4573004370     4.2561681970    11.0189462060
NI      2.4573019230    -0.0000011100    11.0189462060
NI      3.6859511800     2.1280835430    11.0189462060
NI      4.9146004370     4.2561681970    11.0189462060
NI      4.9146019230    -0.0000011100    11.0189462060
NI      6.1432511800     2.1280835430    11.0189462060
NI      7.3719004370     4.2561681970    11.0189462060
NI      2.4642244780     1.4227189880    13.0272881070
NI      3.6924327390     3.5506983320    13.0276201530
NI      4.9212127460     1.4223897070    13.0276202510
NI      4.9211289880     5.6792703610    13.0277505390
NI      7.3789582730     1.4221866730    13.0277506190
NI      6.1494102800     3.5503628350    13.0279816350
NI      8.6071640600     3.5501702390    13.0280595260
NI      7.3781196110     5.6789367880    13.0280595390
NI      9.8358884290     5.6787529240    13.0281948130
NI      8.6117605830     4.9720020900    15.0186578060
NI      7.3827869000     2.8442350780    15.0193609080
NI      6.1545735900     4.9715622540    15.0193609870
NI      3.6967676190     4.9714536840    15.0198461330
NI      6.1537906650     0.7157666040    15.0198461880
NI      4.9255624130     2.8437736980    15.0200052340
NI      2.4677586240     2.8437215940    15.0204940710
NI      3.6966160050     0.7152787130    15.0204940950
NI      1.2387561530     0.7151941710    15.0209755470
CU      3.6983605790     2.1352480720    17.0975611220
CU      1.2411159100     2.1352155180    17.0978014380
CU      2.4697108070     0.0072275920    17.0978015350
CU      0.0125040740     0.0072168940    17.0980434560
CU      4.9270970170     4.2630879460    17.0982970610
CU      6.1554922450     2.1354459510    17.0982970840
CU      4.9267502260     0.0076215920    17.0985396480
CU      2.4699760600     4.2628774400    17.0985397210
CU      7.3842970870     4.2633253690    17.0989758590
CU      9.8379678212     5.6800523213    19.1896522131
CU      7.3807393265     1.4236830067    19.1897813021
CU      4.9234088633     5.6800852852    19.1898292115
CU      2.4663941616     1.4239642306    19.1885396272
CU      8.6093155133     3.5518169228    19.1902940445
CU      7.3805735009     5.6799902405    19.1902449492
CU      4.9235946476     1.4243032327    19.1892595817
CU      3.6953104945     3.5517483614    19.1892645942
CU      6.1525371336     3.5522639212    19.1906388999
CU      8.6036955500     4.9671921820    21.2816173018
CU      7.3745611556     2.8386427720    21.2815429571
CU      6.1456442936     4.9670988256    21.2817166748
CU      6.1460597339     0.7115728162    21.2805689758
CU      3.6891067835     4.9666564021    21.2804966658
CU      4.9164922699     2.8385176476    21.2794527329
CU      2.4624239728     2.8382037912    21.2805578129
CU      3.6891599800     0.7135123531    21.2810085959
CU      1.2328950205     0.7119377512    21.2812457193
CU      3.6868916704     2.1333838890    23.3304739781
CU      6.1450716297     2.1271492131    23.3289684553
CU      4.9143595989     4.2587277440    23.3281434096
CU      2.4531604595    -0.0063753964    23.3291619147
CU      1.2220479267     2.1278344967    23.3296685462
CU      4.9149527167    -0.0059987978    23.3303341536
CU      2.4528166676     4.2594955804    23.3293099454
CU     -0.0009228740    -0.0010715855    23.3327112038
CU      7.3682383792     4.2538871789    23.3341788128
O       3.7293810186     2.1126196798    25.1530974210
H       5.3095559642     2.8456222332    26.2353128578
H       3.8336761596     3.8580138112    26.2379828197
C       4.1956357226     2.8238070022    26.2655360191
O       4.2143034933     0.7639289136    27.5139855664
H       5.1943854105     0.8216517537    27.5155633379
C       3.7399048028     2.1058072238    27.5407673806
H       2.6218904341     2.0279878343    27.5401394584
C       4.2093425442     2.8071472495    28.8060481491
H       3.8657422789     3.8464328128    28.8392457024
H       5.3189311817     2.7942999150    28.8390230500
O       3.7274217498     2.1092868608    29.9569585761
H       4.0716889802     2.5859673050    30.7280686793
85
Step 2 | ATOMIC_POSITIONS (angstrom) | Cartesian Angstrom
NI      1.2286390390     0.7093535490     9.0128649340
NI      2.4572760100     2.8374169220     9.0128649340
NI      3.6859498400     4.9655441370     9.0128649340
NI      3.6859144660     0.7093535490     9.0128649340
NI      4.9145514370     2.8374169220     9.0128649340
NI      6.1432252670     4.9655441370     9.0128649340
NI      6.1432636120     0.7093535490     9.0128649340
NI      7.3719005830     2.8374169220     9.0128649340
NI      8.6005744130     4.9655441370     9.0128649340
NI      0.0000019230    -0.0000011100    11.0189462060
NI      1.2286511800     2.1280835430    11.0189462060
NI      2.4573004370     4.2561681970    11.0189462060
NI      2.4573019230    -0.0000011100    11.0189462060
NI      3.6859511800     2.1280835430    11.0189462060
NI      4.9146004370     4.2561681970    11.0189462060
NI      4.9146019230    -0.0000011100    11.0189462060
NI      6.1432511800     2.1280835430    11.0189462060
NI      7.3719004370     4.2561681970    11.0189462060
NI      2.4642244780     1.4227189880    13.0272881070
NI      3.6924327390     3.5506983320    13.0276201530
NI      4.9212127460     1.4223897070    13.0276202510
NI      4.9211289880     5.6792703610    13.0277505390
NI      7.3789582730     1.4221866730    13.0277506190
NI      6.1494102800     3.5503628350    13.0279816350
NI      8.6071640600     3.5501702390    13.0280595260
NI      7.3781196110     5.6789367880    13.0280595390
NI      9.8358884290     5.6787529240    13.0281948130
NI      8.6117605830     4.9720020900    15.0186578060
NI      7.3827869000     2.8442350780    15.0193609080
NI      6.1545735900     4.9715622540    15.0193609870
NI      3.6967676190     4.9714536840    15.0198461330
NI      6.1537906650     0.7157666040    15.0198461880
NI      4.9255624130     2.8437736980    15.0200052340
NI      2.4677586240     2.8437215940    15.0204940710
NI      3.6966160050     0.7152787130    15.0204940950
NI      1.2387561530     0.7151941710    15.0209755470
CU      3.6983605790     2.1352480720    17.0975611220
CU      1.2411159100     2.1352155180    17.0978014380
CU      2.4697108070     0.0072275920    17.0978015350
CU      0.0125040740     0.0072168940    17.0980434560
CU      4.9270970170     4.2630879460    17.0982970610
CU      6.1554922450     2.1354459510    17.0982970840
CU      4.9267502260     0.0076215920    17.0985396480
CU      2.4699760600     4.2628774400    17.0985397210
CU      7.3842970870     4.2633253690    17.0989758590
CU      9.8384604851     5.6804660305    19.1904121902
CU      7.3810275324     1.4230210391    19.1904247380
CU      4.9230945650     5.6806922610    19.1905681347
CU      2.4661623481     1.4238176484    19.1870530898
CU      8.6092401115     3.5514989593    19.1912560766
CU      7.3801913795     5.6801088493    19.1911748036
CU      4.9232153753     1.4242674944    19.1882950246
CU      3.6951358257     3.5513804204    19.1882742968
CU      6.1524168474     3.5523384003    19.1913004984
CU      8.6043008262     4.9673807574    21.2821447225
CU      7.3744039722     2.8384767307    21.2815689837
CU      6.1455008979     4.9668605704    21.2819407465
CU      6.1456272483     0.7119565520    21.2792425309
CU      3.6890030172     4.9658579654    21.2789033227
CU      4.9151769366     2.8376913183    21.2762882484
CU      2.4645789815     2.8366391770    21.2789836545
CU      3.6889125751     0.7163433681    21.2802844113
CU      1.2335970608     0.7125229927    21.2803168381
CU      3.6917027119     2.1428688542    23.3345998374
CU      6.1514024529     2.1283057199    23.3262353855
CU      4.9181972257     4.2645280814    23.3241716918
CU      2.4497595435    -0.0127059908    23.3266574269
CU      1.2160630380     2.1281924377    23.3279850547
CU      4.9175585070    -0.0111796446    23.3293045673
CU      2.4501429164     4.2648869447    23.3267303485
CU     -0.0012784627    -0.0019524490    23.3352521256
CU      7.3680089520     4.2535011309    23.3390804225
O       3.7163822774     2.0968672691    25.1634064380
H       5.3114337542     2.8501152550    26.2416080057
H       3.8332331117     3.8704898777    26.2414518983
C       4.1962603607     2.8255533639    26.2542607494
O       4.2180551935     0.7516266594    27.5152449375
H       5.1881428616     0.8176305203    27.5155027803
C       3.7419096339     2.0993575282    27.5428584867
H       2.6333627474     2.0287909049    27.5401012958
C       4.2126794672     2.8085077754    28.8133845650
H       3.8651972452     3.8579447066    28.8317506386
H       5.3226510295     2.7994772231    28.8291100411
O       3.7189951484     2.1037472069    29.9605702407
H       4.0695314332     2.5836787397    30.7303421854
85
Step 3 | ATOMIC_POSITIONS (angstrom) | Cartesian Angstrom
NI      1.2286390390     0.7093535490     9.0128649340
NI      2.4572760100     2.8374169220     9.0128649340
NI      3.6859498400     4.9655441370     9.0128649340
NI      3.6859144660     0.7093535490     9.0128649340
NI      4.9145514370     2.8374169220     9.0128649340
NI      6.1432252670     4.9655441370     9.0128649340
NI      6.1432636120     0.7093535490     9.0128649340
NI      7.3719005830     2.8374169220     9.0128649340
NI      8.6005744130     4.9655441370     9.0128649340
NI      0.0000019230    -0.0000011100    11.0189462060
NI      1.2286511800     2.1280835430    11.0189462060
NI      2.4573004370     4.2561681970    11.0189462060
NI      2.4573019230    -0.0000011100    11.0189462060
NI      3.6859511800     2.1280835430    11.0189462060
NI      4.9146004370     4.2561681970    11.0189462060
NI      4.9146019230    -0.0000011100    11.0189462060
NI      6.1432511800     2.1280835430    11.0189462060
NI      7.3719004370     4.2561681970    11.0189462060
NI      2.4642244780     1.4227189880    13.0272881070
NI      3.6924327390     3.5506983320    13.0276201530
NI      4.9212127460     1.4223897070    13.0276202510
NI      4.9211289880     5.6792703610    13.0277505390
NI      7.3789582730     1.4221866730    13.0277506190
NI      6.1494102800     3.5503628350    13.0279816350
NI      8.6071640600     3.5501702390    13.0280595260
NI      7.3781196110     5.6789367880    13.0280595390
NI      9.8358884290     5.6787529240    13.0281948130
NI      8.6117605830     4.9720020900    15.0186578060
NI      7.3827869000     2.8442350780    15.0193609080
NI      6.1545735900     4.9715622540    15.0193609870
NI      3.6967676190     4.9714536840    15.0198461330
NI      6.1537906650     0.7157666040    15.0198461880
NI      4.9255624130     2.8437736980    15.0200052340
NI      2.4677586240     2.8437215940    15.0204940710
NI      3.6966160050     0.7152787130    15.0204940950
NI      1.2387561530     0.7151941710    15.0209755470
CU      3.6983605790     2.1352480720    17.0975611220
CU      1.2411159100     2.1352155180    17.0978014380
CU      2.4697108070     0.0072275920    17.0978015350
CU      0.0125040740     0.0072168940    17.0980434560
CU      4.9270970170     4.2630879460    17.0982970610
CU      6.1554922450     2.1354459510    17.0982970840
CU      4.9267502260     0.0076215920    17.0985396480
CU      2.4699760600     4.2628774400    17.0985397210
CU      7.3842970870     4.2633253690    17.0989758590
CU      9.8387984245     5.6807856777    19.1912104696
CU      7.3812623407     1.4224763584    19.1910578862
CU      4.9228410508     5.6811953848    19.1913513927
CU      2.4658875493     1.4236250002    19.1850301083
CU      8.6090731917     3.5512675320    19.1924026300
CU      7.3798216945     5.6801310460    19.1923552790
CU      4.9228150582     1.4241136446    19.1868583712
CU      3.6948668422     3.5510907121    19.1867311359
CU      6.1523672763     3.5524843265    19.1919732691
CU      8.6044997663     4.9674653461    21.2825233902
CU      7.3744447944     2.8387642372    21.2812301477
CU      6.1459491045     4.9665747884    21.2817024405
CU      6.1452304550     0.7122737970    21.2777900454
CU      3.6888823801     4.9651969617    21.2768369251
CU      4.9140265094     2.8368924786    21.2727727055
CU      2.4667123267     2.8350351823    21.2776621151
CU      3.6886971823     0.7192834861    21.2802579625
CU      1.2342687254     0.7130987392    21.2793615063
CU      3.6973950818     2.1535836064    23.3429667177
CU      6.1576907805     2.1295465865    23.3226437481
CU      4.9223028558     4.2706884737    23.3191213460
CU      2.4470415975    -0.0179121554    23.3232525473
CU      1.2110863201     2.1285072704    23.3256759406
CU      4.9195027018    -0.0153312582    23.3278605961
CU      2.4475725260     4.2702766002    23.3233628838
CU     -0.0017961809    -0.0027899536    23.3382695176
CU      7.3679711655     4.2531334073    23.3453881727
O       3.6988738838     2.0768181676    25.1697433631
H       5.3107315215     2.8560387114    26.2459371588
H       3.8341946863     3.8787940624    26.2440464165
C       4.1978940522     2.8281392112    26.2557068901
O       4.2135360987     0.7433152198    27.5172634739
H       5.1903675688     0.8103770239    27.5154701631
C       3.7456529952     2.0962425884    27.5435662971
H       2.6460648690     2.0284038733    27.5404290601
C       4.2138921770     2.8096023580    28.8152555686
H       3.8665125937     3.8643607325    28.8231879009
H       5.3251405694     2.8061239090    28.8200103819
O       3.7142598507     2.1049684455    29.9632234659
H       4.0646608983     2.5779095232    30.7331720040
85
Step 4 | ATOMIC_POSITIONS (angstrom) | Cartesian Angstrom
NI      1.2286390390     0.7093535490     9.0128649340
NI      2.4572760100     2.8374169220     9.0128649340
NI      3.6859498400     4.9655441370     9.0128649340
NI      3.6859144660     0.7093535490     9.0128649340
NI      4.9145514370     2.8374169220     9.0128649340
NI      6.1432252670     4.9655441370     9.0128649340
NI      6.1432636120     0.7093535490     9.0128649340
NI      7.3719005830     2.8374169220     9.0128649340
NI      8.6005744130     4.9655441370     9.0128649340
NI      0.0000019230    -0.0000011100    11.0189462060
NI      1.2286511800     2.1280835430    11.0189462060
NI      2.4573004370     4.2561681970    11.0189462060
NI      2.4573019230    -0.0000011100    11.0189462060
NI      3.6859511800     2.1280835430    11.0189462060
NI      4.9146004370     4.2561681970    11.0189462060
NI      4.9146019230    -0.0000011100    11.0189462060
NI      6.1432511800     2.1280835430    11.0189462060
NI      7.3719004370     4.2561681970    11.0189462060
NI      2.4642244780     1.4227189880    13.0272881070
NI      3.6924327390     3.5506983320    13.0276201530
NI      4.9212127460     1.4223897070    13.0276202510
NI      4.9211289880     5.6792703610    13.0277505390
NI      7.3789582730     1.4221866730    13.0277506190
NI      6.1494102800     3.5503628350    13.0279816350
NI      8.6071640600     3.5501702390    13.0280595260
NI      7.3781196110     5.6789367880    13.0280595390
NI      9.8358884290     5.6787529240    13.0281948130
NI      8.6117605830     4.9720020900    15.0186578060
NI      7.3827869000     2.8442350780    15.0193609080
NI      6.1545735900     4.9715622540    15.0193609870
NI      3.6967676190     4.9714536840    15.0198461330
NI      6.1537906650     0.7157666040    15.0198461880
NI      4.9255624130     2.8437736980    15.0200052340
NI      2.4677586240     2.8437215940    15.0204940710
NI      3.6966160050     0.7152787130    15.0204940950
NI      1.2387561530     0.7151941710    15.0209755470
CU      3.6983605790     2.1352480720    17.0975611220
CU      1.2411159100     2.1352155180    17.0978014380
CU      2.4697108070     0.0072275920    17.0978015350
CU      0.0125040740     0.0072168940    17.0980434560
CU      4.9270970170     4.2630879460    17.0982970610
CU      6.1554922450     2.1354459510    17.0982970840
CU      4.9267502260     0.0076215920    17.0985396480
CU      2.4699760600     4.2628774400    17.0985397210
CU      7.3842970870     4.2633253690    17.0989758590
CU      9.8388310266     5.6809013865    19.1917781700
CU      7.3813529484     1.4222209268    19.1914576341
CU      4.9227221115     5.6814350721    19.1919161524
CU      2.4656414883     1.4234233214    19.1829127513
CU      8.6088745824     3.5511951197    19.1934373982
CU      7.3795806416     5.6800808821    19.1935146368
CU      4.9224842529     1.4238299308    19.1852037971
CU      3.6945321070     3.5509747874    19.1848708245
CU      6.1523920659     3.5526579541    19.1923941604
CU      8.6041400408     4.9674401657    21.2826311039
CU      7.3747666271     2.8395478156    21.2805182124
CU      6.1470580916     4.9663459215    21.2809011501
CU      6.1450148076     0.7123965493    21.2765251705
CU      3.6887810654     4.9649285247    21.2746316390
CU      4.9133103069     2.8363179805    21.2698093796
CU      2.4683965529     2.8338001725    21.2770991961
CU      3.6886260441     0.7217311567    21.2811814433
CU      1.2346790940     0.7134832185    21.2785756404
CU      3.7027153070     2.1631699510    23.3529471678
CU      6.1620823249     2.1306368927    23.3187840873
CU      4.9256173856     4.2755559114    23.3139028209
CU      2.4460657766    -0.0200068798    23.3194912119
CU      1.2090174602     2.1287035325    23.3230846282
CU      4.9199761424    -0.0167842074    23.3262038587
CU      2.4459575093     4.2741228242    23.3198198210
CU     -0.0023480616    -0.0032553417    23.3410744785
CU      7.3682435274     4.2529506850    23.3519230403
O       3.6835328155     2.0614388509    25.1800353731
H       5.3087049040     2.8617858893    26.2467141036
H       3.8360729304     3.8803910698    26.2451248916
C       4.1956089462     2.8266271842    26.2608858270
O       4.2169884490     0.7408279789    27.5195482321
H       5.1869561112     0.7995332039    27.5154680140
C       3.7510366810     2.0967198812    27.5446298290
H       2.6543886402     2.0273595386    27.5408911119
C       4.2147621126     2.8110459610    28.8135566019
H       3.8690523370     3.8650552518    28.8148020086
H       5.3254384539     2.8129135237    28.8135278156
O       3.7115146283     2.1092426445    29.9588016503
H       4.0602909808     2.5729872624    30.7400776910
