85
Step 1 | ATOMIC_POSITIONS (angstrom) | Cartesian Angstrom
NI      1.2286390390     0.7093535490     9.0128649340
NI      2.4572760100     2.8374169220     9.0128649340
NI      3.6859498400     4.9655441370     9.0128649340
NI      3.6859144660     0.7093535490     9.0128649340
NI      4.9145514370     2.8374169220     9.0128649340
NI      6.1432252670     4.9655441370     9.0128649340
NI      6.1432636120     0.7093535490     9.0128649340
NI      7.3719005830     2.8374169220     9.0128649340
NI      8.6005744130     4.9655441370     9.0128649340
NI      0.0000019230    -0.0000011100    11.0189462060
NI      1.2286511800     2.1280835430    11.0189462060
NI      2.4573004370     4.2561681970    11.0189462060
NI      2.4573019230    -0.0000011100    11.0189462060
NI      3.6859511800     2.1280835430    11.0189462060
NI      4.9146004370     4.2561681970    11.0189462060
NI      4.9146019230    -0.0000011100    11.0189462060
NI      6.1432511800     2.1280835430    11.0189462060
NI      7.3719004370     4.2561681970    11.0189462060
NI      2.4641502821     1.4236280829    13.0265970713
NI      3.6903484277     3.5513658177    13.0296936144
NI      4.9207045958     1.4218406209    13.0311273920
NI      4.9194476748     5.6811834607    13.0315983870
NI      7.3778900247     1.4219593915    13.0338822493
NI      6.1472398323     3.5507266403    13.0263352491
NI      8.6041543766     3.5494956537    13.0327037619
NI      7.3750311406     5.6795259569    13.0316940033
NI      9.8331356960     5.6783789591    13.0326016662
NI      8.6138364054     4.9795797223    15.0183952074
NI      7.3794691218     2.8536235236    15.0262194616
NI      6.1541287503     4.9736335244    15.0288124165
NI      3.6948452838     4.9772323601    15.0178700769
NI      6.1527548881     0.7199235647    15.0191347874
NI      4.9282188044     2.8536611414    15.0259137357
NI      2.4685125421     2.8466000503    15.0208040696
NI      3.6927076479     0.7223560851    15.0223338407
NI      1.2409935644     0.7213051746    15.0231726329
CU      3.7071632535     2.1597305779    17.1013928492
CU      1.2515469727     2.1574356605    17.1006658998
CU      2.4779144704     0.0319685807    17.1067604742
CU      0.0169625744     0.0288307478    17.1045943625
CU      4.9353710303     4.2887541391    17.1042354075
CU      6.1656643373     2.1561107197    17.1015397227
CU      4.9381309797     0.0304611965    17.1065133613
CU      2.4786921057     4.2895583305    17.1036575173
CU      7.3971778666     4.2889818621    17.1035234887
CU      9.8624929042     5.7254868177    19.2143825759
CU      7.4091110107     1.4660337810    19.1968259316
CU      4.9503574458     5.7232759448    19.1959304224
CU      2.4940254247     1.4658233674    19.2042552792
CU      8.6375014949     3.5932981662    19.1971795358
CU      7.4104864539     5.7239368422    19.1964702974
CU      4.9488460324     1.4647502377    19.1970791560
CU      3.7194616349     3.5921030473    19.1953382795
CU      6.1793038920     3.5929306957    19.1721015198
CU      8.6446319129     5.0236120225    21.3094046792
CU      7.4095817173     2.8979646823    21.2785265207
CU      6.1873450393     5.0139212585    21.2685838081
CU      6.1843798441     0.7722372654    21.3093596732
CU      3.7281059085     5.0203773450    21.2982366992
CU      4.9631772732     2.8982351116    21.2737821457
CU      2.4988492657     2.9004301211    21.2903574713
CU      3.7388363251     0.7582676277    21.2864246571
CU      1.2641095201     0.7602009865    21.2857268259
CU      3.7161650755     2.1783437260    23.3143795119
CU      6.1873551323     2.1485158266    23.3587632821
CU      4.9181689364     4.3422903985    23.3274324439
CU      2.5040802559     0.0858504906    23.3128889182
CU      1.2920791366     2.1773697718    23.3311040011
CU      4.9626556555     0.0637664708    23.4149945868
CU      2.5017447158     4.3186551892    23.4042175830
CU      0.0449709378     0.0611814895    23.3869849774
CU      7.4543814636     4.3385804280    23.3401488899
O       6.1587620482     3.6608166471    24.7003957831
H       7.0338119415     4.3694449253    26.4194752802
H       5.2388648748     4.3987209414    26.3914446941
C       6.1289480292     3.8092506194    26.1335180378
O       7.2523713596     1.6768222428    26.5275345877
H       7.1499053757     1.3091820320    25.6216376595
C       6.0941618849     2.4501834053    26.8334467319
H       5.1726958639     1.9104678828    26.5237725368
C       6.0472084968     2.6594207916    28.3404901758
H       5.3223438046     3.4642027681    28.5673416321
H       7.0509060065     2.9835079440    28.6740798538
O       5.6584789697     1.4321917604    28.9685755258
H       5.7227512769     1.5557630492    29.9290046582
85
Step 2 | ATOMIC_POSITIONS (angstrom) | Cartesian Angstrom
NI      1.2286390390     0.7093535490     9.0128649340
NI      2.4572760100     2.8374169220     9.0128649340
NI      3.6859498400     4.9655441370     9.0128649340
NI      3.6859144660     0.7093535490     9.0128649340
NI      4.9145514370     2.8374169220     9.0128649340
NI      6.1432252670     4.9655441370     9.0128649340
NI      6.1432636120     0.7093535490     9.0128649340
NI      7.3719005830     2.8374169220     9.0128649340
NI      8.6005744130     4.9655441370     9.0128649340
NI      0.0000019230    -0.0000011100    11.0189462060
NI      1.2286511800     2.1280835430    11.0189462060
NI      2.4573004370     4.2561681970    11.0189462060
NI      2.4573019230    -0.0000011100    11.0189462060
NI      3.6859511800     2.1280835430    11.0189462060
NI      4.9146004370     4.2561681970    11.0189462060
NI      4.9146019230    -0.0000011100    11.0189462060
NI      6.1432511800     2.1280835430    11.0189462060
NI      7.3719004370     4.2561681970    11.0189462060
NI      2.4662565868     1.4232309670    13.0268716022
NI      3.6914035470     3.5514123486    13.0299664404
NI      4.9222874970     1.4207750858    13.0314183461
NI      4.9209817800     5.6814408485    13.0315510809
NI      7.3800803176     1.4211563959    13.0340964682
NI      6.1492991229     3.5507979108    13.0273606369
NI      8.6069658529     3.5498285492    13.0325323697
NI      7.3776520901     5.6797550116    13.0312197409
NI      9.8351520025     5.6782438264    13.0312713901
NI      8.6163581498     4.9788071725    15.0193877089
NI      7.3825031033     2.8524746846    15.0249978564
NI      6.1572723115     4.9734447084    15.0280619541
NI      3.6977419349     4.9761805298    15.0182261903
NI      6.1553387945     0.7188979897    15.0196009784
NI      4.9307796564     2.8523291850    15.0245431375
NI      2.4711974122     2.8448412570    15.0219314283
NI      3.6951440054     0.7213963972    15.0241240826
NI      1.2441769837     0.7202922827    15.0241232015
CU      3.7095554150     2.1572187432    17.1020826111
CU      1.2535606009     2.1551564112    17.1008771194
CU      2.4803783449     0.0287581922    17.1070579145
CU      0.0197000470     0.0261168337    17.1039282063
CU      4.9365539728     4.2859245757    17.1048663082
CU      6.1672197884     2.1531204570    17.1022717413
CU      4.9402028081     0.0277577067    17.1064136311
CU      2.4809592749     4.2873943837    17.1030994746
CU      7.3990872234     4.2861582891    17.1038268984
CU      9.8653613067     5.7230516863    19.2156445559
CU      7.4108445008     1.4634359639    19.1970917069
CU      4.9518465982     5.7201952451    19.1965913972
CU      2.4959353525     1.4629471399    19.2034999433
CU      8.6397901543     3.5915492860    19.1972778756
CU      7.4124381946     5.7202900257    19.1974679959
CU      4.9513522484     1.4627482664    19.1983867940
CU      3.7210545298     3.5903674242    19.1963640495
CU      6.1808485689     3.5904066801    19.1743611418
CU      8.6477091887     5.0214678316    21.3128948263
CU      7.4124004393     2.8970299612    21.2780041390
CU      6.1907749543     5.0112523317    21.2711991337
CU      6.1883219340     0.7714996602    21.3115913521
CU      3.7335011879     5.0177960719    21.3013005459
CU      4.9672286707     2.8969265941    21.2748687482
CU      2.5027779288     2.8980921906    21.2908846840
CU      3.7416252147     0.7567471691    21.2880313314
CU      1.2680499043     0.7585275476    21.2861542027
CU      3.7213081806     2.1763977649    23.3154517446
CU      6.1934377012     2.1502912017    23.3620137215
CU      4.9220621239     4.3424167792    23.3314779384
CU      2.5097056155     0.0837701238    23.3126573788
CU      1.2973039288     2.1762255099    23.3292861662
CU      4.9691516494     0.0636744593    23.4169317211
CU      2.5097364207     4.3166893772    23.4039730277
CU      0.0513874043     0.0591056639    23.3862459786
CU      7.4607862314     4.3379184490    23.3453808544
O       6.1672684427     3.6596747254    24.7038917148
H       7.0345472149     4.3624598846    26.4271324056
H       5.2379612067     4.3888582439    26.3961024182
C       6.1306715784     3.8026847166    26.1374586409
O       7.2562966407     1.6685797848    26.5177353904
H       7.1592468445     1.3049784130    25.6092413205
C       6.0968693173     2.4383166787    26.8269158285
H       5.1780528170     1.8993100716    26.5104165336
C       6.0451534046     2.6327753790    28.3355288018
H       5.3172203522     3.4322849482    28.5693724059
H       7.0462658947     2.9563185205    28.6754909810
O       5.6602263911     1.3979712238    28.9499546945
H       5.7156559358     1.5122097248    29.9122956879
85
Step 3 | ATOMIC_POSITIONS (angstrom) | Cartesian Angstrom
NI      1.2286390390     0.7093535490     9.0128649340
NI      2.4572760100     2.8374169220     9.0128649340
NI      3.6859498400     4.9655441370     9.0128649340
NI      3.6859144660     0.7093535490     9.0128649340
NI      4.9145514370     2.8374169220     9.0128649340
NI      6.1432252670     4.9655441370     9.0128649340
NI      6.1432636120     0.7093535490     9.0128649340
NI      7.3719005830     2.8374169220     9.0128649340
NI      8.6005744130     4.9655441370     9.0128649340
NI      0.0000019230    -0.0000011100    11.0189462060
NI      1.2286511800     2.1280835430    11.0189462060
NI      2.4573004370     4.2561681970    11.0189462060
NI      2.4573019230    -0.0000011100    11.0189462060
NI      3.6859511800     2.1280835430    11.0189462060
NI      4.9146004370     4.2561681970    11.0189462060
NI      4.9146019230    -0.0000011100    11.0189462060
NI      6.1432511800     2.1280835430    11.0189462060
NI      7.3719004370     4.2561681970    11.0189462060
NI      2.4675327822     1.4231402580    13.0266896505
NI      3.6927805507     3.5517109312    13.0301887360
NI      4.9235822466     1.4208375114    13.0317778992
NI      4.9224730757     5.6812183575    13.0314110924
NI      7.3814782510     1.4213441908    13.0337457143
NI      6.1510573887     3.5511821279    13.0282928448
NI      8.6091215912     3.5506771972    13.0319545388
NI      7.3798645433     5.6798439657    13.0309237005
NI      9.8369641328     5.6785482029    13.0301376579
NI      8.6188799668     4.9789242195    15.0200411659
NI      7.3854954849     2.8515815412    15.0241786486
NI      6.1598627890     4.9743374197    15.0271619934
NI      3.6996687502     4.9765095387    15.0184514549
NI      6.1578243893     0.7179055451    15.0200131731
NI      4.9324950259     2.8512997849    15.0236903706
NI      2.4733819095     2.8442347696    15.0229809659
NI      3.6975148670     0.7212439587    15.0255574388
NI      1.2469984337     0.7203797566    15.0247713007
CU      3.7120586522     2.1556114949    17.1029288748
CU      1.2553874531     2.1541892632    17.1018229305
CU      2.4830205435     0.0268455838    17.1070598319
CU      0.0229898982     0.0248661996    17.1041805918
CU      4.9378623938     4.2844290622    17.1045642681
CU      6.1691133414     2.1515480620    17.1025358368
CU      4.9421360537     0.0263694698    17.1063441943
CU      2.4833632561     4.2859935676    17.1034609124
CU      7.4011466845     4.2845429643    17.1035589075
CU      9.8686321187     5.7209066308    19.2163940856
CU      7.4126222876     1.4617066798    19.1975092330
CU      4.9533370503     5.7183045251    19.1970545549
CU      2.4978281126     1.4614516429    19.2031801842
CU      8.6421570303     3.5906705855    19.1975978021
CU      7.4140820161     5.7178302023    19.1983284513
CU      4.9539571987     1.4618953821    19.1991250582
CU      3.7230064915     3.5897278769    19.1969463067
CU      6.1827768682     3.5890617948    19.1760387712
CU      8.6503954884     5.0196853371    21.3157194179
CU      7.4151575994     2.8963182915    21.2775984248
CU      6.1941968529     5.0098640238    21.2722138949
CU      6.1920835783     0.7707631531    21.3133843870
CU      3.7377368343     5.0163329343    21.3033099880
CU      4.9713894451     2.8957936082    21.2746391598
CU      2.5063304611     2.8973359540    21.2913949281
CU      3.7445994929     0.7563136535    21.2894985894
CU      1.2714405000     0.7580088656    21.2865649736
CU      3.7258453532     2.1752252250    23.3159825447
CU      6.1980041698     2.1524651040    23.3638488847
CU      4.9265599495     4.3421114263    23.3344380601
CU      2.5145932910     0.0820620443    23.3123402957
CU      1.3015800125     2.1756252675    23.3276446533
CU      4.9745303035     0.0630965694    23.4174547573
CU      2.5153679050     4.3157048088    23.4037792791
CU      0.0564691311     0.0578531189    23.3857939388
CU      7.4650621230     4.3375465716    23.3490672256
O       6.1748634573     3.6581469429    24.7066545015
H       7.0338575668     4.3540050851    26.4351835819
H       5.2366102252     4.3783187991    26.3990456256
C       6.1318171081     3.7953497778    26.1400491375
O       7.2595378533     1.6597293091    26.5109381966
H       7.1666481433     1.2988556920    25.6006253481
C       6.0997581216     2.4276448792    26.8215211985
H       5.1837320188     1.8896322950    26.4992328182
C       6.0432917441     2.6108141094    28.3309981680
H       5.3132402821     3.4060201676    28.5705527847
H       7.0416973153     2.9339304932    28.6762768970
O       5.6617476617     1.3706213137    28.9360174667
H       5.7103911188     1.4778286772    29.8997876761
85
Step 4 | ATOMIC_POSITIONS (angstrom) | Cartesian Angstrom
NI      1.2286390390     0.7093535490     9.0128649340
NI      2.4572760100     2.8374169220     9.0128649340
NI      3.6859498400     4.9655441370     9.0128649340
NI      3.6859144660     0.7093535490     9.0128649340
NI      4.9145514370     2.8374169220     9.0128649340
NI      6.1432252670     4.9655441370     9.0128649340
NI      6.1432636120     0.7093535490     9.0128649340
NI      7.3719005830     2.8374169220     9.0128649340
NI      8.6005744130     4.9655441370     9.0128649340
NI      0.0000019230    -0.0000011100    11.0189462060
NI      1.2286511800     2.1280835430    11.0189462060
NI      2.4573004370     4.2561681970    11.0189462060
NI      2.4573019230    -0.0000011100    11.0189462060
NI      3.6859511800     2.1280835430    11.0189462060
NI      4.9146004370     4.2561681970    11.0189462060
NI      4.9146019230    -0.0000011100    11.0189462060
NI      6.1432511800     2.1280835430    11.0189462060
NI      7.3719004370     4.2561681970    11.0189462060
NI      2.4682417806     1.4231934800    13.0263068245
NI      3.6944444942     3.5520011375    13.0303628582
NI      4.9246450719     1.4217028280    13.0321909802
NI      4.9239917528     5.6805992010    13.0312597721
NI      7.3823164351     1.4222318047    13.0331282102
NI      6.1525156055     3.5516655737    13.0288402505
NI      8.6106551801     3.5516376780    13.0312806208
NI      7.3815987514     5.6797924953    13.0308903430
NI      9.8385821499     5.6790885791    13.0295787938
NI      8.6213594188     4.9793682214    15.0203161293
NI      7.3882381292     2.8508098279    15.0238769294
NI      6.1619940955     4.9754725027    15.0264895275
NI      3.7009888526     4.9774535489    15.0184923027
NI      6.1602161999     0.7168420232    15.0203224863
NI      4.9337731491     2.8504660483    15.0235724920
NI      2.4752382280     2.8443482147    15.0237616749
NI      3.6998774773     0.7214250086    15.0265596304
NI      1.2494334323     0.7209400487    15.0250249949
CU      3.7146690236     2.1542975032    17.1039434848
CU      1.2573390594     2.1537046468    17.1031646385
CU      2.4858778296     0.0255197531    17.1071207413
CU      0.0266277298     0.0242898876    17.1052085828
CU      4.9396872764     4.2834295353    17.1035721020
CU      6.1714521373     2.1506622035    17.1023737170
CU      4.9443328425     0.0254376412    17.1068168347
CU      2.4859380974     4.2848363233    17.1045880353
CU      7.4033545135     4.2833582403    17.1029829263
CU      9.8722174121     5.7188972889    19.2172116045
CU      7.4148806753     1.4603960219    19.1979872404
CU      4.9554601163     5.7170320610    19.1974978377
CU      2.5002215276     1.4606229775    19.2032419258
CU      8.6449046852     3.5899870328    19.1981259798
CU      7.4160926912     5.7162043114    19.1993214040
CU      4.9569026702     1.4613120577    19.1996418963
CU      3.7257196646     3.5893149560    19.1973167870
CU      6.1853788134     3.5882906441    19.1770611586
CU      8.6533674898     5.0182048966    21.3179947648
CU      7.4184723005     2.8955717651    21.2775261604
CU      6.1979956890     5.0093147495    21.2724707773
CU      6.1959767778     0.7697297006    21.3150212857
CU      3.7413743366     5.0155494118    21.3045007649
CU      4.9757847523     2.8946154566    21.2741967373
CU      2.5100882007     2.8975160454    21.2917078823
CU      3.7482962975     0.7563040748    21.2906549658
CU      1.2748687266     0.7579911600    21.2866370570
CU      3.7302389472     2.1744147023    23.3163561462
CU      6.2017621521     2.1541811371    23.3644776462
CU      4.9321464391     4.3410220770    23.3370304875
CU      2.5191744048     0.0805919804    23.3122434275
CU      1.3054558157     2.1751573422    23.3259873317
CU      4.9794560226     0.0621015774    23.4175297877
CU      2.5193815932     4.3151796385    23.4040740343
CU      0.0607501015     0.0573082743    23.3857811801
CU      7.4685420256     4.3373149773    23.3515422453
O       6.1817494984     3.6566688227    24.7089404510
H       7.0325249726     4.3443221387    26.4443268277
H       5.2353823524     4.3662863355    26.4009291147
C       6.1329428276     3.7869214890    26.1420811889
O       7.2632447330     1.6499967467    26.5054813117
H       7.1734485889     1.2916093483    25.5936107438
C       6.1028535966     2.4163280887    26.8163566633
H       5.1894942757     1.8799612289    26.4879802531
C       6.0413954930     2.5895683119    28.3266149872
H       5.3093469224     3.3807489810    28.5713940429
H       7.0374384997     2.9125580791    28.6768305779
O       5.6630363235     1.3443721470    28.9232425530
H       5.7056733355     1.4454714042    29.8881231629
85
Step 5 | ATOMIC_POSITIONS (angstrom) | Cartesian Angstrom
NI      1.2286390390     0.7093535490     9.0128649340
NI      2.4572760100     2.8374169220     9.0128649340
NI      3.6859498400     4.9655441370     9.0128649340
NI      3.6859144660     0.7093535490     9.0128649340
NI      4.9145514370     2.8374169220     9.0128649340
NI      6.1432252670     4.9655441370     9.0128649340
NI      6.1432636120     0.7093535490     9.0128649340
NI      7.3719005830     2.8374169220     9.0128649340
NI      8.6005744130     4.9655441370     9.0128649340
NI      0.0000019230    -0.0000011100    11.0189462060
NI      1.2286511800     2.1280835430    11.0189462060
NI      2.4573004370     4.2561681970    11.0189462060
NI      2.4573019230    -0.0000011100    11.0189462060
NI      3.6859511800     2.1280835430    11.0189462060
NI      4.9146004370     4.2561681970    11.0189462060
NI      4.9146019230    -0.0000011100    11.0189462060
NI      6.1432511800     2.1280835430    11.0189462060
NI      7.3719004370     4.2561681970    11.0189462060
NI      2.4686328546     1.4232749038    13.0259734610
NI      3.6962892302     3.5521283047    13.0305517043
NI      4.9255439452     1.4230123430    13.0326361228
NI      4.9255680530     5.6797658598    13.0311422564
NI      7.3828648485     1.4235000033    13.0324352120
NI      6.1537727103     3.5521006407    13.0290304315
NI      8.6117927886     3.5524690909    13.0307184639
NI      7.3829774231     5.6796969509    13.0311036869
NI      9.8400859380     5.6797478776    13.0295267396
NI      8.6238280148     4.9797153013    15.0202319179
NI      7.3907248026     2.8500155023    15.0240140320
NI      6.1638384958     4.9763159555    15.0260822432
NI      3.7020403065     4.9784718617    15.0183597550
NI      6.1626097139     0.7156273818    15.0205117933
NI      4.9349541293     2.8496968298    15.0241244846
NI      2.4769535035     2.8447919622    15.0243828464
NI      3.7023097590     0.7216076672    15.0272121445
NI      1.2515843579     0.7215451083    15.0250032547
CU      3.7173982185     2.1527585913    17.1051816041
CU      1.2596284517     2.1530199730    17.1047493326
CU      2.4889659918     0.0241448243    17.1074445879
CU      0.0304241720     0.0236837325    17.1068289694
CU      4.9421773154     4.2822467399    17.1020798707
CU      6.1742269635     2.1497711005    17.1018694867
CU      4.9470733512     0.0242327946    17.1080440102
CU      2.4887095811     4.2835077328    17.1062837521
CU      7.4057255788     4.2819957310    17.1022293558
CU      9.8759243002     5.7167931439    19.2184634997
CU      7.4177028023     1.4590332132    19.1985488657
CU      4.9584704819     5.7157755210    19.1980240075
CU      2.5033062776     1.4597627360    19.2036811430
CU      8.6480635613     3.5889477735    19.1988637997
CU      7.4188160071     5.7149123682    19.2005449631
CU      4.9602634519     1.4602272701    19.2001978444
CU      3.7293105442     3.5884071667    19.1976663829
CU      6.1886644528     3.5874667769    19.1773822034
CU      8.6569219364     5.0168568902    21.3198705708
CU      7.4225294915     2.8945820422    21.2778412368
CU      6.2022428840     5.0090543854    21.2725847191
CU      6.2001527869     0.7681647096    21.3166784295
CU      3.7449806943     5.0149109386    21.3053326736
CU      4.9804228671     2.8932286171    21.2741998060
CU      2.5143741929     2.8979640036    21.2917398772
CU      3.7528527792     0.7561475680    21.2914492905
CU      1.2786791486     0.7578699245    21.2862397166
CU      3.7346795711     2.1736085622    23.3168072792
CU      6.2052373405     2.1549502597    23.3642182649
CU      4.9386549480     4.3391178617    23.3396912391
CU      2.5236676685     0.0792265622    23.3123800488
CU      1.3093008780     2.1744873108    23.3241132628
CU      4.9843615133     0.0608330782    23.4177113470
CU      2.5226397358     4.3146265290    23.4049929646
CU      0.0647292218     0.0571341861    23.3862652580
CU      7.4722273166     4.3371171773    23.3531935530
O       6.1885145855     3.6554627863    24.7111015948
H       7.0312786440     4.3336710051    26.4551047919
H       5.2345452036     4.3524144660    26.4023162501
C       6.1347843327     3.7771097483    26.1442096779
O       7.2681973297     1.6393077280    26.5000509543
H       7.1809727134     1.2840035424    25.5864788846
C       6.1063537240     2.4032779614    26.8108180229
H       5.1951793911     1.8692420457    26.4747145454
C       6.0394229436     2.5658948447    28.3220233225
H       5.3047242401     3.3528795838    28.5721598803
H       7.0333736898     2.8891164947    28.6774327548
O       5.6640478905     1.3148524471    28.9087105630
H       5.7005667102     1.4094900338    29.8744955945
85
Step 6 | ATOMIC_POSITIONS (angstrom) | Cartesian Angstrom
NI      1.2286390390     0.7093535490     9.0128649340
NI      2.4572760100     2.8374169220     9.0128649340
NI      3.6859498400     4.9655441370     9.0128649340
NI      3.6859144660     0.7093535490     9.0128649340
NI      4.9145514370     2.8374169220     9.0128649340
NI      6.1432252670     4.9655441370     9.0128649340
NI      6.1432636120     0.7093535490     9.0128649340
NI      7.3719005830     2.8374169220     9.0128649340
NI      8.6005744130     4.9655441370     9.0128649340
NI      0.0000019230    -0.0000011100    11.0189462060
NI      1.2286511800     2.1280835430    11.0189462060
NI      2.4573004370     4.2561681970    11.0189462060
NI      2.4573019230    -0.0000011100    11.0189462060
NI      3.6859511800     2.1280835430    11.0189462060
NI      4.9146004370     4.2561681970    11.0189462060
NI      4.9146019230    -0.0000011100    11.0189462060
NI      6.1432511800     2.1280835430    11.0189462060
NI      7.3719004370     4.2561681970    11.0189462060
NI      2.4684277030     1.4233678462    13.0258851617
NI      3.6974716318     3.5520598488    13.0307437454
NI      4.9258097601     1.4242782241    13.0329361000
NI      4.9265179413     5.6791262341    13.0310300443
NI      7.3828625506     1.4246833596    13.0317978789
NI      6.1543586564     3.5523613740    13.0289998424
NI      8.6122277428     3.5529622370    13.0304136065
NI      7.3835715914     5.6797526081    13.0314030939
NI      9.8409094748     5.6804077211    13.0295779772
NI      8.6251978062     4.9797065382    15.0197324480
NI      7.3919141374     2.8492856895    15.0243064463
NI      6.1645034722     4.9765317021    15.0256970122
NI      3.7021542579     4.9791716516    15.0180311119
NI      6.1639906000     0.7145010534    15.0204575898
NI      4.9353246009     2.8490851344    15.0249380941
NI      2.4776633002     2.8452986667    15.0249131347
NI      3.7037365234     0.7216542453    15.0273914771
NI      1.2524907357     0.7219468461    15.0248274685
CU      3.7186365564     2.1509521802    17.1063155653
CU      1.2608060018     2.1518232289    17.1061350932
CU      2.4905610673     0.0225963806    17.1078251092
CU      0.0323677420     0.0226844374    17.1084305957
CU      4.9437149706     4.2807308671    17.1003061875
CU      6.1757290680     2.1485511205    17.1010478489
CU      4.9488463392     0.0225346454    17.1095786839
CU      2.4900568487     4.2819948983    17.1079375344
CU      7.4067467510     4.2804003812    17.1012681778
CU      9.8772541576     5.7146896924    19.2197905939
CU      7.4187915175     1.4574236753    19.1990042046
CU      4.9601380341     5.7142555449    19.1982925010
CU      2.5048310780     1.4584665620    19.2043160081
CU      8.6492778824     3.5873064790    19.1994464876
CU      7.4201860321     5.7137003975    19.2014143996
CU      4.9617600657     1.4582562432    19.2006313122
CU      3.7314397818     3.5866448432    19.1978325395
CU      6.1902559768     3.5861733708    19.1765691373
CU      8.6584848936     5.0156979973    21.3205433722
CU      7.4244400807     2.8933238866    21.2781107904
CU      6.2040049043     5.0086407557    21.2723149820
CU      6.2018905845     0.7661772497    21.3179101787
CU      3.7462896903     5.0140924106    21.3058740399
CU      4.9824043458     2.8917588644    21.2746233209
CU      2.5164776126     2.8980530352    21.2912316118
CU      3.7553072545     0.7554657597    21.2915162253
CU      1.2802382235     0.7571846546    21.2852638667
CU      3.7361212691     2.1728588432    23.3171160067
CU      6.2058947377     2.1545238549    23.3633626741
CU      4.9422089068     4.3369863809    23.3415886101
CU      2.5250072690     0.0782697600    23.3121818498
CU      1.3103549528     2.1736233846    23.3220148425
CU      4.9862384232     0.0597875540    23.4177303040
CU      2.5230235829     4.3139232985    23.4059971250
CU      0.0657782518     0.0571104474    23.3872594177
CU      7.4738166051     4.3370468127    23.3529954080
O       6.1930207087     3.6556377609    24.7123915229
H       7.0315304944     4.3276752133    26.4630846885
H       5.2352709528     4.3442294701    26.4018105010
C       6.1372739836     3.7716032931    26.1455578421
O       7.2723590306     1.6335482980    26.4975485644
H       7.1871719564     1.2816537128    25.5823664458
C       6.1088997211     2.3956781401    26.8072223875
H       5.1985390085     1.8646265502    26.4642179992
C       6.0380926540     2.5512569546    28.3189507687
H       5.3016476231     3.3356092695    28.5723503468
H       7.0311996137     2.8743290530    28.6779390713
O       5.6639799104     1.2960281118    28.8974689748
H       5.6975791263     1.3855172083    29.8633700108
85
Step 7 | ATOMIC_POSITIONS (angstrom) | Cartesian Angstrom
NI      1.2286390390     0.7093535490     9.0128649340
NI      2.4572760100     2.8374169220     9.0128649340
NI      3.6859498400     4.9655441370     9.0128649340
NI      3.6859144660     0.7093535490     9.0128649340
NI      4.9145514370     2.8374169220     9.0128649340
NI      6.1432252670     4.9655441370     9.0128649340
NI      6.1432636120     0.7093535490     9.0128649340
NI      7.3719005830     2.8374169220     9.0128649340
NI      8.6005744130     4.9655441370     9.0128649340
NI      0.0000019230    -0.0000011100    11.0189462060
NI      1.2286511800     2.1280835430    11.0189462060
NI      2.4573004370     4.2561681970    11.0189462060
NI      2.4573019230    -0.0000011100    11.0189462060
NI      3.6859511800     2.1280835430    11.0189462060
NI      4.9146004370     4.2561681970    11.0189462060
NI      4.9146019230    -0.0000011100    11.0189462060
NI      6.1432511800     2.1280835430    11.0189462060
NI      7.3719004370     4.2561681970    11.0189462060
NI      2.4681286200     1.4232862474    13.0261443716
NI      3.6981859822     3.5516857002    13.0310946175
NI      4.9258743199     1.4250149901    13.0331445632
NI      4.9271152896     5.6786984285    13.0310368387
NI      7.3828332778     1.4253201640    13.0313595637
NI      6.1547289461     3.5522466633    13.0291098524
NI      8.6125403259     3.5529492509    13.0304701703
NI      7.3839240217     5.6798646544    13.0317703490
NI      9.8414484070     5.6808243178    13.0295286278