85
Step 1 | ATOMIC_POSITIONS (angstrom) | Cartesian Angstrom
NI      1.2286390390     0.7093535490     9.0128649340
NI      2.4572760100     2.8374169220     9.0128649340
NI      3.6859498400     4.9655441370     9.0128649340
NI      3.6859144660     0.7093535490     9.0128649340
NI      4.9145514370     2.8374169220     9.0128649340
NI      6.1432252670     4.9655441370     9.0128649340
NI      6.1432636120     0.7093535490     9.0128649340
NI      7.3719005830     2.8374169220     9.0128649340
NI      8.6005744130     4.9655441370     9.0128649340
NI      0.0000019230    -0.0000011100    11.0189462060
NI      1.2286511800     2.1280835430    11.0189462060
NI      2.4573004370     4.2561681970    11.0189462060
NI      2.4573019230    -0.0000011100    11.0189462060
NI      3.6859511800     2.1280835430    11.0189462060
NI      4.9146004370     4.2561681970    11.0189462060
NI      4.9146019230    -0.0000011100    11.0189462060
NI      6.1432511800     2.1280835430    11.0189462060
NI      7.3719004370     4.2561681970    11.0189462060
NI      2.4642244780     1.4227189880    13.0272881070
NI      3.6924327390     3.5506983320    13.0276201530
NI      4.9212127460     1.4223897070    13.0276202510
NI      4.9211289880     5.6792703610    13.0277505390
NI      7.3789582730     1.4221866730    13.0277506190
NI      6.1494102800     3.5503628350    13.0279816350
NI      8.6071640600     3.5501702390    13.0280595260
NI      7.3781196110     5.6789367880    13.0280595390
NI      9.8358884290     5.6787529240    13.0281948130
NI      8.6117605830     4.9720020900    15.0186578060
NI      7.3827869000     2.8442350780    15.0193609080
NI      6.1545735900     4.9715622540    15.0193609870
NI      3.6967676190     4.9714536840    15.0198461330
NI      6.1537906650     0.7157666040    15.0198461880
NI      4.9255624130     2.8437736980    15.0200052340
NI      2.4677586240     2.8437215940    15.0204940710
NI      3.6966160050     0.7152787130    15.0204940950
NI      1.2387561530     0.7151941710    15.0209755470
CU      3.6983605790     2.1352480720    17.0975611220
CU      1.2411159100     2.1352155180    17.0978014380
CU      2.4697108070     0.0072275920    17.0978015350
CU      0.0125040740     0.0072168940    17.0980434560
CU      4.9270970170     4.2630879460    17.0982970610
CU      6.1554922450     2.1354459510    17.0982970840
CU      4.9267502260     0.0076215920    17.0985396480
CU      2.4699760600     4.2628774400    17.0985397210
CU      7.3842970870     4.2633253690    17.0989758590
CU      9.8379678212     5.6800523213    19.1896522131
CU      7.3807393265     1.4236830067    19.1897813021
CU      4.9234088633     5.6800852852    19.1898292115
CU      2.4663941616     1.4239642306    19.1885396272
CU      8.6093155133     3.5518169228    19.1902940445
CU      7.3805735009     5.6799902405    19.1902449492
CU      4.9235946476     1.4243032327    19.1892595817
CU      3.6953104945     3.5517483614    19.1892645942
CU      6.1525371336     3.5522639212    19.1906388999
CU      8.6036955500     4.9671921820    21.2816173018
CU      7.3745611556     2.8386427720    21.2815429571
CU      6.1456442936     4.9670988256    21.2817166748
CU      6.1460597339     0.7115728162    21.2805689758
CU      3.6891067835     4.9666564021    21.2804966658
CU      4.9164922699     2.8385176476    21.2794527329
CU      2.4624239728     2.8382037912    21.2805578129
CU      3.6891599800     0.7135123531    21.2810085959
CU      1.2328950205     0.7119377512    21.2812457193
CU      3.6868916704     2.1333838890    23.3304739781
CU      6.1450716297     2.1271492131    23.3289684553
CU      4.9143595989     4.2587277440    23.3281434096
CU      2.4531604595    -0.0063753964    23.3291619147
CU      1.2220479267     2.1278344967    23.3296685462
CU      4.9149527167    -0.0059987978    23.3303341536
CU      2.4528166676     4.2594955804    23.3293099454
CU     -0.0009228740    -0.0010715855    23.3327112038
CU      7.3682383792     4.2538871789    23.3341788128
O       3.7293810186     2.1126196798    25.1530974210
H       5.3095559642     2.8456222332    26.2353128578
H       3.8336761596     3.8580138112    26.2379828197
C       4.1956357226     2.8238070022    26.2655360191
O       4.2143034933     0.7639289136    27.5139855664
H       5.1943854105     0.8216517537    27.5155633379
C       3.7399048028     2.1058072238    27.5407673806
H       2.6218904341     2.0279878343    27.5401394584
C       4.2093425442     2.8071472495    28.8060481491
H       3.8657422789     3.8464328128    28.8392457024
H       5.3189311817     2.7942999150    28.8390230500
O       3.7274217498     2.1092868608    29.9569585761
H       4.0716889802     2.5859673050    30.7280686793
