85
Step 1 | ATOMIC_POSITIONS (angstrom) | Cartesian Angstrom
NI      1.2286390390     0.7093535490     9.0128649340
NI      2.4572760100     2.8374169220     9.0128649340
NI      3.6859498400     4.9655441370     9.0128649340
NI      3.6859144660     0.7093535490     9.0128649340
NI      4.9145514370     2.8374169220     9.0128649340
NI      6.1432252670     4.9655441370     9.0128649340
NI      6.1432636120     0.7093535490     9.0128649340
NI      7.3719005830     2.8374169220     9.0128649340
NI      8.6005744130     4.9655441370     9.0128649340
NI      0.0000019230    -0.0000011100    11.0189462060
NI      1.2286511800     2.1280835430    11.0189462060
NI      2.4573004370     4.2561681970    11.0189462060
NI      2.4573019230    -0.0000011100    11.0189462060
NI      3.6859511800     2.1280835430    11.0189462060
NI      4.9146004370     4.2561681970    11.0189462060
NI      4.9146019230    -0.0000011100    11.0189462060
NI      6.1432511800     2.1280835430    11.0189462060
NI      7.3719004370     4.2561681970    11.0189462060
NI      2.4640404916     1.4225853277    13.0274189916
NI      3.6923449925     3.5507361477    13.0276087398
NI      4.9211563963     1.4222889059    13.0275392492
NI      4.9211789550     5.6790585265    13.0278132664
NI      7.3788385943     1.4223576268    13.0277913358
NI      6.1493970240     3.5503344906    13.0285208505
NI      8.6070689274     3.5501704901    13.0284714085
NI      7.3780924813     5.6788736893    13.0284583693
NI      9.8356892594     5.6785959734    13.0281780342
NI      8.6116556374     4.9719785133    15.0183731351
NI      7.3826153568     2.8439704477    15.0188060696
NI      6.1543213581     4.9715344780    15.0189641057
NI      3.6966987019     4.9715632238    15.0199814236
NI      6.1538491298     0.7157020090    15.0200013923
NI      4.9252794289     2.8435703124    15.0198790824
NI      2.4678677880     2.8434053480    15.0201552464
NI      3.6964413161     0.7155312407    15.0201250767
NI      1.2386654960     0.7152019872    15.0209073634
CU      3.6981309765     2.1351341092    17.0979279954
CU      1.2409147217     2.1353995327    17.0979276994
CU      2.4697772692     0.0069945595    17.0979077121
CU      0.0123189124     0.0071312695    17.0978064082
CU      4.9272958439     4.2630351164    17.0985591890
CU      6.1555964108     2.1356410568    17.0985637959
CU      4.9265208401     0.0071809464    17.0985555764
CU      2.4694759846     4.2628776448    17.0987585857
CU      7.3842474025     4.2632491034    17.0988615086
CU      9.8379674895     5.6800522266    19.1896608944
CU      7.3807395313     1.4236839531    19.1897901786
CU      4.9234093940     5.6800854453    19.1898374655
CU      2.4663931459     1.4239642674    19.1885485136
CU      8.6093150299     3.5518166561    19.1903030648
CU      7.3805731016     5.6799898543    19.1902534637
CU      4.9235952553     1.4243037898    19.1892690466
CU      3.6953106525     3.5517485903    19.1892737516
CU      6.1525372391     3.5522637912    19.1906483319
CU      8.6036948466     4.9671922573    21.2816133422
CU      7.3745612166     2.8386425559    21.2815380114
CU      6.1456450113     4.9670990452    21.2817141712
CU      6.1460578183     0.7115747418    21.2805662828
CU      3.6891066396     4.9666547636    21.2804945455
CU      4.9164922642     2.8385166193    21.2794535573
CU      2.4624237615     2.8382029972    21.2805581441
CU      3.6891599883     0.7135129571    21.2810094080
CU      1.2328967475     0.7119396596    21.2812442039
CU      3.6868916768     2.1333864945    23.3304704000
CU      6.1450631768     2.1271508461    23.3289822758
CU      4.9143557350     4.2587215404    23.3281539293
CU      2.4531623528    -0.0063720348    23.3291713965
CU      1.2220552377     2.1278362598    23.3296816225
CU      4.9149497382    -0.0059934962    23.3303466682
CU      2.4528210793     4.2594881919    23.3293245891
CU     -0.0009219598    -0.0010731072    23.3327261938
CU      7.3682377198     4.2538875165    23.3341940836
O       3.7293786517     2.1126161832    25.1530978471
H       5.3095545617     2.8456223807    26.2353115647
H       3.8336764695     3.8580123770    26.2379815816
C       4.1956366246     2.8238081108    26.2655342393
O       4.2143108571     0.7639253091    27.5139869009
H       5.1943838949     0.8216512437    27.5155623440
C       3.7399042028     2.1058063368    27.5407667751
H       2.6218894531     2.0279879809    27.5401383265
C       4.2093445960     2.8071485219    28.8060486128
H       3.8657430150     3.8464305651    28.8392444648
H       5.3189291431     2.7943003905    28.8390216099
O       3.7274234306     2.1092869207    29.9569548445
H       4.0716896797     2.5859681464    30.7280680724
85
Step 2 | ATOMIC_POSITIONS (angstrom) | Cartesian Angstrom
NI      1.2286390390     0.7093535490     9.0128649340
NI      2.4572760100     2.8374169220     9.0128649340
NI      3.6859498400     4.9655441370     9.0128649340
NI      3.6859144660     0.7093535490     9.0128649340
NI      4.9145514370     2.8374169220     9.0128649340
NI      6.1432252670     4.9655441370     9.0128649340
NI      6.1432636120     0.7093535490     9.0128649340
NI      7.3719005830     2.8374169220     9.0128649340
NI      8.6005744130     4.9655441370     9.0128649340
NI      0.0000019230    -0.0000011100    11.0189462060
NI      1.2286511800     2.1280835430    11.0189462060
NI      2.4573004370     4.2561681970    11.0189462060
NI      2.4573019230    -0.0000011100    11.0189462060
NI      3.6859511800     2.1280835430    11.0189462060
NI      4.9146004370     4.2561681970    11.0189462060
NI      4.9146019230    -0.0000011100    11.0189462060
NI      6.1432511800     2.1280835430    11.0189462060
NI      7.3719004370     4.2561681970    11.0189462060
NI      2.4637443197     1.4223736565    13.0275506212
NI      3.6922102104     3.5507944937    13.0275676801
NI      4.9210762507     1.4221330066    13.0273848075
NI      4.9212127027     5.6787468277    13.0278728707
NI      7.3786431997     1.4225698828    13.0278097487
NI      6.1493389478     3.5502701586    13.0292800756
NI      8.6069405587     3.5501545149    13.0290303083
NI      7.3780434132     5.6787928893    13.0290072150
NI      9.8354104199     5.6783707167    13.0281273760
NI      8.6114810882     4.9719266258    15.0180170567
NI      7.3823297543     2.8435927599    15.0180597282
NI      6.1539343189     4.9714611647    15.0184546118
NI      3.6965608603     4.9716962672    15.0202260854
NI      6.1538936742     0.7155867069    15.0202638675
NI      4.9248335270     2.8432621154    15.0197569124
NI      2.4680241129     2.8429471198    15.0197339460
NI      3.6961799777     0.7159006046    15.0196517143
NI      1.2385157506     0.7152002825    15.0208520470
CU      3.6978049747     2.1349709609    17.0983392692
CU      1.2405769962     2.1356410232    17.0980614241
CU      2.4698300065     0.0066284981    17.0980203682
CU      0.0120499847     0.0070007446    17.0974834579
CU      4.9275450923     4.2629538960    17.0989307857
CU      6.1557265194     2.1358950715    17.0989517393
CU      4.9261759835     0.0065567463    17.0985806343
CU      2.4687618427     4.2628601026    17.0990858786
CU      7.3841390004     4.2631128190    17.0986729342
CU      9.8384667892     5.6804742262    19.1904296688
CU      7.3810299537     1.4230067042    19.1904405622
CU      4.9230840983     5.6807019213    19.1905807691
CU      2.4661495924     1.4238106211    19.1870727063
CU      8.6092286501     3.5514990205    19.1912936353
CU      7.3801882061     5.6801007047    19.1912011436
CU      4.9232180928     1.4242584292    19.1883074404
CU      3.6951321580     3.5513855328    19.1882953725
CU      6.1524239156     3.5523437905    19.1913415973
CU      8.6043039830     4.9673824759    21.2821469979
CU      7.3744042015     2.8384730716    21.2815675425
CU      6.1454991973     4.9668623237    21.2819421095
CU      6.1456238850     0.7119596828    21.2792405670
CU      3.6890023310     4.9658531612    21.2789025021
CU      4.9151699093     2.8376862046    21.2762924727
CU      2.4645878834     2.8366314056    21.2789910212
CU      3.6889108162     0.7163566589    21.2802917674
CU      1.2336015672     0.7125271155    21.2803190560
CU      3.6917202897     2.1429026376    23.3345725739
CU      6.1514023069     2.1283133486    23.3262420056
CU      4.9181998855     4.2645265832    23.3241685952
CU      2.4497558045    -0.0127143963    23.3266517558
CU      1.2160600300     2.1281965886    23.3279861395
CU      4.9175617899    -0.0111805140    23.3293071819
CU      2.4501469496     4.2648874065    23.3267322352
CU     -0.0012798312    -0.0019558861    23.3352656292
CU      7.3680048240     4.2534989366    23.3390997793
O       3.7163579477     2.0968333666    25.1634386067
H       5.3114406381     2.8501232114    26.2416184349
H       3.8332331581     3.8705115984    26.2414567236
C       4.1962516678     2.8255538552    26.2542323611
O       4.2180413440     0.7515899156    27.5152512285
H       5.1881338060     0.8176257856    27.5155024246
C       3.7419316443     2.0993393284    27.5428624860
H       2.6333769943     2.0287909809    27.5400995777
C       4.2126782384     2.8085114278    28.8133974830
H       3.8651964277     3.8579678570    28.8317353450
H       5.3226652953     2.7994871454    28.8290892168
O       3.7189785449     2.1037319084    29.9605831739
H       4.0695254467     2.5836713509    30.7303407202
