85
Step 1 | ATOMIC_POSITIONS (angstrom) | Cartesian Angstrom
NI      1.2286390390     0.7093535490     9.0128649340
NI      2.4572760100     2.8374169220     9.0128649340
NI      3.6859498400     4.9655441370     9.0128649340
NI      3.6859144660     0.7093535490     9.0128649340
NI      4.9145514370     2.8374169220     9.0128649340
NI      6.1432252670     4.9655441370     9.0128649340
NI      6.1432636120     0.7093535490     9.0128649340
NI      7.3719005830     2.8374169220     9.0128649340
NI      8.6005744130     4.9655441370     9.0128649340
NI      0.0000019230    -0.0000011100    11.0189462060
NI      1.2286511800     2.1280835430    11.0189462060
NI      2.4573004370     4.2561681970    11.0189462060
NI      2.4573019230    -0.0000011100    11.0189462060
NI      3.6859511800     2.1280835430    11.0189462060
NI      4.9146004370     4.2561681970    11.0189462060
NI      4.9146019230    -0.0000011100    11.0189462060
NI      6.1432511800     2.1280835430    11.0189462060
NI      7.3719004370     4.2561681970    11.0189462060
NI      2.4640441081     1.4225842078    13.0274102622
NI      3.6923479966     3.5507369995    13.0275986531
NI      4.9211540626     1.4222902820    13.0275305244
NI      4.9211840494     5.6790527229    13.0278045660
NI      7.3788375928     1.4223609809    13.0277839501
NI      6.1493969421     3.5503396684    13.0285114147
NI      8.6070665100     3.5501751266    13.0284624598
NI      7.3780910286     5.6788698875    13.0284491897
NI      9.8356858727     5.6785922214    13.0281694326
NI      8.6116523896     4.9719779316    15.0183578280
NI      7.3826141912     2.8439752988    15.0187921300
NI      6.1543232805     4.9715334751    15.0189481726
NI      3.6967007502     4.9715609570    15.0199674588
NI      6.1538471285     0.7157021949    15.0199886766
NI      4.9252803096     2.8435732015    15.0198631527
NI      2.4678685126     2.8434066508    15.0201408767
NI      3.6964408728     0.7155291160    15.0201101112
NI      1.2386683732     0.7152004848    15.0208952862
CU      3.6981314309     2.1351346210    17.0979180725
CU      1.2409147610     2.1354007402    17.0979185385
CU      2.4697779705     0.0069926977    17.0978967946
CU      0.0123199293     0.0071308395    17.0977968370
CU      4.9272975980     4.2630354511    17.0985472520
CU      6.1555963667     2.1356431451    17.0985537722
CU      4.9265195212     0.0071799268    17.0985457782
CU      2.4694751351     4.2628775055    17.0987481174
CU      7.3842467627     4.2632501180    17.0988498576
CU      9.8379666347     5.6800517576    19.1896530788
CU      7.3807397801     1.4236855746    19.1897822571
CU      4.9234107261     5.6800851675    19.1898292233
CU      2.4663936812     1.4239645089    19.1885412098
CU      8.6093146976     3.5518168447    19.1902948051
CU      7.3805729824     5.6799898448    19.1902453845
CU      4.9235947888     1.4243040167    19.1892613316
CU      3.6953106706     3.5517482385    19.1892659782
CU      6.1525379995     3.5522641480    19.1906397641
CU      8.6036947946     4.9671922626    21.2816126495
CU      7.3745615986     2.8386429794    21.2815383600
CU      6.1456448655     4.9670992187    21.2817144296
CU      6.1460565121     0.7115759166    21.2805666127
CU      3.6891074301     4.9666532208    21.2804958832
CU      4.9164900266     2.8385157500    21.2794545362
CU      2.4624260994     2.8382020837    21.2805586062
CU      3.6891602736     0.7135157840    21.2810089002
CU      1.2328982068     0.7119403306    21.2812436301
CU      3.6868907213     2.1333836043    23.3304820515
CU      6.1450670081     2.1271506806    23.3289840595
CU      4.9143573573     4.2587220852    23.3281571231
CU      2.4531630964    -0.0063712373    23.3291746206
CU      1.2220521272     2.1278361269    23.3296839808
CU      4.9149503748    -0.0059948061    23.3303494323
CU      2.4528187407     4.2594906888    23.3293246642
CU     -0.0009229814    -0.0010708042    23.3327305924
CU      7.3682391700     4.2538866649    23.3341982930
O       3.7293772711     2.1126131223    25.1530989038
H       5.3095543964     2.8456225881    26.2353170662
H       3.8336770861     3.8580125153    26.2379869167
C       4.1956373488     2.8238086334    26.2655400480
O       4.2143039551     0.7639202082    27.5139893766
H       5.1943843449     0.8216517680    27.5155678330
C       3.7399030309     2.1058067425    27.5407712804
H       2.6218909173     2.0279883013    27.5401439918
C       4.2093455639     2.8071492223    28.8060541771
H       3.8657435961     3.8464308671    28.8392502852
H       5.3189289717     2.7943005898    28.8390274588
O       3.7274190291     2.1092804045    29.9569643038
H       4.0716893221     2.5859677783    30.7280730789
85
Step 2 | ATOMIC_POSITIONS (angstrom) | Cartesian Angstrom
NI      1.2286390390     0.7093535490     9.0128649340
NI      2.4572760100     2.8374169220     9.0128649340
NI      3.6859498400     4.9655441370     9.0128649340
NI      3.6859144660     0.7093535490     9.0128649340
NI      4.9145514370     2.8374169220     9.0128649340
NI      6.1432252670     4.9655441370     9.0128649340
NI      6.1432636120     0.7093535490     9.0128649340
NI      7.3719005830     2.8374169220     9.0128649340
NI      8.6005744130     4.9655441370     9.0128649340
NI      0.0000019230    -0.0000011100    11.0189462060
NI      1.2286511800     2.1280835430    11.0189462060
NI      2.4573004370     4.2561681970    11.0189462060
NI      2.4573019230    -0.0000011100    11.0189462060
NI      3.6859511800     2.1280835430    11.0189462060
NI      4.9146004370     4.2561681970    11.0189462060
NI      4.9146019230    -0.0000011100    11.0189462060
NI      6.1432511800     2.1280835430    11.0189462060
NI      7.3719004370     4.2561681970    11.0189462060
NI      2.4637459223     1.4223756296    13.0275344972
NI      3.6922114812     3.5507913037    13.0275518039
NI      4.9210746269     1.4221363951    13.0273707759
NI      4.9212160296     5.6787452758    13.0278586662
NI      7.3786443467     1.4225734745    13.0277951548
NI      6.1493394817     3.5502717560    13.0292644815
NI      8.6069396583     3.5501550249    13.0290147223
NI      7.3780428142     5.6787898367    13.0289934358
NI      9.8354080150     5.6783687194    13.0281142389
NI      8.6114790703     4.9719257171    15.0179946182
NI      7.3823296355     2.8435967277    15.0180365785
NI      6.1539366048     4.9714606331    15.0184321641
NI      3.6965619912     4.9716934303    15.0202043688
NI      6.1538918806     0.7155876540    15.0202416599
NI      4.9248339548     2.8432641351    15.0197315867
NI      2.4680247441     2.8429491689    15.0197091218
NI      3.6961801486     0.7158993337    15.0196275548
NI      1.2385180681     0.7152002696    15.0208300758
CU      3.6978062904     2.1349726516    17.0983146035
CU      1.2405775600     2.1356422003    17.0980387965
CU      2.4698303144     0.0066261936    17.0979964499
CU      0.0120505455     0.0070008475    17.0974602091
CU      4.9275472086     4.2629541027    17.0989046262
CU      6.1557257011     2.1358966534    17.0989274900
CU      4.9261757832     0.0065549844    17.0985569786
CU      2.4687604159     4.2628603764    17.0990613539
CU      7.3841392158     4.2631149359    17.0986481455
CU      9.8384648298     5.6804734487    19.1904136016
CU      7.3810299257     1.4230092589    19.1904246511
CU      4.9230862453     5.6807010718    19.1905640618
CU      2.4661506507     1.4238107727    19.1870587983
CU      8.6092277484     3.5514997174    19.1912768068
CU      7.3801882709     5.6801002134    19.1911852058
CU      4.9232178211     1.4242580330    19.1882927455
CU      3.6951323636     3.5513853320    19.1882802921
CU      6.1524252770     3.5523440932    19.1913239272
CU      8.6043026663     4.9673826260    21.2821493545
CU      7.3744054445     2.8384745880    21.2815710841
CU      6.1455008704     4.9668630950    21.2819464902
CU      6.1456222593     0.7119610959    21.2792462114
CU      3.6890032596     4.9658519849    21.2789096406
CU      4.9151676593     2.8376847192    21.2762991978
CU      2.4645899012     2.8366308452    21.2789967457
CU      3.6889117855     0.7163586226    21.2802966005
CU      1.2336033785     0.7125279398    21.2803221274
CU      3.6917168512     2.1428938349    23.3345951375
CU      6.1514093151     2.1283124095    23.3262570989
CU      4.9182029562     4.2645300122    23.3241881837
CU      2.4497580719    -0.0127114131    23.3266728124
CU      1.2160564042     2.1281960256    23.3280056954
CU      4.9175612300    -0.0111822232    23.3293255442
CU      2.4501426665     4.2648916128    23.3267489031
CU     -0.0012808985    -0.0019529226    23.3352908696
CU      7.3680072681     4.2534977703    23.3391247916
O       3.7163574669     2.0968342753    25.1634398197
H       5.3114406494     2.8501230879    26.2416245581
H       3.8332332820     3.8705107838    26.2414630755
C       4.1962533507     2.8255512998    26.2542414378
O       4.2180423015     0.7515911255    27.5152561801
H       5.1881289084     0.8176238428    27.5155091653
C       3.7419235248     2.0993376558    27.5428670504
H       2.6333748146     2.0287915778    27.5401073505
C       4.2126783077     2.8085054404    28.8134021054
H       3.8651969131     3.8579665240    28.8317443173
H       5.3226639700     2.7994864810    28.8290988885
O       3.7189740182     2.1037255347    29.9605954330
H       4.0695251398     2.5836707110    30.7303463301
