85
Step 1 | ATOMIC_POSITIONS (angstrom) | Cartesian Angstrom
NI      1.2286390390     0.7093535490     9.0128649340
NI      2.4572760100     2.8374169220     9.0128649340
NI      3.6859498400     4.9655441370     9.0128649340
NI      3.6859144660     0.7093535490     9.0128649340
NI      4.9145514370     2.8374169220     9.0128649340
NI      6.1432252670     4.9655441370     9.0128649340
NI      6.1432636120     0.7093535490     9.0128649340
NI      7.3719005830     2.8374169220     9.0128649340
NI      8.6005744130     4.9655441370     9.0128649340
NI      0.0000019230    -0.0000011100    11.0189462060
NI      1.2286511800     2.1280835430    11.0189462060
NI      2.4573004370     4.2561681970    11.0189462060
NI      2.4573019230    -0.0000011100    11.0189462060
NI      3.6859511800     2.1280835430    11.0189462060
NI      4.9146004370     4.2561681970    11.0189462060
NI      4.9146019230    -0.0000011100    11.0189462060
NI      6.1432511800     2.1280835430    11.0189462060
NI      7.3719004370     4.2561681970    11.0189462060
NI      2.4640404916     1.4225853277    13.0274189916
NI      3.6923449925     3.5507361477    13.0276087398
NI      4.9211563963     1.4222889059    13.0275392492
NI      4.9211789550     5.6790585265    13.0278132664
NI      7.3788385943     1.4223576268    13.0277913358
NI      6.1493970240     3.5503344906    13.0285208505
NI      8.6070689274     3.5501704901    13.0284714085
NI      7.3780924813     5.6788736893    13.0284583693
NI      9.8356892594     5.6785959734    13.0281780342
NI      8.6116556374     4.9719785133    15.0183731351
NI      7.3826153568     2.8439704477    15.0188060696
NI      6.1543213581     4.9715344780    15.0189641057
NI      3.6966987019     4.9715632238    15.0199814236
NI      6.1538491298     0.7157020090    15.0200013923
NI      4.9252794289     2.8435703124    15.0198790824
NI      2.4678677880     2.8434053480    15.0201552464
NI      3.6964413161     0.7155312407    15.0201250767
NI      1.2386654960     0.7152019872    15.0209073634
CU      3.6981309765     2.1351341092    17.0979279954
CU      1.2409147217     2.1353995327    17.0979276994
CU      2.4697772692     0.0069945595    17.0979077121
CU      0.0123189124     0.0071312695    17.0978064082
CU      4.9272958439     4.2630351164    17.0985591890
CU      6.1555964108     2.1356410568    17.0985637959
CU      4.9265208401     0.0071809464    17.0985555764
CU      2.4694759846     4.2628776448    17.0987585857
CU      7.3842474025     4.2632491034    17.0988615086
CU      9.8379674895     5.6800522266    19.1896608944
CU      7.3807395313     1.4236839531    19.1897901786
CU      4.9234093940     5.6800854453    19.1898374655
CU      2.4663931459     1.4239642674    19.1885485136
CU      8.6093150299     3.5518166561    19.1903030648
CU      7.3805731016     5.6799898543    19.1902534637
CU      4.9235952553     1.4243037898    19.1892690466
CU      3.6953106525     3.5517485903    19.1892737516
CU      6.1525372391     3.5522637912    19.1906483319
CU      8.6036948466     4.9671922573    21.2816133422
CU      7.3745612166     2.8386425559    21.2815380114
CU      6.1456450113     4.9670990452    21.2817141712
CU      6.1460578183     0.7115747418    21.2805662828
CU      3.6891066396     4.9666547636    21.2804945455
CU      4.9164922642     2.8385166193    21.2794535573
CU      2.4624237615     2.8382029972    21.2805581441
CU      3.6891599883     0.7135129571    21.2810094080
CU      1.2328967475     0.7119396596    21.2812442039
CU      3.6868916768     2.1333864945    23.3304704000
CU      6.1450631768     2.1271508461    23.3289822758
CU      4.9143557350     4.2587215404    23.3281539293
CU      2.4531623528    -0.0063720348    23.3291713965
CU      1.2220552377     2.1278362598    23.3296816225
CU      4.9149497382    -0.0059934962    23.3303466682
CU      2.4528210793     4.2594881919    23.3293245891
CU     -0.0009219598    -0.0010731072    23.3327261938
CU      7.3682377198     4.2538875165    23.3341940836
O       3.7293786517     2.1126161832    25.1530978471
H       5.3095545617     2.8456223807    26.2353115647
H       3.8336764695     3.8580123770    26.2379815816
C       4.1956366246     2.8238081108    26.2655342393
O       4.2143108571     0.7639253091    27.5139869009
H       5.1943838949     0.8216512437    27.5155623440
C       3.7399042028     2.1058063368    27.5407667751
H       2.6218894531     2.0279879809    27.5401383265
C       4.2093445960     2.8071485219    28.8060486128
H       3.8657430150     3.8464305651    28.8392444648
H       5.3189291431     2.7943003905    28.8390216099
O       3.7274234306     2.1092869207    29.9569548445
H       4.0716896797     2.5859681464    30.7280680724
