85
Step 1 | ATOMIC_POSITIONS (angstrom) | Cartesian Angstrom
NI      1.2286390390     0.7093535490     9.0128649340
NI      2.4572760100     2.8374169220     9.0128649340
NI      3.6859498400     4.9655441370     9.0128649340
NI      3.6859144660     0.7093535490     9.0128649340
NI      4.9145514370     2.8374169220     9.0128649340
NI      6.1432252670     4.9655441370     9.0128649340
NI      6.1432636120     0.7093535490     9.0128649340
NI      7.3719005830     2.8374169220     9.0128649340
NI      8.6005744130     4.9655441370     9.0128649340
NI      0.0000019230    -0.0000011100    11.0189462060
NI      1.2286511800     2.1280835430    11.0189462060
NI      2.4573004370     4.2561681970    11.0189462060
NI      2.4573019230    -0.0000011100    11.0189462060
NI      3.6859511800     2.1280835430    11.0189462060
NI      4.9146004370     4.2561681970    11.0189462060
NI      4.9146019230    -0.0000011100    11.0189462060
NI      6.1432511800     2.1280835430    11.0189462060
NI      7.3719004370     4.2561681970    11.0189462060
NI      2.4398358102     1.4200755602    13.0225998189
NI      3.6692265320     3.5480863010    13.0281969967
NI      4.8969117461     1.4212563670    13.0310298635
NI      4.8980246346     5.6759705612    13.0287609786
NI      7.3538320686     1.4210211813    13.0301880261
NI      6.1253297888     3.5484305013    13.0242856102
NI      8.5828750287     3.5485189453    13.0288781884
NI      7.3536254427     5.6768712113    13.0299971250
NI      9.8114202481     5.6767738607    13.0320613581
NI      8.5733110845     4.9713545358    15.0152169347
NI      7.3397365907     2.8437480195    15.0208127547
NI      6.1132146350     4.9669761797    15.0234580547
NI      3.6531199625     4.9707552688    15.0135452649
NI      6.1130767853     0.7093023866    15.0164131366
NI      4.8859664603     2.8437498586    15.0239463667
NI      2.4276504124     2.8389471325    15.0177970862
NI      3.6530367028     0.7147219624    15.0200548055
NI      1.2016655205     0.7145727713    15.0169923308
CU      3.6455648481     2.1394266211    17.0988574790
CU      1.1894561535     2.1400274302    17.0961826837
CU      2.4180831546     0.0129823130    17.0995516422
CU     -0.0409622537     0.0117035541    17.0985643866
CU      4.8719288852     4.2698179943    17.0920216782
CU      6.1033396156     2.1368227341    17.0930490502
CU      4.8780566094     0.0110282301    17.1032577083
CU      2.4178494227     4.2713709950    17.1003806104
CU      7.3347316082     4.2698785465    17.0934394037
CU      9.7825462273     5.7042742305    19.2098071613
CU      7.3245094046     1.4446593035    19.1876870670
CU      4.8657359404     5.7041719853    19.1831288124
CU      2.4116751633     1.4475131791    19.1956896001
CU      8.5555182360     3.5735945496    19.1859365699
CU      7.3272801636     5.7048456316    19.1865123504
CU      4.8693762928     1.4457550792    19.1929318633
CU      3.6398776263     3.5737594203    19.1874385764
CU      6.0966381892     3.5744869451    19.1602058049
CU      8.5442533797     5.0101907836    21.2915344930
CU      7.3069640319     2.8825325740    21.2574918391
CU      6.0836604104     5.0040453688    21.2456107279
CU      6.0854808102     0.7586268297    21.3137197080
CU      3.6275311189     5.0095299053    21.2930343676
CU      4.8657567556     2.8848122801    21.2676246535
CU      2.4009225495     2.8903583493    21.2792049890
CU      3.6389059086     0.7484802750    21.2789227001
CU      1.1620204518     0.7485882737    21.2731128061
CU      3.5992824464     2.1739920484    23.3107370678
CU      6.0714447747     2.1544755685    23.3652220944
CU      4.8052896243     4.3391437724    23.3190297230
CU      2.3855158766     0.0814320389    23.2939280783
CU      1.1721756900     2.1732172299    23.3071397544
CU      4.8466677690     0.0623779385    23.4026180392
CU      2.3858972158     4.3146081197    23.3921375163
CU     -0.0729890896     0.0610071778    23.3950005353
CU      7.3417572212     4.3398489962    23.2941478409
O       6.0890325888     3.7190930442    24.6793308644
H       7.0793553748     4.5465949101    26.2848243185
H       5.2860542368     4.6746856247    26.3167126509
C       6.1343951035     4.0160893907    26.0890003630
O       7.1789745922     1.8820039010    26.6372600863
H       7.0992838387     1.5342010036    25.7232759512
C       6.0664226593     2.7337410795    26.9053410011
H       5.1154779925     2.2164542752    26.6633146243
C       6.0743206964     3.0694907437    28.3885203572
H       5.4065690385     3.9321623893    28.5719236038
H       7.1020501171     3.3575361416    28.6724392893
O       5.6325118500     1.9219442230    29.1202233027
H       5.8060720862     2.0753430554    30.0621909751
85
Step 2 | ATOMIC_POSITIONS (angstrom) | Cartesian Angstrom
NI      1.2286390390     0.7093535490     9.0128649340
NI      2.4572760100     2.8374169220     9.0128649340
NI      3.6859498400     4.9655441370     9.0128649340
NI      3.6859144660     0.7093535490     9.0128649340
NI      4.9145514370     2.8374169220     9.0128649340
NI      6.1432252670     4.9655441370     9.0128649340
NI      6.1432636120     0.7093535490     9.0128649340
NI      7.3719005830     2.8374169220     9.0128649340
NI      8.6005744130     4.9655441370     9.0128649340
NI      0.0000019230    -0.0000011100    11.0189462060
NI      1.2286511800     2.1280835430    11.0189462060
NI      2.4573004370     4.2561681970    11.0189462060
NI      2.4573019230    -0.0000011100    11.0189462060
NI      3.6859511800     2.1280835430    11.0189462060
NI      4.9146004370     4.2561681970    11.0189462060
NI      4.9146019230    -0.0000011100    11.0189462060
NI      6.1432511800     2.1280835430    11.0189462060
NI      7.3719004370     4.2561681970    11.0189462060
NI      2.4400590228     1.4201801053    13.0227434656
NI      3.6692482285     3.5482628092    13.0281702279
NI      4.8972712748     1.4211064433    13.0308727025
NI      4.8980348501     5.6761434084    13.0286754019
NI      7.3540573867     1.4208752947    13.0300202599
NI      6.1256404706     3.5484498498    13.0248667541
NI      8.5832182605     3.5486646964    13.0287550049
NI      7.3540522815     5.6768638294    13.0298171819
NI      9.8116514869     5.6768053142    13.0309917073
NI      8.5738193744     4.9715671602    15.0152167150
NI      7.3403741854     2.8436627792    15.0204988293
NI      6.1135408744     4.9674253714    15.0227249076
NI      3.6532308301     4.9710300654    15.0135450928
NI      6.1134232221     0.7092494690    15.0164437418
NI      4.8860471324     2.8436832998    15.0232066202
NI      2.4279312876     2.8389849012    15.0184274421
NI      3.6533287024     0.7148668593    15.0203618705
NI      1.2020301324     0.7147834051    15.0175802950
CU      3.6459751487     2.1396768229    17.0988329318
CU      1.1894711596     2.1401767733    17.0963383514
CU      2.4181708170     0.0130934153    17.0992827215
CU     -0.0409586558     0.0117434187    17.0985599279
CU      4.8719076327     4.2701561845    17.0923350282
CU      6.1034906717     2.1369746227    17.0933237856
CU      4.8779287904     0.0113608303    17.1027412839
CU      2.4180659045     4.2714635974    17.1003366282
CU      7.3350776550     4.2701814562    17.0934571148
CU      9.7826006387     5.7043545650    19.2092317534
CU      7.3243747224     1.4447771352    19.1879175478
CU      4.8655369355     5.7041667623    19.1832502043
CU      2.4114581859     1.4474925606    19.1959184172
CU      8.5553743080     3.5738398663    19.1859722667
CU      7.3271055551     5.7046156780    19.1863784521
CU      4.8691755999     1.4459399246    19.1929663654
CU      3.6395597581     3.5739250762    19.1875586297
CU      6.0964431661     3.5743499900    19.1603418280
CU      8.5444117815     5.0101948441    21.2916929461
CU      7.3067616823     2.8827595416    21.2577159785
CU      6.0837169324     5.0037103742    21.2455587285
CU      6.0856335801     0.7589484303    21.3133642033
CU      3.6279991048     5.0093316151    21.2936142065
CU      4.8657760462     2.8848864001    21.2673035084
CU      2.4007273817     2.8902600847    21.2791926288
CU      3.6387944422     0.7483891392    21.2792218107
CU      1.1619029603     0.7485299460    21.2733112585
CU      3.5995355455     2.1740906903    23.3105260450
CU      6.0718481810     2.1547605683    23.3653757578
CU      4.8047043958     4.3395862799    23.3185418146
CU      2.3857889552     0.0816299794    23.2935279026
CU      1.1727560153     2.1732767821    23.3074412224
CU      4.8470383111     0.0624953124    23.4021572303
CU      2.3867265115     4.3146860183    23.3916372814
CU     -0.0723932655     0.0607331835    23.3948441019
CU      7.3423160612     4.3400367779    23.2945810640
O       6.0896042861     3.7185841840    24.6789845615
H       7.0789682533     4.5463966460    26.2850977663
H       5.2859535899     4.6746591253    26.3172501567
C       6.1342122392     4.0156582153    26.0888955125
O       7.1796304489     1.8815669534    26.6374949768
H       7.0988432980     1.5338019561    25.7232923342
C       6.0667298616     2.7329817195    26.9055703331
H       5.1155359567     2.2161170403    26.6635110846
C       6.0740377012     3.0685869968    28.3887897023
H       5.4064537440     3.9319103122    28.5712071055
H       7.1019139933     3.3570850563    28.6721499053
O       5.6323095958     1.9208760561    29.1203197119
H       5.8062804329     2.0754677971    30.0622610862
85
Step 3 | ATOMIC_POSITIONS (angstrom) | Cartesian Angstrom
NI      1.2286390390     0.7093535490     9.0128649340
NI      2.4572760100     2.8374169220     9.0128649340
NI      3.6859498400     4.9655441370     9.0128649340
NI      3.6859144660     0.7093535490     9.0128649340
NI      4.9145514370     2.8374169220     9.0128649340
NI      6.1432252670     4.9655441370     9.0128649340
NI      6.1432636120     0.7093535490     9.0128649340
NI      7.3719005830     2.8374169220     9.0128649340
NI      8.6005744130     4.9655441370     9.0128649340
NI      0.0000019230    -0.0000011100    11.0189462060
NI      1.2286511800     2.1280835430    11.0189462060
NI      2.4573004370     4.2561681970    11.0189462060
NI      2.4573019230    -0.0000011100    11.0189462060
NI      3.6859511800     2.1280835430    11.0189462060
NI      4.9146004370     4.2561681970    11.0189462060
NI      4.9146019230    -0.0000011100    11.0189462060
NI      6.1432511800     2.1280835430    11.0189462060
NI      7.3719004370     4.2561681970    11.0189462060
NI      2.4404439825     1.4203441646    13.0230157732
NI      3.6693167001     3.5485167774    13.0281394502
NI      4.8978274018     1.4208916815    13.0306255396
NI      4.8981075876     5.6764340311    13.0285557148
NI      7.3544616951     1.4206701432    13.0297865284
NI      6.1261411660     3.5484880447    13.0256896156
NI      8.5837865210     3.5488672137    13.0285914841
NI      7.3547192573     5.6768922540    13.0295404304
NI      9.8120425911     5.6768675870    13.0293979570
NI      8.5746503964     4.9719025266    15.0151365318
NI      7.3413642774     2.8435677036    15.0200624805
NI      6.1140772891     4.9680832657    15.0216600613
NI      3.6534524685     4.9714665725    15.0135001681
NI      6.1140109710     0.7092001295    15.0164220403
NI      4.8862583962     2.8436337945    15.0221515079
NI      2.4284064581     2.8390850053    15.0193567668
NI      3.6538312316     0.7151093241    15.0207521000
NI      1.2026039237     0.7151188289    15.0184303245
CU      3.6465596681     2.1400903111    17.0988414551
CU      1.1895517373     2.1404155067    17.0966517187
CU      2.4183031838     0.0133141039    17.0989366684
CU     -0.0409444583     0.0118745330    17.0985736481
CU      4.8719812270     4.2706598713    17.0926919908
CU      6.1037550103     2.1372766172    17.0936472801
CU      4.8778059701     0.0118710630    17.1020109317
CU      2.4183845486     4.2716369777    17.1002792703
CU      7.3355564839     4.2706348513    17.0933997305
CU      9.7826305998     5.7045119065    19.2084238242
CU      7.3241878115     1.4449712000    19.1882628674
CU      4.8652514055     5.7041756693    19.1834642641
CU      2.4111339975     1.4474557661    19.1962396798
CU      8.5551412777     3.5741892226    19.1860461898
CU      7.3268434359     5.7043519078    19.1861761018
CU      4.8688044348     1.4461501407    19.1929954927
CU      3.6390600259     3.5741731911    19.1877661849
CU      6.0961325093     3.5741861740    19.1605178048
CU      8.5447112136     5.0102477676    21.2918715981
CU      7.3065353852     2.8830962825    21.2581228175
CU      6.0838625724     5.0032654907    21.2455019340
CU      6.0858580464     0.7593711055    21.3128361128
CU      3.6285689695     5.0091078292    21.2942834872
CU      4.8657569527     2.8849384284    21.2668498479
CU      2.4004381874     2.8901147751    21.2791607348
CU      3.6386610098     0.7482426957    21.2795789608
CU      1.1617309383     0.7484546700    21.2736072174
CU      3.6000337885     2.1742611662    23.3102023156
CU      6.0725105001     2.1551493072    23.3655682152
CU      4.8042480030     4.3400988688    23.3179446480
CU      2.3862698296     0.0818553840    23.2929640437
CU      1.1736480317     2.1733982488    23.3079335556
CU      4.8477246588     0.0627133688    23.4014496106
CU      2.3878693418     4.3148037587    23.3909039154
CU     -0.0715305540     0.0605249389    23.3946364679
CU      7.3432082640     4.3403619164    23.2952357384
O       6.0903165403     3.7179354452    24.6787320914
H       7.0783288915     4.5460286417    26.2855059456
H       5.2859121599     4.6743263720    26.3179232028
C       6.1339885234     4.0148556557    26.0889420655
O       7.1804048697     1.8808163970    26.6375236912
H       7.0982544176     1.5331389618    25.7235878494
C       6.0671151315     2.7319606123    26.9057996080
H       5.1157309072     2.2153918652    26.6638002042
C       6.0736362563     3.0673452112    28.3888264723
H       5.4063241036     3.9311623651    28.5701171836
H       7.1015942266     3.3562141932    28.6718073161
O       5.6321423486     1.9194887520    29.1208297302
H       5.8065070605     2.0754579694    30.0621777543
85
Step 4 | ATOMIC_POSITIONS (angstrom) | Cartesian Angstrom
NI      1.2286390390     0.7093535490     9.0128649340
NI      2.4572760100     2.8374169220     9.0128649340
NI      3.6859498400     4.9655441370     9.0128649340
NI      3.6859144660     0.7093535490     9.0128649340
NI      4.9145514370     2.8374169220     9.0128649340
NI      6.1432252670     4.9655441370     9.0128649340
NI      6.1432636120     0.7093535490     9.0128649340
NI      7.3719005830     2.8374169220     9.0128649340
NI      8.6005744130     4.9655441370     9.0128649340
NI      0.0000019230    -0.0000011100    11.0189462060
NI      1.2286511800     2.1280835430    11.0189462060
NI      2.4573004370     4.2561681970    11.0189462060
NI      2.4573019230    -0.0000011100    11.0189462060
NI      3.6859511800     2.1280835430    11.0189462060
NI      4.9146004370     4.2561681970    11.0189462060
NI      4.9146019230    -0.0000011100    11.0189462060
NI      6.1432511800     2.1280835430    11.0189462060
NI      7.3719004370     4.2561681970    11.0189462060
NI      2.4411099565     1.4206096011    13.0235044984
NI      3.6694951133     3.5488774254    13.0281201607
NI      4.8987004148     1.4206032300    13.0302445011
NI      4.8983276605     5.6769185486    13.0283991081
NI      7.3551884218     1.4203979567    13.0294659346
NI      6.1269601956     3.5485630090    13.0268702648
NI      8.5847292528     3.5491410449    13.0283834063
NI      7.3557635542     5.6769916067    13.0291211760
NI      9.8127150339     5.6769851951    13.0270311088
NI      8.5760146839     4.9724409520    15.0148991505
NI      7.3429177602     2.8434851933    15.0194568469
NI      6.1149745997     4.9690534817    15.0200984705
NI      3.6538921680     4.9721644141    15.0133701299
NI      6.1150100010     0.7091851177    15.0162920390
NI      4.8867340344     2.8436436131    15.0206364324
NI      2.4292206378     2.8393114768    15.0207426432
NI      3.6547075010     0.7155164793    15.0212460408
NI      1.2035226545     0.7156582482    15.0196737293
CU      3.6474362051     2.1407860280    17.0989223139
CU      1.1897424371     2.1408259900    17.0972424457
CU      2.4185256736     0.0137135452    17.0985025062
CU     -0.0408952726     0.0121827631    17.0986260911
CU      4.8722526408     4.2714268533    17.0930622050
CU      6.1042119577     2.1378592696    17.0940053585
CU      4.8777159546     0.0126749669    17.1009693650
CU      2.4188685164     4.2719676844    17.1002072845
CU      7.3362260593     4.2713311090    17.0931915998
CU      9.7825837286     5.7048165050    19.2072734978
CU      7.3239072996     1.4452948475    19.1887945143
CU      4.8648355179     5.7042280734    19.1838148785
CU      2.4106365667     1.4473971391    19.1967093407
CU      8.5547509751     3.5747057668    19.1861895919
CU      7.3264475961     5.7040624787    19.1858569958
CU      4.8681538595     1.4463801515    19.1929964934
CU      3.6382627665     3.5745438859    19.1880940302
CU      6.0956402357     3.5739945357    19.1607267427
CU      8.5452293814     5.0103995533    21.2920353011
CU      7.3063035641     2.8835979117    21.2588378738
CU      6.0841868109     5.0026710319    21.2454348707
CU      6.0861837079     0.7599514871    21.3120227974
CU      3.6292652503     5.0088721782    21.2950187552
CU      4.8656829151     2.8849240839    21.2661914880
CU      2.3999960868     2.8898839406    21.2790840107
CU      3.6385196428     0.7480028066    21.2799666730
CU      1.1614843175     0.7483765159    21.2740443970
CU      3.6009790059     2.1745298125    23.3096901068
CU      6.0736265597     2.1557056968    23.3657961563
CU      4.8041457755     4.3406846173    23.3172276455
CU      2.3871486961     0.0821189384    23.2921557500
CU      1.1750544620     2.1736381501    23.3087313445
CU      4.8489507800     0.0631138726    23.4003296404
CU      2.3895065538     4.3149996172    23.3898024472
CU     -0.0702306161     0.0604685365    23.3943327634
CU      7.3446522029     4.3409076837    23.2962743619
O       6.0912377707     3.7170610580    24.6786151187
H       7.0773960270     4.5453912171    26.2861987241
H       5.2859316868     4.6734016511    26.3188237564
C       6.1336316031     4.0135381123    26.0891304149
O       7.1813743857     1.8797185394    26.6376312413
H       7.0973964716     1.5318256327    25.7239415321
C       6.0675436280     2.7302359308    26.9059868867
H       5.1161646594     2.2139678747    26.6642007130
C       6.0733059544     3.0652237590    28.3887944766
H       5.4059835799     3.9297165733    28.5684482218
H       7.1009305908     3.3546372818    28.6713633718
O       5.6319062423     1.9175927013    29.1211209904
H       5.8069093981     2.0753492181    30.0625415138
85
Step 5 | ATOMIC_POSITIONS (angstrom) | Cartesian Angstrom
NI      1.2286390390     0.7093535490     9.0128649340
NI      2.4572760100     2.8374169220     9.0128649340
NI      3.6859498400     4.9655441370     9.0128649340
NI      3.6859144660     0.7093535490     9.0128649340
NI      4.9145514370     2.8374169220     9.0128649340
NI      6.1432252670     4.9655441370     9.0128649340
NI      6.1432636120     0.7093535490     9.0128649340
NI      7.3719005830     2.8374169220     9.0128649340
NI      8.6005744130     4.9655441370     9.0128649340
NI      0.0000019230    -0.0000011100    11.0189462060
NI      1.2286511800     2.1280835430    11.0189462060
NI      2.4573004370     4.2561681970    11.0189462060
NI      2.4573019230    -0.0000011100    11.0189462060
NI      3.6859511800     2.1280835430    11.0189462060
NI      4.9146004370     4.2561681970    11.0189462060
NI      4.9146019230    -0.0000011100    11.0189462060
NI      6.1432511800     2.1280835430    11.0189462060
NI      7.3719004370     4.2561681970    11.0189462060
NI      2.4421296305     1.4209899472    13.0242568667
NI      3.6698821904     3.5493055123    13.0281401422
NI      4.8999009677     1.4203123274    13.0297361917
NI      4.8988282573     5.6776205033    13.0282349101
NI      7.3563424388     1.4201314517    13.0291019369
NI      6.1281427235     3.5486954676    13.0282610449
NI      8.5860998590     3.5494397070    13.0281772243
NI      7.3571826514     5.6772179302    13.0285749355
NI      9.8137423897     5.6771831520    13.0240723113
NI      8.5779797447     4.9732053121    15.0143934409
NI      7.3450466927     2.8434980259    15.0187772219
NI      6.1163096948     4.9702811499    15.0181768395
NI      3.6546672576     4.9731407618    15.0130999430
NI      6.1165077801     0.7092831736    15.0159585083
NI      4.8876385512     2.8438107691    15.0188331968
NI      2.4304619124     2.8397437937    15.0225048900
NI      3.6560646975     0.7161221828    15.0217299657
NI      1.2048236865     0.7164213493    15.0212144182
CU      3.6485731517     2.1418158634    17.0991414918
CU      1.1901118482     2.1414644994    17.0982067620
CU      2.4188733071     0.0143507726    17.0980975533
CU     -0.0407646521     0.0127753532    17.0987537308
CU      4.8728608560     4.2724493645    17.0932471010
CU      6.1049046351     2.1388225719    17.0942413352
CU      4.8777734888     0.0137793406    17.0997303227
CU      2.4195123576     4.2725373709    17.1001468300
CU      7.3370244303     4.2722709509    17.0927156723
CU      9.7823650958     5.7053278353    19.2059041507
CU      7.3235296047     1.4457760098    19.1895049742
CU      4.8643215741     5.7043633104    19.1843033612
CU      2.4099743907     1.4473322297    19.1972968781
CU      8.5541714042     3.5753656150    19.1864326927
CU      7.3259323977     5.7038621086    19.1854141907
CU      4.8671870741     1.4465587284    19.1929112640
CU      3.6371749453     3.5750213008    19.1885230921
CU      6.0949663531     3.5738463401    19.1609047344
CU      8.5459875093     5.0107059348    21.2920624505
CU      7.3061877483     2.8842383132    21.2599365585
CU      6.0847710192     5.0020298193    21.2453883422
CU      6.0865887512     0.7606242474    21.3109426711
CU      3.6299377123     5.0087237496    21.2955360332
CU      4.8655340287     2.8847775661    21.2653922498
CU      2.3994323552     2.8895685530    21.2789528089
CU      3.6384393450     0.7476718085    21.2801999474
CU      1.1612077338     0.7483398364    21.2746080016
CU      3.6025393156     2.1748973801    23.3089790065
CU      6.0753002846     2.1563961535    23.3659828875
CU      4.8049494717     4.3411794998    23.3165689981
CU      2.3885736374     0.0823541928    23.2911927655
CU      1.1770128124     2.1740462665    23.3098609719
CU      4.8508649469     0.0637526252    23.3987922196
CU      2.3915553333     4.3152985852    23.3883867720
CU     -0.0684938764     0.0607773574    23.3939433074
CU      7.3466922828     4.3416956065    23.2977270573
O       6.0922203358     3.7160737104    24.6787776830
H       7.0761650912     4.5443424110    26.2872753623
H       5.2858303631     4.6716190459    26.3198885443
C       6.1334297135     4.0114896671    26.0895816388
O       7.1823596353     1.8781855821    26.6376663006
H       7.0963656130     1.5295549775    25.7243347042
C       6.0681260268     2.7278248552    26.9060831248
H       5.1167692479     2.2114136678    26.6646061681
C       6.0725849118     3.0625189386    28.3883581536
H       5.4055225755     3.9270593249    28.5661810296
H       7.1002001673     3.3522057730    28.6709974202
O       5.6318107107     1.9152875697    29.1222876667
H       5.8072828295     2.0747883945    30.0625200336
85
Step 6 | ATOMIC_POSITIONS (angstrom) | Cartesian Angstrom
NI      1.2286390390     0.7093535490     9.0128649340
NI      2.4572760100     2.8374169220     9.0128649340
NI      3.6859498400     4.9655441370     9.0128649340
NI      3.6859144660     0.7093535490     9.0128649340
NI      4.9145514370     2.8374169220     9.0128649340
NI      6.1432252670     4.9655441370     9.0128649340
NI      6.1432636120     0.7093535490     9.0128649340
NI      7.3719005830     2.8374169220     9.0128649340
NI      8.6005744130     4.9655441370     9.0128649340
NI      0.0000019230    -0.0000011100    11.0189462060
NI      1.2286511800     2.1280835430    11.0189462060
NI      2.4573004370     4.2561681970    11.0189462060
NI      2.4573019230    -0.0000011100    11.0189462060
NI      3.6859511800     2.1280835430    11.0189462060
NI      4.9146004370     4.2561681970    11.0189462060
NI      4.9146019230    -0.0000011100    11.0189462060
NI      6.1432511800     2.1280835430    11.0189462060
NI      7.3719004370     4.2561681970    11.0189462060
NI      2.4432204892     1.4213698049    13.0250371020
NI      3.6704534330     3.5496253683    13.0282120187
NI      4.9010376257     1.4201975497    13.0292827423
NI      4.8995690855     5.6783096639    13.0281407383
NI      7.3576185501     1.4200433199    13.0288524958
NI      6.1293296752     3.5488634126    13.0292121441
NI      8.5874709716     3.5496268018    13.0280787686
NI      7.3584897044     5.6775395231    13.0281043733
NI      9.8148435514     5.6774201695    13.0217484691
NI      8.5799262239     4.9739616200    15.0137009745
NI      7.3470395421     2.8436858530    15.0183476645
NI      6.1177070780     4.9713093443    15.0167013765
NI      3.6556314210     4.9740772612    15.0127394876
NI      6.1180677902     0.7095418571    15.0154552358
NI      4.8888105490     2.8441655276    15.0175390915
NI      2.4317924754     2.8403033725    15.0239526914
NI      3.6575361940     0.7167539104    15.0219456492
NI      1.2061112712     0.7171694541    15.0224283271
CU      3.6495456622     2.1428683469    17.0994649689
CU      1.1906094465     2.1421714373    17.0992750444
CU      2.4192734498     0.0150800502    17.0979544436
CU     -0.0405391540     0.0135432990    17.0989396696
CU      4.8736794173     4.2733953439    17.0930178937
CU      6.1056353672     2.1398918135    17.0941398931
CU      4.8780727681     0.0148117699    17.0988138162
CU      2.4201015599     4.2732428620    17.1001407703
CU      7.3376632299     4.2731554231    17.0920436387
CU      9.7819847105     5.7059136823    19.2048892488
CU      7.3231666190     1.4462857043    19.1901326856
CU      4.8639094303     5.7045590340    19.1847446447
CU      2.4093789323     1.4473166008    19.1977637625
CU      8.5535678057     3.5759270609    19.1867073461
CU      7.3254784823     5.7039012707    19.1849784015
CU      4.8662409418     1.4466079785    19.1926958775
CU      3.6362064948     3.5754393079    19.1888631457
CU      6.0943421727     3.5738595179    19.1609378271
CU      8.5467255732     5.0110898116    21.2918422885
CU      7.3063244923     2.8847799222    21.2610860503
CU      6.0854519695     5.0016500426    21.2454105715
CU      6.0869287285     0.7611124570    21.3099866003
CU      3.6302838233     5.0087745073    21.2954498789
CU      4.8653626928     2.8845417203    21.2647850327
CU      2.3990030324     2.8892926157    21.2788218963
CU      3.6384970414     0.7473837851    21.2800350546
CU      1.1610600656     0.7483845483    21.2751023612
CU      3.6043187029     2.1752448546    23.3082991731
CU      6.0770723486     2.1569647474    23.3659941634
CU      4.8067618599     4.3413432962    23.3162858476
CU      2.3901946423     0.0824515155    23.2904959406
CU      1.1789180466     2.1745172698    23.3109627613
CU      4.8529377144     0.0644467368    23.3973768405
CU      2.3933218106     4.3156349556    23.3871960841
CU     -0.0668625302     0.0614608528    23.3936074846
CU      7.3486738467     4.3424654711    23.2991215499
O       6.0929104449     3.7153523666    24.6792320103
H       7.0752544442     4.5431711057    26.2885133525
H       5.2856681911     4.6691764445    26.3206989770
C       6.1331949518     4.0094405571    26.0902053585
O       7.1830327896     1.8764267177    26.6372604639
H       7.0956130332     1.5268949263    25.7248515524
C       6.0683216308     2.7252563297    26.9059769069
H       5.1174530865     2.2083283577    26.6647682892
C       6.0723600190     3.0597224727    28.3879933793
H       5.4047542537     3.9240997543    28.5641580222
H       7.0994098130     3.3495785250    28.6708237039
O       5.6316250713     1.9132647635    29.1223750068
H       5.8077586298     2.0740923420    30.0634674417
85
Step 7 | ATOMIC_POSITIONS (angstrom) | Cartesian Angstrom
NI      1.2286390390     0.7093535490     9.0128649340
NI      2.4572760100     2.8374169220     9.0128649340
NI      3.6859498400     4.9655441370     9.0128649340
NI      3.6859144660     0.7093535490     9.0128649340
NI      4.9145514370     2.8374169220     9.0128649340
NI      6.1432252670     4.9655441370     9.0128649340
NI      6.1432636120     0.7093535490     9.0128649340
NI      7.3719005830     2.8374169220     9.0128649340
NI      8.6005744130     4.9655441370     9.0128649340
NI      0.0000019230    -0.0000011100    11.0189462060
NI      1.2286511800     2.1280835430    11.0189462060
NI      2.4573004370     4.2561681970    11.0189462060
NI      2.4573019230    -0.0000011100    11.0189462060
NI      3.6859511800     2.1280835430    11.0189462060
NI      4.9146004370     4.2561681970    11.0189462060
NI      4.9146019230    -0.0000011100    11.0189462060
NI      6.1432511800     2.1280835430    11.0189462060
NI      7.3719004370     4.2561681970    11.0189462060
NI      2.4450999144     1.4219925203    13.0262870035
NI      3.6717125236     3.5499861610    13.0284046880
NI      4.9027981483     1.4203285077    13.0286464299
NI      4.9011724893     5.6793802348    13.0280935966
NI      7.3598672894     1.4202189395    13.0286190514
NI      6.1312688036     3.5492033643    13.0300054487
NI      8.5896767285     3.5497707747    13.0280770310
NI      7.3604279829     5.6781974333    13.0274712304
NI      9.8167537016     5.6778733440    13.0190891918