85
Step 1 | ATOMIC_POSITIONS (angstrom) | Cartesian Angstrom
NI      1.2286390390     0.7093535490     9.0128649340
NI      2.4572760100     2.8374169220     9.0128649340
NI      3.6859498400     4.9655441370     9.0128649340
NI      3.6859144660     0.7093535490     9.0128649340
NI      4.9145514370     2.8374169220     9.0128649340
NI      6.1432252670     4.9655441370     9.0128649340
NI      6.1432636120     0.7093535490     9.0128649340
NI      7.3719005830     2.8374169220     9.0128649340
NI      8.6005744130     4.9655441370     9.0128649340
NI      0.0000019230    -0.0000011100    11.0189462060
NI      1.2286511800     2.1280835430    11.0189462060
NI      2.4573004370     4.2561681970    11.0189462060
NI      2.4573019230    -0.0000011100    11.0189462060
NI      3.6859511800     2.1280835430    11.0189462060
NI      4.9146004370     4.2561681970    11.0189462060
NI      4.9146019230    -0.0000011100    11.0189462060
NI      6.1432511800     2.1280835430    11.0189462060
NI      7.3719004370     4.2561681970    11.0189462060
NI      2.4509788631     1.4352880887    13.0278568676
NI      3.6792323853     3.5653010715    13.0326532558
NI      4.9108458895     1.4353985687    13.0310054606
NI      4.9084018068     5.6929861024    13.0315000878
NI      7.3651456535     1.4349736268    13.0324866654
NI      6.1366137402     3.5647343571    13.0270022815
NI      8.5946575759     3.5645732975    13.0295445965
NI      7.3666732657     5.6936488499    13.0274139833
NI      9.8239169976     5.6924744448    13.0285316537
NI      8.5908406189     5.0023329007    15.0206415948
NI      7.3555494605     2.8738966685    15.0168906164
NI      6.1311798631     4.9956432006    15.0168957088
NI      3.6717508063     5.0009565091    15.0241229076
NI      6.1317753699     0.7409640296    15.0293326039
NI      4.9074075710     2.8731656712    15.0185359230
NI      2.4437662586     2.8690797919    15.0207433499
NI      3.6723715332     0.7427875954    15.0214373067
NI      1.2165241052     0.7447257508    15.0260731397
CU      3.6675402431     2.1888131245    17.0939258858
CU      1.2051472691     2.1892971146    17.0960247171
CU      2.4351610872     0.0555721264    17.0977412913
CU     -0.0217977895     0.0606370313    17.1079429749
CU      4.8920970819     4.3159470475    17.1067590941
CU      6.1212934828     2.1907528735    17.1104934947
CU      4.8925453722     0.0595966048    17.1049131742
CU      2.4339101636     4.3176582590    17.1022180615
CU      7.3457225348     4.3152605338    17.1023950030
CU      9.7971629134     5.7623997551    19.2045361813
CU      7.3388628202     1.5075744435    19.1951191704
CU      4.8837487517     5.7606651969    19.1993038907
CU      2.4251242603     1.5027803142    19.1690209310
CU      8.5628407601     3.6335627807    19.1858317992
CU      7.3378885643     5.7598326015    19.1963005063
CU      4.8821042515     1.5054613000    19.1978336982
CU      3.6532440759     3.6326827708    19.1891918413
CU      6.1077960717     3.6371063520    19.2105917710
CU      8.5429153561     5.0651100268    21.2803069820
CU      7.3173112449     2.9476234154    21.2963380306
CU      6.0955612551     5.0733286563    21.3190935970
CU      6.0968394451     0.8249496156    21.2897705313
CU      3.6518531900     5.0648793858    21.2818886418
CU      4.8657309444     2.9423629942    21.3006784790
CU      2.4073191482     2.9358315767    21.2523498139
CU      3.6315783877     0.8126546877    21.2758037665
CU      1.1885469968     0.8164180734    21.2725972586
CU      3.6375381127     2.2497115271    23.3092833237
CU      6.0813497677     2.2151437836    23.3884227189
CU      4.8125178001     4.4039231165    23.3578182349
CU      2.3929941816     0.0955519936    23.3777693709
CU      1.1378185879     2.2589952841    23.3161484656
CU      4.8586223710     0.1018992805    23.3288510488
CU      2.3920902993     4.3845294008    23.2989802313
CU     -0.0729089672     0.1050595525    23.3228538634
CU      7.3155696007     4.3766697106    23.3992423601
O       5.7198533277     3.5550311921    24.7565835828
H       6.5739773574     4.6245636008    26.2252270538
H       4.7871844769     4.5142075517    26.2902376797
C       5.7120399451     3.9539095336    26.0892042308
O       6.8689677626     1.8671981947    26.6350974622
H       6.5670259261     1.3443577894    25.8626240116
C       5.8141066651     2.7474068840    27.0177641641
H       4.8486382258     2.2066890257    27.0293163377
C       6.0971961611     3.2614001126    28.4225825131
H       5.5240560716     4.1936032444    28.5903730066
H       7.1728821255     3.5026412331    28.4812903487
O       5.7332487552     2.2622420024    29.3785208789
H       6.0902373995     2.5264963694    30.2419407585
85
Step 2 | ATOMIC_POSITIONS (angstrom) | Cartesian Angstrom
NI      1.2286390390     0.7093535490     9.0128649340
NI      2.4572760100     2.8374169220     9.0128649340
NI      3.6859498400     4.9655441370     9.0128649340
NI      3.6859144660     0.7093535490     9.0128649340
NI      4.9145514370     2.8374169220     9.0128649340
NI      6.1432252670     4.9655441370     9.0128649340
NI      6.1432636120     0.7093535490     9.0128649340
NI      7.3719005830     2.8374169220     9.0128649340
NI      8.6005744130     4.9655441370     9.0128649340
NI      0.0000019230    -0.0000011100    11.0189462060
NI      1.2286511800     2.1280835430    11.0189462060
NI      2.4573004370     4.2561681970    11.0189462060
NI      2.4573019230    -0.0000011100    11.0189462060
NI      3.6859511800     2.1280835430    11.0189462060
NI      4.9146004370     4.2561681970    11.0189462060
NI      4.9146019230    -0.0000011100    11.0189462060
NI      6.1432511800     2.1280835430    11.0189462060
NI      7.3719004370     4.2561681970    11.0189462060
NI      2.4510161517     1.4353847896    13.0278374099
NI      3.6791561382     3.5651707671    13.0321581235
NI      4.9105873309     1.4353340728    13.0312671150
NI      4.9081474268     5.6930472803    13.0310902060
NI      7.3651545111     1.4348809294    13.0321457028
NI      6.1367315421     3.5646743855    13.0259790962
NI      8.5947557692     3.5647895177    13.0296769853
NI      7.3667915962     5.6933392804    13.0280396332
NI      9.8238591412     5.6924485006    13.0291895095
NI      8.5910434373     5.0022608395    15.0201444408
NI      7.3562741759     2.8733115770    15.0185503861
NI      6.1307372153     4.9963939569    15.0182373212
NI      3.6717186456     5.0011920282    15.0229359864
NI      6.1319410847     0.7404744575    15.0279539752
NI      4.9065903290     2.8731955447    15.0200903433
NI      2.4439174089     2.8688976494    15.0206043153
NI      3.6718594580     0.7429908532    15.0210762026
NI      1.2169063062     0.7445416998    15.0254363231
CU      3.6669919945     2.1884293856    17.0943282478
CU      1.2051986678     2.1892618845    17.0954240799
CU      2.4354387565     0.0561002912    17.0977736646
CU     -0.0223884927     0.0601021804    17.1079854985
CU      4.8918006932     4.3163728625    17.1062847722
CU      6.1211816736     2.1897874733    17.1095187759
CU      4.8927767483     0.0593069797    17.1050163599
CU      2.4339408118     4.3179189370    17.1021540206
CU      7.3468173652     4.3158924087    17.1020640673
CU      9.7967952371     5.7623731577    19.2043674017
CU      7.3393983565     1.5075216457    19.1951785219
CU      4.8842394939     5.7610217761    19.1988335419
CU      2.4248367681     1.5028114261    19.1724756192
CU      8.5633111332     3.6324979280    19.1864154343
CU      7.3371048441     5.7604837841    19.1964798184
CU      4.8811495131     1.5055502319    19.1974172963
CU      3.6532018523     3.6316737774    19.1891846580
CU      6.1076241221     3.6363441342    19.2074352649
CU      8.5422130801     5.0647638041    21.2800521611
CU      7.3145776390     2.9480758181    21.2937062209
CU      6.0957649082     5.0703208835    21.3136553852
CU      6.0969528748     0.8255407056    21.2892738974
CU      3.6513403256     5.0653000683    21.2790083159
CU      4.8694921428     2.9435936674    21.2946524038
CU      2.4074858716     2.9376341747    21.2569641190
CU      3.6333008514     0.8116112982    21.2793051044
CU      1.1866746494     0.8149795177    21.2761042904
CU      3.6199754959     2.2394141749    23.3060672341
CU      6.0830974234     2.1990421290    23.3804778773
CU      4.7954069837     4.4171300243    23.3333661157
CU      2.3942479864     0.1144954311    23.3703571309
CU      1.1548794032     2.2495877625    23.3179970573
CU      4.8531529411     0.1029835740    23.3355345857
CU      2.3871486320     4.3777527151    23.3085353112
CU     -0.0688280666     0.1112100588    23.3308377687
CU      7.3201452767     4.3792313516    23.3912453660
O       5.7330213988     3.5495487037    24.7487898147
H       6.5753354845     4.6270356684    26.2316525719
H       4.7875923221     4.5142809610    26.2919044157
C       5.7157099916     3.9577711436    26.1118223073
O       6.8680434256     1.8649789469    26.6349803652
H       6.5701826307     1.3457112471    25.8628595244
C       5.8145986574     2.7482266067    27.0263649388
H       4.8482944215     2.2066227259    27.0279211900
C       6.0969532291     3.2596098884    28.4225838313
H       5.5238244861     4.1929781379    28.5901489493
H       7.1731375494     3.5026082099    28.4809803854
O       5.7333715598     2.2615358676    29.3788550780
H       6.0898128671     2.5258173315    30.2415441468
85
Step 3 | ATOMIC_POSITIONS (angstrom) | Cartesian Angstrom
NI      1.2286390390     0.7093535490     9.0128649340
NI      2.4572760100     2.8374169220     9.0128649340
NI      3.6859498400     4.9655441370     9.0128649340
NI      3.6859144660     0.7093535490     9.0128649340
NI      4.9145514370     2.8374169220     9.0128649340
NI      6.1432252670     4.9655441370     9.0128649340
NI      6.1432636120     0.7093535490     9.0128649340
NI      7.3719005830     2.8374169220     9.0128649340
NI      8.6005744130     4.9655441370     9.0128649340
NI      0.0000019230    -0.0000011100    11.0189462060
NI      1.2286511800     2.1280835430    11.0189462060
NI      2.4573004370     4.2561681970    11.0189462060
NI      2.4573019230    -0.0000011100    11.0189462060
NI      3.6859511800     2.1280835430    11.0189462060
NI      4.9146004370     4.2561681970    11.0189462060
NI      4.9146019230    -0.0000011100    11.0189462060
NI      6.1432511800     2.1280835430    11.0189462060
NI      7.3719004370     4.2561681970    11.0189462060
NI      2.4510500512     1.4355188376    13.0276172088
NI      3.6791592190     3.5649069903    13.0314683250
NI      4.9102021283     1.4353584553    13.0316332866
NI      4.9079045461     5.6930724787    13.0304819467
NI      7.3651750478     1.4348740510    13.0316655478
NI      6.1369019058     3.5645463434    13.0249338405
NI      8.5947906710     3.5650033164    13.0298929607
NI      7.3668333364     5.6928516335    13.0289186975
NI      9.8237461337     5.6924191213    13.0299888812
NI      8.5912550303     5.0021310565    15.0194169594
NI      7.3570352390     2.8726184528    15.0206531155
NI      6.1301515144     4.9971891517    15.0200136713
NI      3.6717032910     5.0014394118    15.0212469251
NI      6.1321097911     0.7398744022    15.0259378039
NI      4.9056130504     2.8733051958    15.0221135210
NI      2.4441877814     2.8687148637    15.0203649787
NI      3.6712677429     0.7432656565    15.0206151355
NI      1.2173725169     0.7442582476    15.0245054818
CU      3.6661391609     2.1878969170    17.0950987488
CU      1.2053334502     2.1890588734    17.0949230788
CU      2.4357213458     0.0569336966    17.0980135535
CU     -0.0230764218     0.0594346134    17.1079246124
CU      4.8914371426     4.3168887656    17.1055262609
CU      6.1210335432     2.1884837072    17.1080747226
CU      4.8930473669     0.0589681458    17.1050612133
CU      2.4340646019     4.3181476683    17.1020932135
CU      7.3482436533     4.3166760192    17.1016368835
CU      9.7961753612     5.7623078495    19.2040633022
CU      7.3400868404     1.5072169722    19.1951367449
CU      4.8846818689     5.7615588086    19.1978545006
CU      2.4243389165     1.5028666851    19.1780142180
CU      8.5640167589     3.6311434169    19.1873084424
CU      7.3362324366     5.7612973132    19.1966097466
CU      4.8798696129     1.5053234496    19.1967038929
CU      3.6528562645     3.6304245020    19.1889759333
CU      6.1076351571     3.6353010259    19.2016119249
CU      8.5419900179     5.0644996276    21.2804880808
CU      7.3121982027     2.9479966621    21.2908541685
CU      6.0965622866     5.0671380781    21.3050193317
CU      6.0969771309     0.8249610136    21.2887874970
CU      3.6481443615     5.0669418015    21.2739705931
CU      4.8735589630     2.9442981355    21.2864809401
CU      2.4075658848     2.9403669656    21.2625377378
CU      3.6360246926     0.8100231758    21.2828207809
CU      1.1838661538     0.8130533207    21.2800473753
CU      3.6006943564     2.2283124393    23.3020825988
CU      6.0831406229     2.1830167194    23.3713264483
CU      4.7828701457     4.4244625394    23.3109167318
CU      2.3957724198     0.1362219374    23.3597723062
CU      1.1747086388     2.2385960753    23.3207913648
CU      4.8467754582     0.1030408839    23.3455549074
CU      2.3794048802     4.3705295702    23.3225567147
CU     -0.0653693907     0.1190082294    23.3425099960
CU      7.3212436278     4.3800838378    23.3812007660
O       5.7480231407     3.5546201500    24.7401745913
H       6.5800683334     4.6330081872    26.2440984531
H       4.7869699420     4.5151183530    26.2951114939
C       5.7210081544     3.9556198045    26.1169572244
O       6.8683143990     1.8656145226    26.6412521749
H       6.5726023692     1.3466454682    25.8597913390
C       5.8146431585     2.7442528085    27.0332702373
H       4.8486598603     2.2076790586    27.0267754543
C       6.0978892380     3.2576237204    28.4292373004
H       5.5238686905     4.1912453919    28.5899074465
H       7.1729414282     3.5023265769    28.4806072132
O       5.7332637397     2.2598010109    29.3795976384
H       6.0895352228     2.5249758419    30.2422320421
85
Step 4 | ATOMIC_POSITIONS (angstrom) | Cartesian Angstrom
NI      1.2286390390     0.7093535490     9.0128649340
NI      2.4572760100     2.8374169220     9.0128649340
NI      3.6859498400     4.9655441370     9.0128649340
NI      3.6859144660     0.7093535490     9.0128649340
NI      4.9145514370     2.8374169220     9.0128649340
NI      6.1432252670     4.9655441370     9.0128649340
NI      6.1432636120     0.7093535490     9.0128649340
NI      7.3719005830     2.8374169220     9.0128649340
NI      8.6005744130     4.9655441370     9.0128649340
NI      0.0000019230    -0.0000011100    11.0189462060
NI      1.2286511800     2.1280835430    11.0189462060
NI      2.4573004370     4.2561681970    11.0189462060
NI      2.4573019230    -0.0000011100    11.0189462060
NI      3.6859511800     2.1280835430    11.0189462060
NI      4.9146004370     4.2561681970    11.0189462060
NI      4.9146019230    -0.0000011100    11.0189462060
NI      6.1432511800     2.1280835430    11.0189462060
NI      7.3719004370     4.2561681970    11.0189462060
NI      2.4510619756     1.4356197704    13.0272362400
NI      3.6792815256     3.5646057256    13.0309282415
NI      4.9098609929     1.4355053493    13.0319272950
NI      4.9078390016     5.6930266585    13.0299673232
NI      7.3652025755     1.4349984588    13.0312879250
NI      6.1370339117     3.5643937135    13.0245616273
NI      8.5947135763     3.5650772362    13.0301120522
NI      7.3667248045     5.6924135071    13.0296332313
NI      9.8236160123     5.6923983288    13.0304716820
NI      8.5913419130     5.0019797145    15.0188268121
NI      7.3573948913     2.8721953568    15.0220848395
NI      6.1297284196     4.9975580976    15.0213194709
NI      3.6717223934     5.0015357568    15.0198612856
NI      6.1321748815     0.7394876663    15.0242445224
NI      4.9049922902     2.8734553931    15.0235548908
NI      2.4444563274     2.8686342937    15.0201550740
NI      3.6709198918     0.7434742449    15.0203158701
NI      1.2176805350     0.7440150802    15.0237285771
CU      3.6653655205     2.1874683623    17.0959585122
CU      1.2055173032     2.1887310282    17.0949268384
CU      2.4358375101     0.0576988830    17.0984338773
CU     -0.0234860418     0.0589846624    17.1076712513
CU      4.8911693628     4.3172140574    17.1047330958
CU      6.1209169590     2.1874627458    17.1067607241
CU      4.8931976909     0.0587663060    17.1049249543
CU      2.4342378083     4.3181793595    17.1020192414
CU      7.3492948067     4.3171918678    17.1012599320
CU      9.7954590844     5.7622321466    19.2035500781
CU      7.3404852136     1.5067438456    19.1949829617
CU      4.8847440636     5.7619479847    19.1966395151
CU      2.4238386164     1.5029210788    19.1831708984
CU      8.5645716168     3.6302386657    19.1881140893
CU      7.3358377706     5.7617669035    19.1964969545
CU      4.8789749814     1.5047754819    19.1959369572
CU      3.6523306928     3.6296056094    19.1885391436
CU      6.1079175065     3.6344207938    19.1955054304
CU      8.5423998313     5.0644128374    21.2818694339
CU      7.3117511013     2.9471203043    21.2891934655
CU      6.0972322609     5.0655635460    21.2969965934
CU      6.0967861766     0.8231929410    21.2887952415
CU      3.6437106481     5.0689241833    21.2698166856
CU      4.8754560920     2.9440629736    21.2800112340
CU      2.4075293309     2.9427875515    21.2661550893
CU      3.6385750330     0.8086586332    21.2840930851
CU      1.1813836929     0.8115161666    21.2822135780
CU      3.5914316862     2.2232074459    23.2993316127
CU      6.0810469198     2.1760275341    23.3658186928
CU      4.7797595846     4.4233337150    23.2994004568
CU      2.3964229457     0.1471939578    23.3509070308
CU      1.1851050930     2.2325631604    23.3234421676
CU      4.8428145966     0.1015815378    23.3544877382
CU      2.3731208786     4.3671059045    23.3346385498
CU     -0.0643752136     0.1233117307    23.3525366895
CU      7.3176644677     4.3783507464    23.3737337316
O       5.7602028168     3.5656300942    24.7304942929
H       6.5819865883     4.6357735929    26.2561268748
H       4.7902518730     4.5130143690    26.2965859998
C       5.7248384050     3.9571245538    26.1131828792
O       6.8678851614     1.8603579355    26.6423318475
H       6.5769496540     1.3518461355    25.8625440857
C       5.8163410162     2.7436731877    27.0349222318
H       4.8474978720     2.2075268685    27.0267047105
C       6.0973210710     3.2561074430    28.4323911765
H       5.5238315519     4.1896936785    28.5906635070
H       7.1736080000     3.5018969824    28.4811787576
O       5.7335868049     2.2575768964    29.3834451587
H       6.0889519489     2.5234510311    30.2435414828
85
Step 5 | ATOMIC_POSITIONS (angstrom) | Cartesian Angstrom
NI      1.2286390390     0.7093535490     9.0128649340
NI      2.4572760100     2.8374169220     9.0128649340
NI      3.6859498400     4.9655441370     9.0128649340
NI      3.6859144660     0.7093535490     9.0128649340
NI      4.9145514370     2.8374169220     9.0128649340
NI      6.1432252670     4.9655441370     9.0128649340
NI      6.1432636120     0.7093535490     9.0128649340
NI      7.3719005830     2.8374169220     9.0128649340
NI      8.6005744130     4.9655441370     9.0128649340
NI      0.0000019230    -0.0000011100    11.0189462060
NI      1.2286511800     2.1280835430    11.0189462060
NI      2.4573004370     4.2561681970    11.0189462060
NI      2.4573019230    -0.0000011100    11.0189462060
NI      3.6859511800     2.1280835430    11.0189462060
NI      4.9146004370     4.2561681970    11.0189462060
NI      4.9146019230    -0.0000011100    11.0189462060
NI      6.1432511800     2.1280835430    11.0189462060
NI      7.3719004370     4.2561681970    11.0189462060
NI      2.4510643727     1.4357654492    13.0263511431
NI      3.6796150407     3.5640116762    13.0300470077
NI      4.9092562025     1.4358870744    13.0323718900
NI      4.9078889881     5.6928751150    13.0290893867
NI      7.3652675122     1.4353399380    13.0306713146
NI      6.1372302241     3.5640854195    13.0245423761
NI      8.5944778452     3.5650754945    13.0305091863
NI      7.3663721272     5.6916647557    13.0307838455
NI      9.8233506312     5.6923599697    13.0310086622
NI      8.5913988473     5.0016686838    15.0178770428
NI      7.3577213675     2.8716506733    15.0240960529
NI      6.1291129935     4.9978605269    15.0232945176
NI      3.6717648430     5.0015653792    15.0175594678
NI      6.1321921329     0.7389543147    15.0213955228
NI      4.9041401725     2.8737437466    15.0256600827
NI      2.4449417453     2.8685522601    15.0198362496
NI      3.6704863550     0.7438060520    15.0199466471
NI      1.2181193620     0.7436215843    15.0224483365
CU      3.6639964634     2.1867537131    17.0976978399
CU      1.2059124544     2.1880066025    17.0955046983
CU      2.4359038477     0.0590481533    17.0994335938
CU     -0.0240034329     0.0583511158    17.1069080589
CU      4.8907194028     4.3176351082    17.1030954055
CU      6.1207288908     2.1857823162    17.1043298328
CU      4.8933530239     0.0585096836    17.1044140149
CU      2.4345770821     4.3180445818    17.1018145823
CU      7.3509385103     4.3178903339    17.1004992384
CU      9.7939337208     5.7620591711    19.2021959030
CU      7.3408285292     1.5057024818    19.1945922509
CU      4.8844169533     5.7624238272    19.1940138532
CU      2.4228940126     1.5030026212    19.1923441690
CU      8.5653819392     3.6290268349    19.1895487718
CU      7.3356196362     5.7622027051    19.1959326938
CU      4.8777750935     1.5034753767    19.1943704607
CU      3.6512479692     3.6285245491    19.1874215618
CU      6.1086991963     3.6328327646    19.1839562838
CU      8.5434171815     5.0642497096    21.2856637178
CU      7.3124913106     2.9446892159    21.2868577253
CU      6.0978754008     5.0638966142    21.2823505334
CU      6.0961493520     0.8190590964    21.2896701639
CU      3.6351093573     5.0724172232    21.2639688789
CU      4.8769970835     2.9430171035    21.2691888469
CU      2.4073656706     2.9468711940    21.2713941025
CU      3.6430886043     0.8063845811    21.2844949615
CU      1.1770766228     0.8090005667    21.2847756837
CU      3.5837406829     2.2193318731    23.2952145177
CU      6.0752301426     2.1703699426    23.3582908178
CU      4.7795845585     4.4158465802    23.2851583193
CU      2.3966030087     0.1567958874    23.3356512465
CU      1.1949144953     2.2261316842    23.3283160918
CU      4.8374433834     0.0975545324    23.3703306991
CU      2.3633964950     4.3641824345    23.3555361574
CU     -0.0644570083     0.1271657056    23.3696669217
CU      7.3073380198     4.3730685057    23.3619105384
O       5.7827731755     3.5909292194    24.7123174734
H       6.5838822146     4.6391331551    26.2775781446
H       4.7974833616     4.5079949399    26.2971185366
C       5.7337470979     3.9598735198    26.1040949660
O       6.8700766023     1.8564708211    26.6542212989
H       6.5818205580     1.3567684798    25.8597637788
C       5.8180273887     2.7419791882    27.0312044279
H       4.8466972666     2.2079155298    27.0270853962
C       6.0978075064     3.2528712649    28.4355039353
H       5.5232661425     4.1869710286    28.5930918756
H       7.1739448010     3.5005581964    28.4833645601
O       5.7330835914     2.2530045679    29.3872756011
H       6.0892627128     2.5213159018    30.2503139266
85
Step 6 | ATOMIC_POSITIONS (angstrom) | Cartesian Angstrom
NI      1.2286390390     0.7093535490     9.0128649340
NI      2.4572760100     2.8374169220     9.0128649340
NI      3.6859498400     4.9655441370     9.0128649340
NI      3.6859144660     0.7093535490     9.0128649340
NI      4.9145514370     2.8374169220     9.0128649340
NI      6.1432252670     4.9655441370     9.0128649340
NI      6.1432636120     0.7093535490     9.0128649340
NI      7.3719005830     2.8374169220     9.0128649340
NI      8.6005744130     4.9655441370     9.0128649340
NI      0.0000019230    -0.0000011100    11.0189462060
NI      1.2286511800     2.1280835430    11.0189462060
NI      2.4573004370     4.2561681970    11.0189462060
NI      2.4573019230    -0.0000011100    11.0189462060
NI      3.6859511800     2.1280835430    11.0189462060
NI      4.9146004370     4.2561681970    11.0189462060
NI      4.9146019230    -0.0000011100    11.0189462060
NI      6.1432511800     2.1280835430    11.0189462060
NI      7.3719004370     4.2561681970    11.0189462060
NI      2.4510461603     1.4358426823    13.0253016552
NI      3.6800294888     3.5634197093    13.0293294394
NI      4.9086982845     1.4363469069    13.0326420601
NI      4.9081230968     5.6926604114    13.0283436133
NI      7.3653505174     1.4357564471    13.0301768081
NI      6.1373466839     3.5637640360    13.0253101477
NI      8.5941786147     3.5649156058    13.0308643554
NI      7.3658675919     5.6910548122    13.0316576765
NI      9.8230604088     5.6923111039    13.0310527237
NI      8.5913597258     5.0013326955    15.0171188001
NI      7.3577221755     2.8713754564    15.0252596411
NI      6.1287424411     4.9977679044    15.0246431975
NI      3.6717714052     5.0014252110    15.0156235674
NI      6.1320852070     0.7386226944    15.0189730093
NI      4.9036012405     2.8739788960    15.0269759756
NI      2.4453693874     2.8684948142    15.0196650691
NI      3.6702701331     0.7440721458    15.0198324577
NI      1.2184221594     0.7433421253    15.0214218597
CU      3.6627784315     2.1861490458    17.0995428653
CU      1.2063350754     2.1872028802    17.0967831723
CU      2.4358100539     0.0602146601    17.1006515299
CU     -0.0242562269     0.0579656208    17.1056839522
CU      4.8902929488     4.3178223280    17.1011353665
CU      6.1205814362     2.1843596762    17.1018393072
CU      4.8933503283     0.0583787393    17.1034981129
CU      2.4348768484     4.3176919529    17.1014494278
CU      7.3522113879     4.3182461825    17.0995185877
CU      9.7921882308     5.7617997696    19.2003192057
CU      7.3405670725     1.5044878689    19.1941109881
CU      4.8834572802     5.7624708801    19.1909183353
CU      2.4219654473     1.5030290854    19.2005276353
CU      8.5658347611     3.6284238043    19.1908800773
CU      7.3360399523     5.7620065206    19.1948159073
CU      4.8772461324     1.5019552682    19.1925947787
CU      3.6501530710     3.6280322366    19.1859154397
CU      6.1096986435     3.6312400073    19.1728371114
CU      8.5441873393     5.0638636683    21.2910701810
CU      7.3144972919     2.9414530122    21.2849049024
CU      6.0973485248     5.0632916768    21.2681992604
CU      6.0951307137     0.8145462173    21.2919498808
CU      3.6274107745     5.0749450370    21.2614560978
CU      4.8764586960     2.9416104130    21.2596008453
CU      2.4070874573     2.9500864226    21.2753353083
CU      3.6470077578     0.8045688976    21.2830211248
CU      1.1732921286     0.8069795193    21.2859238576
CU      3.5862501833     2.2212716945    23.2922153424
CU      6.0676300905     2.1715037034    23.3535551076
CU      4.7821377889     4.4051548288    23.2764224936
CU      2.3954926806     0.1541402958    23.3218813149
CU      1.1937410418     2.2249719682    23.3329038967
CU      4.8341423545     0.0925148583    23.3850355479
CU      2.3566700194     4.3648370046    23.3741653158
CU     -0.0664972145     0.1257416518    23.3845839251
CU      7.2944506385     4.3662708651    23.3526144988
O       5.8076667236     3.6205437006    24.6981696645
H       6.5859736432     4.6417535639    26.2972425265
H       4.8050895895     4.5024451769    26.2942287010
C       5.7431193728     3.9607006027    26.0947847575
O       6.8704882580     1.8485168033    26.6605317598
H       6.5895327607     1.3641237693    25.8607573856
C       5.8192836003     2.7417772566    27.0254560384
H       4.8470695275     2.2088102727    27.0269455120
C       6.0969296490     3.2510551488    28.4347958755
H       5.5228237649     4.1833776390    28.5965184717
H       7.1737468647     3.4983548871    28.4866231219
O       5.7344591209     2.2503818274    29.3929556797
H       6.0882615204     2.5179030752    30.2546567775
85
Step 7 | ATOMIC_POSITIONS (angstrom) | Cartesian Angstrom
NI      1.2286390390     0.7093535490     9.0128649340
NI      2.4572760100     2.8374169220     9.0128649340
NI      3.6859498400     4.9655441370     9.0128649340
NI      3.6859144660     0.7093535490     9.0128649340
NI      4.9145514370     2.8374169220     9.0128649340
NI      6.1432252670     4.9655441370     9.0128649340
NI      6.1432636120     0.7093535490     9.0128649340
NI      7.3719005830     2.8374169220     9.0128649340
NI      8.6005744130     4.9655441370     9.0128649340
NI      0.0000019230    -0.0000011100    11.0189462060
NI      1.2286511800     2.1280835430    11.0189462060
NI      2.4573004370     4.2561681970    11.0189462060
NI      2.4573019230    -0.0000011100    11.0189462060
NI      3.6859511800     2.1280835430    11.0189462060
NI      4.9146004370     4.2561681970    11.0189462060
NI      4.9146019230    -0.0000011100    11.0189462060
NI      6.1432511800     2.1280835430    11.0189462060
NI      7.3719004370     4.2561681970    11.0189462060
NI      2.4510145360     1.4358328627    13.0242596407
NI      3.6804027698     3.5629321523    13.0288080459
NI      4.9082303245     1.4367517381    13.0326621808
NI      4.9084479540     5.6924320543    13.0278069256
NI      7.3654451805     1.4361164170    13.0298326148
NI      6.1373612792     3.5634729955    13.0266142543
NI      8.5939204716     3.5646489950    13.0311086966
NI      7.3653235583     5.6906864633    13.0321484856
NI      9.8227725926     5.6922403329    13.0305982453