85
Step 1 | ATOMIC_POSITIONS (angstrom) | Cartesian Angstrom
NI      1.2286390390     0.7093535490     9.0128649340
NI      2.4572760100     2.8374169220     9.0128649340
NI      3.6859498400     4.9655441370     9.0128649340
NI      3.6859144660     0.7093535490     9.0128649340
NI      4.9145514370     2.8374169220     9.0128649340
NI      6.1432252670     4.9655441370     9.0128649340
NI      6.1432636120     0.7093535490     9.0128649340
NI      7.3719005830     2.8374169220     9.0128649340
NI      8.6005744130     4.9655441370     9.0128649340
NI      0.0000019230    -0.0000011100    11.0189462060
NI      1.2286511800     2.1280835430    11.0189462060
NI      2.4573004370     4.2561681970    11.0189462060
NI      2.4573019230    -0.0000011100    11.0189462060
NI      3.6859511800     2.1280835430    11.0189462060
NI      4.9146004370     4.2561681970    11.0189462060
NI      4.9146019230    -0.0000011100    11.0189462060
NI      6.1432511800     2.1280835430    11.0189462060
NI      7.3719004370     4.2561681970    11.0189462060
NI      2.4509788631     1.4352880887    13.0278568676
NI      3.6792323853     3.5653010715    13.0326532558
NI      4.9108458895     1.4353985687    13.0310054606
NI      4.9084018068     5.6929861024    13.0315000878
NI      7.3651456535     1.4349736268    13.0324866654
NI      6.1366137402     3.5647343571    13.0270022815
NI      8.5946575759     3.5645732975    13.0295445965
NI      7.3666732657     5.6936488499    13.0274139833
NI      9.8239169976     5.6924744448    13.0285316537
NI      8.5908406189     5.0023329007    15.0206415948
NI      7.3555494605     2.8738966685    15.0168906164
NI      6.1311798631     4.9956432006    15.0168957088
NI      3.6717508063     5.0009565091    15.0241229076
NI      6.1317753699     0.7409640296    15.0293326039
NI      4.9074075710     2.8731656712    15.0185359230
NI      2.4437662586     2.8690797919    15.0207433499
NI      3.6723715332     0.7427875954    15.0214373067
NI      1.2165241052     0.7447257508    15.0260731397
CU      3.6675402431     2.1888131245    17.0939258858
CU      1.2051472691     2.1892971146    17.0960247171
CU      2.4351610872     0.0555721264    17.0977412913
CU     -0.0217977895     0.0606370313    17.1079429749
CU      4.8920970819     4.3159470475    17.1067590941
CU      6.1212934828     2.1907528735    17.1104934947
CU      4.8925453722     0.0595966048    17.1049131742
CU      2.4339101636     4.3176582590    17.1022180615
CU      7.3457225348     4.3152605338    17.1023950030
CU      9.7971629134     5.7623997551    19.2045361813
CU      7.3388628202     1.5075744435    19.1951191704
CU      4.8837487517     5.7606651969    19.1993038907
CU      2.4251242603     1.5027803142    19.1690209310
CU      8.5628407601     3.6335627807    19.1858317992
CU      7.3378885643     5.7598326015    19.1963005063
CU      4.8821042515     1.5054613000    19.1978336982
CU      3.6532440759     3.6326827708    19.1891918413
CU      6.1077960717     3.6371063520    19.2105917710
CU      8.5429153561     5.0651100268    21.2803069820
CU      7.3173112449     2.9476234154    21.2963380306
CU      6.0955612551     5.0733286563    21.3190935970
CU      6.0968394451     0.8249496156    21.2897705313
CU      3.6518531900     5.0648793858    21.2818886418
CU      4.8657309444     2.9423629942    21.3006784790
CU      2.4073191482     2.9358315767    21.2523498139
CU      3.6315783877     0.8126546877    21.2758037665
CU      1.1885469968     0.8164180734    21.2725972586
CU      3.6375381127     2.2497115271    23.3092833237
CU      6.0813497677     2.2151437836    23.3884227189
CU      4.8125178001     4.4039231165    23.3578182349
CU      2.3929941816     0.0955519936    23.3777693709
CU      1.1378185879     2.2589952841    23.3161484656
CU      4.8586223710     0.1018992805    23.3288510488
CU      2.3920902993     4.3845294008    23.2989802313
CU     -0.0729089672     0.1050595525    23.3228538634
CU      7.3155696007     4.3766697106    23.3992423601
O       5.7198533277     3.5550311921    24.7565835828
H       6.5739773574     4.6245636008    26.2252270538
H       4.7871844769     4.5142075517    26.2902376797
C       5.7120399451     3.9539095336    26.0892042308
O       6.8689677626     1.8671981947    26.6350974622
H       6.5670259261     1.3443577894    25.8626240116
C       5.8141066651     2.7474068840    27.0177641641
H       4.8486382258     2.2066890257    27.0293163377
C       6.0971961611     3.2614001126    28.4225825131
H       5.5240560716     4.1936032444    28.5903730066
H       7.1728821255     3.5026412331    28.4812903487
O       5.7332487552     2.2622420024    29.3785208789
H       6.0902373995     2.5264963694    30.2419407585
