72
Step 1 | ATOMIC_POSITIONS (angstrom) | Cartesian Angstrom
Ni      0.0000000000     0.0000000000    10.0000000900
Ni      8.6005476670     2.1280836470    10.0000000900
Ni      9.8291973330     4.2561672950    10.0000000900
Ni      2.4572993330     0.0000000000    10.0000000900
Ni      3.6859490000     2.1280836470    10.0000000900
Ni      4.9145986670     4.2561672950    10.0000000900
Ni      4.9145986670     0.0000000000    10.0000000900
Ni      6.1432483330     2.1280836470    10.0000000900
Ni      7.3718980000     4.2561672950    10.0000000900
Ni      1.6381995390     1.4187224170    12.0063763950
Ni      2.8668492300     3.5468061070    12.0063763950
Ni      4.0954988850     5.6748897330    12.0063763950
Ni      4.0954988480     1.4187224170    12.0063763950
Ni      5.3241485390     3.5468061070    12.0063763950
Ni      6.5527981940     5.6748897330    12.0063763950
Ni      6.5527982300     1.4187224170    12.0063763950
Ni      7.7814479220     3.5468061070    12.0063763950
Ni      9.0100975760     5.6748897330    12.0063763950
Ni      2.0476174469     0.7096496951    14.1641515430
Ni      3.2762216336     2.8377057672    14.1641545761
Ni      4.5048861621     4.9657987416    14.1641331019
Ni      4.5048664270     0.7096234047    14.1641602538
Ni      5.7335294698     2.8377178899    14.1641421202
Ni      6.9622120891     4.9658209445    14.1641414148
Ni      6.9621890196     0.7096260535    14.1641258035
Ni      8.1908710630     2.8377295064    14.1641483065
Ni      9.4194725390     4.9657915898    14.1641281329
Ni      0.0007993688    -0.0013738702    16.3282390340
Ni      8.6013565544     2.1267094586    16.3282827166
Ni      9.8299801481     4.2547783144    16.3282725308
Ni      2.4581102981    -0.0013670156    16.3282716662
Ni      3.6867336777     2.1266922891    16.3282936694
Ni      4.9153990246     4.2547866290    16.3282535671
Ni      4.9153753908    -0.0013777264    16.3282882224
Ni      6.1440417936     2.1267049664    16.3282650795
Ni      7.3727016733     4.2547968144    16.3282608944
Cu      1.6393238368     1.4167856659    18.5438029128
Cu      2.8679655826     3.5448595579    18.5438183778
Cu      4.0966218116     5.6729515028    18.5437657235
Cu      4.0966142920     1.4167801581    18.5438341926
Cu      5.3252706133     3.5448641243    18.5437793052
Cu      6.5539229925     5.6729530139    18.5437874603
Cu      6.5539178145     1.4167845304    18.5437821930
Cu      7.7825692948     3.5448672065    18.5437778334
Cu      9.0112094753     5.6729516629    18.5438315111
Cu      2.0478926716     0.7091149846    20.7902308209
Cu      3.2765409056     2.8371975592    20.7902663023
Cu      4.5051918887     4.9652815502    20.7902095938
Cu      4.5051901676     0.7091148105    20.7902833388
Cu      5.7338409433     2.8371979867    20.7902267425
Cu      6.9624912361     4.9652819539    20.7902198629
Cu      6.9624905013     0.7091150595    20.7902174913
Cu      8.1911404455     2.8371983632    20.7902175773
Cu      9.4197884734     4.9652821552    20.7902762932
Cu      0.0002662198    -0.0004609375    23.0270349893
Cu      8.6008139030     2.1276224268    23.0270387637
Cu      9.8294632207     4.2557064931    23.0270947991
Cu      2.4575656782    -0.0004612276    23.0270384474
Cu      3.6862148999     2.1276228081    23.0270975268
Cu      4.9148648563     4.2557064963    23.0270505607
Cu      4.9148644911    -0.0004607364    23.0270993338
Cu      6.1435144868     2.1276227415    23.0270591658
Cu      7.3721643378     4.2557061259    23.0270407727
Cu      1.6410217476     1.4138343464    25.2850189618
Cu      2.8696713635     3.5419179927    25.2850631722
Cu      4.0983207605     5.6700016410    25.2850090005
Cu      4.0983210694     1.4138345047    25.2850796581
Cu      5.3269704293     3.5419179608    25.2850387312
Cu      6.5556208062     5.6700014572    25.2850051756
Cu      6.5556201089     1.4138343946    25.2850449371
Cu      7.7842700818     3.5419179948    25.2850182879
Cu      9.0129198704     5.6700016131    25.2850659304
72
Step 2 | ATOMIC_POSITIONS (angstrom) | Cartesian Angstrom
Ni      0.0000000000     0.0000000000    10.0000000900
Ni      8.6005476670     2.1280836470    10.0000000900
Ni      9.8291973330     4.2561672950    10.0000000900
Ni      2.4572993330     0.0000000000    10.0000000900
Ni      3.6859490000     2.1280836470    10.0000000900
Ni      4.9145986670     4.2561672950    10.0000000900
Ni      4.9145986670    -0.0000000000    10.0000000900
Ni      6.1432483330     2.1280836470    10.0000000900
Ni      7.3718980000     4.2561672950    10.0000000900
Ni      1.6381995390     1.4187224170    12.0063763950
Ni      2.8668492300     3.5468061070    12.0063763950
Ni      4.0954988850     5.6748897330    12.0063763950
Ni      4.0954988480     1.4187224170    12.0063763950
Ni      5.3241485390     3.5468061070    12.0063763950
Ni      6.5527981940     5.6748897330    12.0063763950
Ni      6.5527982300     1.4187224170    12.0063763950
Ni      7.7814479220     3.5468061070    12.0063763950
Ni      9.0100975760     5.6748897330    12.0063763950
Ni      2.0474762830     0.7099603274    14.1642779369
Ni      3.2760340958     2.8379847486    14.1642732281
Ni      4.5047143198     4.9660943168    14.1642626710
Ni      4.5046645906     0.7099131373    14.1642845434
Ni      5.7333421042     2.8380148542    14.1642772135
Ni      6.9620574876     4.9661441808    14.1642703147
Ni      6.9620156590     0.7099161600    14.1642575951
Ni      8.1907302619     2.8380359010    14.1642736875
Ni      9.4192827020     4.9660819015    14.1642394918
Ni      0.0016816266    -0.0028875413    16.3283381898
Ni      8.6022495906     2.1251924271    16.3283701564
Ni      9.8308455684     4.2532499064    16.3283587368
Ni      2.4590034395    -0.0028723015    16.3283532600
Ni      3.6875992982     2.1251584299    16.3283739881
Ni      4.9162805926     4.2532672628    16.3283484075
Ni      4.9162280891    -0.0028915578    16.3283727214
Ni      6.1449109131     2.1251870192    16.3283659177
Ni      7.3735823075     4.2532912614    16.3283509035
Cu      1.6405620401     1.4146527567    18.5435994565
Cu      2.8691955511     3.5427182271    18.5436246388
Cu      4.0978580780     5.6708187447    18.5435761428
Cu      4.0978413551     1.4146433187    18.5436294346
Cu      5.3265040713     3.5427281784    18.5435863321
Cu      6.5551593768     5.6708232989    18.5435840681
Cu      6.5551485703     1.4146518819    18.5435891847
Cu      7.7838022287     3.5427346406    18.5435790039
Cu      9.0124329386     5.6708204348    18.5436343347
Cu      2.0480530532     0.7088391467    20.7902649422
Cu      3.2766999450     2.8369208839    20.7903024536
Cu      4.5053521215     4.9650050663    20.7902460096
Cu      4.5053483806     0.7088391419    20.7903180481
Cu      5.7340001718     2.8369218227    20.7902619583
Cu      6.9626510991     4.9650061513    20.7902545220
Cu      6.9626497861     0.7088394282    20.7902527600
Cu      8.1913000604     2.8369224787    20.7902521543
Cu      9.4199465182     4.9650065646    20.7903129727
Cu      0.0005647476    -0.0009778618    23.0270944959
Cu      8.6011126173     2.1271050866    23.0270984746
Cu      9.8297614911     4.2551897260    23.0271555824
Cu      2.4578644516    -0.0009784768    23.0270981019
Cu      3.6865131460     2.1271059114    23.0271579421
Cu      4.9151633273     4.2551896570    23.0271093817
Cu      4.9151626152    -0.0009774497    23.0271601973
Cu      6.1438129220     2.1271057907    23.0271182971
Cu      7.3724630921     4.2551888931    23.0270999581
Cu      1.6441262972     1.4084573333    25.2849442802
Cu      2.8727755805     3.5365411407    25.2849902735
Cu      4.1014249527     5.6646246258    25.2849348586
Cu      4.1014251223     1.4084580107    25.2850055673
Cu      5.3300744080     3.5365410994    25.2849635796
Cu      6.5587257540     5.6646247537    25.2849315846
Cu      6.5587242141     1.4084574260    25.2849698641
Cu      7.7873745834     3.5365410375    25.2849438312
Cu      9.0160242107     5.6646248826    25.2849930397
72
Step 3 | ATOMIC_POSITIONS (angstrom) | Cartesian Angstrom
Ni      0.0000000000     0.0000000000    10.0000000900
Ni      8.6005476670     2.1280836470    10.0000000900
Ni      9.8291973330     4.2561672950    10.0000000900
Ni      2.4572993330     0.0000000000    10.0000000900
Ni      3.6859490000     2.1280836470    10.0000000900
Ni      4.9145986670     4.2561672950    10.0000000900
Ni      4.9145986670    -0.0000000000    10.0000000900
Ni      6.1432483330     2.1280836470    10.0000000900
Ni      7.3718980000     4.2561672950    10.0000000900
Ni      1.6381995390     1.4187224170    12.0063763950
Ni      2.8668492300     3.5468061070    12.0063763950
Ni      4.0954988850     5.6748897330    12.0063763950
Ni      4.0954988480     1.4187224170    12.0063763950
Ni      5.3241485390     3.5468061070    12.0063763950
Ni      6.5527981940     5.6748897330    12.0063763950
Ni      6.5527982300     1.4187224170    12.0063763950
Ni      7.7814479220     3.5468061070    12.0063763950
Ni      9.0100975760     5.6748897330    12.0063763950
Ni      2.0472111553     0.7104092642    14.1645570970
Ni      3.2757553292     2.8384427673    14.1645455968
Ni      4.5044376200     4.9665129250    14.1645542637
Ni      4.5044399623     0.7103171848    14.1645711318
Ni      5.7331177272     2.8384420893    14.1645751387
Ni      6.9618480444     4.9665401585    14.1645584867
Ni      6.9617689791     0.7103358765    14.1645532968
Ni      8.1904969307     2.8384831128    14.1645518283
Ni      9.4190347261     4.9664847234    14.1645091337
Ni      0.0029725995    -0.0051485574    16.3283381225
Ni      8.6035399801     2.1229546597    16.3283530931
Ni      9.8321359058     4.2509892747    16.3283336036
Ni      2.4603042526    -0.0051349980    16.3283534036
Ni      3.6888980589     2.1229136395    16.3283670220
Ni      4.9175787619     4.2510013944    16.3283482897
Ni      4.9175554865    -0.0051729077    16.3283649092
Ni      6.1462390731     2.1229248555    16.3283686108
Ni      7.3749114889     4.2510105970    16.3283366184
Cu      1.6424074994     1.4114544945    18.5433870305
Cu      2.8710391476     3.5395136925    18.5434111151
Cu      4.0997032363     5.6676095105    18.5433729583
Cu      4.0996960564     1.4114363175    18.5434265208
Cu      5.3283591598     3.5395166813    18.5433841303
Cu      6.5570165220     5.6676083712    18.5433831112
Cu      6.5570059881     1.4114438489    18.5433798331
Cu      7.7856606304     3.5395232103    18.5433585316
Cu      9.0142884025     5.6676057871    18.5434197635
Cu      2.0483020925     0.7084080590    20.7903019385
Cu      3.2769479766     2.8364889217    20.7903416805
Cu      4.5056012211     4.9645722339    20.7902847808
Cu      4.5055978322     0.7084071938    20.7903561441
Cu      5.7342508757     2.8364885668    20.7902997662
Cu      6.9629021858     4.9645727538    20.7902913835
Cu      6.9628997697     0.7084071650    20.7902889333
Cu      8.1915502896     2.8364904338    20.7902866156
Cu      9.4201953040     4.9645740548    20.7903503365
Cu      0.0010428986    -0.0018057325    23.0273517401
Cu      8.6015898836     2.1262776614    23.0273552622
Cu      9.8302388627     4.2543622756    23.0274144136
Cu      2.4583419782    -0.0018066192    23.0273557766
Cu      3.6869906071     2.1262790835    23.0274165548
Cu      4.9156415131     4.2543622274    23.0273665999
Cu      4.9156402052    -0.0018047056    23.0274192152
Cu      6.1442910876     2.1262783689    23.0273756746
Cu      7.3729407321     4.2543609985    23.0273568361
Cu      1.6487791991     1.4003980715    25.2846423159
Cu      2.8774297978     3.5284804804    25.2846906726
Cu      4.1060777351     5.6565649388    25.2846337678
Cu      4.1060806858     1.4003971992    25.2847039172
Cu      5.3347281269     3.5284806703    25.2846609695
Cu      6.5633791479     5.6565620985    25.2846304410
Cu      6.5633773233     1.4003982191    25.2846677823
Cu      7.7920275691     3.5284808165    25.2846416844
Cu      9.0206788913     5.6565635482    25.2846938013
72
Step 4 | ATOMIC_POSITIONS (angstrom) | Cartesian Angstrom
Ni      0.0000000000     0.0000000000    10.0000000900
Ni      8.6005476670     2.1280836470    10.0000000900
Ni      9.8291973330     4.2561672950    10.0000000900
Ni      2.4572993330     0.0000000000    10.0000000900
Ni      3.6859490000     2.1280836470    10.0000000900
Ni      4.9145986670     4.2561672950    10.0000000900
Ni      4.9145986670    -0.0000000000    10.0000000900
Ni      6.1432483330     2.1280836470    10.0000000900
Ni      7.3718980000     4.2561672950    10.0000000900
Ni      1.6381995390     1.4187224170    12.0063763950
Ni      2.8668492300     3.5468061070    12.0063763950
Ni      4.0954988850     5.6748897330    12.0063763950
Ni      4.0954988480     1.4187224170    12.0063763950
Ni      5.3241485390     3.5468061070    12.0063763950
Ni      6.5527981940     5.6748897330    12.0063763950
Ni      6.5527982300     1.4187224170    12.0063763950
Ni      7.7814479220     3.5468061070    12.0063763950
Ni      9.0100975760     5.6748897330    12.0063763950
Ni      2.0468490837     0.7110456862    14.1650402634
Ni      3.2753744101     2.8390822827    14.1650175811
Ni      4.5040567382     4.9671256126    14.1650433538
Ni      4.5040880635     0.7109204125    14.1650535681
Ni      5.7327651462     2.8390690481    14.1650733769
Ni      6.9615170648     4.9671496220    14.1650429478
Ni      6.9614076974     0.7109465355    14.1650492820
Ni      8.1901564226     2.8391239282    14.1650324636
Ni      9.4186714067     4.9670899752    14.1649661303
Ni      0.0049235371    -0.0085350934    16.3282674272
Ni      8.6054861725     2.1195812740    16.3282623892
Ni      9.8340771662     4.2475937743    16.3282318664
Ni      2.4622616672    -0.0085244987    16.3282712364
Ni      3.6908481143     2.1195305429    16.3282749982
Ni      4.9195376544     4.2476087063    16.3282706869
Ni      4.9195204743    -0.0085755045    16.3282743198
Ni      6.1482158659     2.1195361917    16.3283007658
Ni      7.3768844712     4.2476081212    16.3282456133
Cu      1.6451766533     1.4066571348    18.5429152779
Cu      2.8738055997     3.5347071636    18.5429474708
Cu      4.1024761210     5.6628039132    18.5429209887
Cu      4.1024712421     1.4066297468    18.5429672828
Cu      5.3311396127     3.5347078199    18.5429296377
Cu      6.5597964591     5.6627957823    18.5429256891
Cu      6.5597868079     1.4066386912    18.5429204672
Cu      7.7884388046     3.5347129587    18.5428813495
Cu      9.0170616419     5.6627950727    18.5429540290
Cu      2.0486993457     0.7077199448    20.7905110026
Cu      3.2773441797     2.8358000043    20.7905549027
Cu      4.5059995998     4.9638823506    20.7904980324
Cu      4.5059953190     0.7077181074    20.7905685748
Cu      5.7346504486     2.8357981444    20.7905116483
Cu      6.9633016232     4.9638817691    20.7905019879
Cu      6.9632984621     0.7077181330    20.7904985247
Cu      8.1919483823     2.8358013659    20.7904927323
Cu      9.4205918989     4.9638850462    20.7905622550
Cu      0.0018005586    -0.0031176870    23.0279003543
Cu      8.6023464757     2.1249660798    23.0279030509
Cu      9.8309955620     4.2530509629    23.0279655553
Cu      2.4590989620    -0.0031188742    23.0279050115
Cu      3.6877473908     2.1249682661    23.0279674993
Cu      4.9163992428     4.2530507846    23.0279151438
Cu      4.9163971267    -0.0031158583    23.0279707796
Cu      6.1450487552     2.1249667731    23.0279244407
Cu      7.3736978016     4.2530489412    23.0279048358
Cu      1.6557555736     1.3883146336    25.2839884467
Cu      2.8844074290     3.5163956795    25.2840403682
Cu      4.1130536697     5.6444815084    25.2839811815
Cu      4.1130596743     1.3883118904    25.2840506979
Cu      5.3417049112     3.5163960263    25.2840062890
Cu      6.5703559153     5.6444753724    25.2839778264
Cu      6.5703535460     1.3883149824    25.2840137411
Cu      7.7990037258     3.5163965499    25.2839876820
Cu      9.0276569052     5.6444781270    25.2840438828
