72
Step 1 | ATOMIC_POSITIONS (angstrom) | Cartesian Angstrom
Ni      0.0000000000     0.0000000000    10.0000000900
Ni      8.6005476670     2.1280836470    10.0000000900
Ni      9.8291973330     4.2561672950    10.0000000900
Ni      2.4572993330     0.0000000000    10.0000000900
Ni      3.6859490000     2.1280836470    10.0000000900
Ni      4.9145986670     4.2561672950    10.0000000900
Ni      4.9145986670     0.0000000000    10.0000000900
Ni      6.1432483330     2.1280836470    10.0000000900
Ni      7.3718980000     4.2561672950    10.0000000900
Ni      1.6381995390     1.4187224170    12.0063763950
Ni      2.8668492300     3.5468061070    12.0063763950
Ni      4.0954988850     5.6748897330    12.0063763950
Ni      4.0954988480     1.4187224170    12.0063763950
Ni      5.3241485390     3.5468061070    12.0063763950
Ni      6.5527981940     5.6748897330    12.0063763950
Ni      6.5527982300     1.4187224170    12.0063763950
Ni      7.7814479220     3.5468061070    12.0063763950
Ni      9.0100975760     5.6748897330    12.0063763950
Ni      2.0476174469     0.7096496951    14.1641515430
Ni      3.2762216336     2.8377057672    14.1641545761
Ni      4.5048861621     4.9657987416    14.1641331019
Ni      4.5048664270     0.7096234047    14.1641602538
Ni      5.7335294698     2.8377178899    14.1641421202
Ni      6.9622120891     4.9658209445    14.1641414148
Ni      6.9621890196     0.7096260535    14.1641258035
Ni      8.1908710630     2.8377295064    14.1641483065
Ni      9.4194725390     4.9657915898    14.1641281329
Ni      0.0007993688    -0.0013738702    16.3282390340
Ni      8.6013565544     2.1267094586    16.3282827166
Ni      9.8299801481     4.2547783144    16.3282725308
Ni      2.4581102981    -0.0013670156    16.3282716662
Ni      3.6867336777     2.1266922891    16.3282936694
Ni      4.9153990246     4.2547866290    16.3282535671
Ni      4.9153753908    -0.0013777264    16.3282882224
Ni      6.1440417936     2.1267049664    16.3282650795
Ni      7.3727016733     4.2547968144    16.3282608944
Cu      1.6393238368     1.4167856659    18.5438029128
Cu      2.8679655826     3.5448595579    18.5438183778
Cu      4.0966218116     5.6729515028    18.5437657235
Cu      4.0966142920     1.4167801581    18.5438341926
Cu      5.3252706133     3.5448641243    18.5437793052
Cu      6.5539229925     5.6729530139    18.5437874603
Cu      6.5539178145     1.4167845304    18.5437821930
Cu      7.7825692948     3.5448672065    18.5437778334
Cu      9.0112094753     5.6729516629    18.5438315111
Cu      2.0478926716     0.7091149846    20.7902308209
Cu      3.2765409056     2.8371975592    20.7902663023
Cu      4.5051918887     4.9652815502    20.7902095938
Cu      4.5051901676     0.7091148105    20.7902833388
Cu      5.7338409433     2.8371979867    20.7902267425
Cu      6.9624912361     4.9652819539    20.7902198629
Cu      6.9624905013     0.7091150595    20.7902174913
Cu      8.1911404455     2.8371983632    20.7902175773
Cu      9.4197884734     4.9652821552    20.7902762932
Cu      0.0002662198    -0.0004609375    23.0270349893
Cu      8.6008139030     2.1276224268    23.0270387637
Cu      9.8294632207     4.2557064931    23.0270947991
Cu      2.4575656782    -0.0004612276    23.0270384474
Cu      3.6862148999     2.1276228081    23.0270975268
Cu      4.9148648563     4.2557064963    23.0270505607
Cu      4.9148644911    -0.0004607364    23.0270993338
Cu      6.1435144868     2.1276227415    23.0270591658
Cu      7.3721643378     4.2557061259    23.0270407727
Cu      1.6410217476     1.4138343464    25.2850189618
Cu      2.8696713635     3.5419179927    25.2850631722
Cu      4.0983207605     5.6700016410    25.2850090005
Cu      4.0983210694     1.4138345047    25.2850796581
Cu      5.3269704293     3.5419179608    25.2850387312
Cu      6.5556208062     5.6700014572    25.2850051756
Cu      6.5556201089     1.4138343946    25.2850449371
Cu      7.7842700818     3.5419179948    25.2850182879
Cu      9.0129198704     5.6700016131    25.2850659304
72
Step 2 | ATOMIC_POSITIONS (angstrom) | Cartesian Angstrom
Ni      0.0000000000     0.0000000000    10.0000000900
Ni      8.6005476670     2.1280836470    10.0000000900
Ni      9.8291973330     4.2561672950    10.0000000900
Ni      2.4572993330     0.0000000000    10.0000000900
Ni      3.6859490000     2.1280836470    10.0000000900
Ni      4.9145986670     4.2561672950    10.0000000900
Ni      4.9145986670    -0.0000000000    10.0000000900
Ni      6.1432483330     2.1280836470    10.0000000900
Ni      7.3718980000     4.2561672950    10.0000000900
Ni      1.6381995390     1.4187224170    12.0063763950
Ni      2.8668492300     3.5468061070    12.0063763950
Ni      4.0954988850     5.6748897330    12.0063763950
Ni      4.0954988480     1.4187224170    12.0063763950
Ni      5.3241485390     3.5468061070    12.0063763950
Ni      6.5527981940     5.6748897330    12.0063763950
Ni      6.5527982300     1.4187224170    12.0063763950
Ni      7.7814479220     3.5468061070    12.0063763950
Ni      9.0100975760     5.6748897330    12.0063763950
Ni      2.0474762830     0.7099603274    14.1642779369
Ni      3.2760340958     2.8379847486    14.1642732281
Ni      4.5047143198     4.9660943168    14.1642626710
Ni      4.5046645906     0.7099131373    14.1642845434
Ni      5.7333421042     2.8380148542    14.1642772135
Ni      6.9620574876     4.9661441808    14.1642703147
Ni      6.9620156590     0.7099161600    14.1642575951
Ni      8.1907302619     2.8380359010    14.1642736875
Ni      9.4192827020     4.9660819015    14.1642394918
Ni      0.0016816266    -0.0028875413    16.3283381898
Ni      8.6022495906     2.1251924271    16.3283701564
Ni      9.8308455684     4.2532499064    16.3283587368
Ni      2.4590034395    -0.0028723015    16.3283532600
Ni      3.6875992982     2.1251584299    16.3283739881
Ni      4.9162805926     4.2532672628    16.3283484075
Ni      4.9162280891    -0.0028915578    16.3283727214
Ni      6.1449109131     2.1251870192    16.3283659177
Ni      7.3735823075     4.2532912614    16.3283509035
Cu      1.6405620401     1.4146527567    18.5435994565
Cu      2.8691955511     3.5427182271    18.5436246388
Cu      4.0978580780     5.6708187447    18.5435761428
Cu      4.0978413551     1.4146433187    18.5436294346
Cu      5.3265040713     3.5427281784    18.5435863321
Cu      6.5551593768     5.6708232989    18.5435840681
Cu      6.5551485703     1.4146518819    18.5435891847
Cu      7.7838022287     3.5427346406    18.5435790039
Cu      9.0124329386     5.6708204348    18.5436343347
Cu      2.0480530532     0.7088391467    20.7902649422
Cu      3.2766999450     2.8369208839    20.7903024536
Cu      4.5053521215     4.9650050663    20.7902460096
Cu      4.5053483806     0.7088391419    20.7903180481
Cu      5.7340001718     2.8369218227    20.7902619583
Cu      6.9626510991     4.9650061513    20.7902545220
Cu      6.9626497861     0.7088394282    20.7902527600
Cu      8.1913000604     2.8369224787    20.7902521543
Cu      9.4199465182     4.9650065646    20.7903129727
Cu      0.0005647476    -0.0009778618    23.0270944959
Cu      8.6011126173     2.1271050866    23.0270984746
Cu      9.8297614911     4.2551897260    23.0271555824
Cu      2.4578644516    -0.0009784768    23.0270981019
Cu      3.6865131460     2.1271059114    23.0271579421
Cu      4.9151633273     4.2551896570    23.0271093817
Cu      4.9151626152    -0.0009774497    23.0271601973
Cu      6.1438129220     2.1271057907    23.0271182971
Cu      7.3724630921     4.2551888931    23.0270999581
Cu      1.6441262972     1.4084573333    25.2849442802
Cu      2.8727755805     3.5365411407    25.2849902735
Cu      4.1014249527     5.6646246258    25.2849348586
Cu      4.1014251223     1.4084580107    25.2850055673
Cu      5.3300744080     3.5365410994    25.2849635796
Cu      6.5587257540     5.6646247537    25.2849315846
Cu      6.5587242141     1.4084574260    25.2849698641
Cu      7.7873745834     3.5365410375    25.2849438312
Cu      9.0160242107     5.6646248826    25.2849930397
72
Step 3 | ATOMIC_POSITIONS (angstrom) | Cartesian Angstrom
Ni      0.0000000000     0.0000000000    10.0000000900
Ni      8.6005476670     2.1280836470    10.0000000900
Ni      9.8291973330     4.2561672950    10.0000000900
Ni      2.4572993330     0.0000000000    10.0000000900
Ni      3.6859490000     2.1280836470    10.0000000900
Ni      4.9145986670     4.2561672950    10.0000000900
Ni      4.9145986670    -0.0000000000    10.0000000900
Ni      6.1432483330     2.1280836470    10.0000000900
Ni      7.3718980000     4.2561672950    10.0000000900
Ni      1.6381995390     1.4187224170    12.0063763950
Ni      2.8668492300     3.5468061070    12.0063763950
Ni      4.0954988850     5.6748897330    12.0063763950
Ni      4.0954988480     1.4187224170    12.0063763950
Ni      5.3241485390     3.5468061070    12.0063763950
Ni      6.5527981940     5.6748897330    12.0063763950
Ni      6.5527982300     1.4187224170    12.0063763950
Ni      7.7814479220     3.5468061070    12.0063763950
Ni      9.0100975760     5.6748897330    12.0063763950
Ni      2.0472111553     0.7104092642    14.1645570970
Ni      3.2757553292     2.8384427673    14.1645455968
Ni      4.5044376200     4.9665129250    14.1645542637
Ni      4.5044399623     0.7103171848    14.1645711318
Ni      5.7331177272     2.8384420893    14.1645751387
Ni      6.9618480444     4.9665401585    14.1645584867
Ni      6.9617689791     0.7103358765    14.1645532968
Ni      8.1904969307     2.8384831128    14.1645518283
Ni      9.4190347261     4.9664847234    14.1645091337
Ni      0.0029725995    -0.0051485574    16.3283381225
Ni      8.6035399801     2.1229546597    16.3283530931
Ni      9.8321359058     4.2509892747    16.3283336036
Ni      2.4603042526    -0.0051349980    16.3283534036
Ni      3.6888980589     2.1229136395    16.3283670220
Ni      4.9175787619     4.2510013944    16.3283482897
Ni      4.9175554865    -0.0051729077    16.3283649092
Ni      6.1462390731     2.1229248555    16.3283686108
Ni      7.3749114889     4.2510105970    16.3283366184
Cu      1.6424074994     1.4114544945    18.5433870305
Cu      2.8710391476     3.5395136925    18.5434111151
Cu      4.0997032363     5.6676095105    18.5433729583
Cu      4.0996960564     1.4114363175    18.5434265208
Cu      5.3283591598     3.5395166813    18.5433841303
Cu      6.5570165220     5.6676083712    18.5433831112
Cu      6.5570059881     1.4114438489    18.5433798331
Cu      7.7856606304     3.5395232103    18.5433585316
Cu      9.0142884025     5.6676057871    18.5434197635
Cu      2.0483020925     0.7084080590    20.7903019385
Cu      3.2769479766     2.8364889217    20.7903416805
Cu      4.5056012211     4.9645722339    20.7902847808
Cu      4.5055978322     0.7084071938    20.7903561441
Cu      5.7342508757     2.8364885668    20.7902997662
Cu      6.9629021858     4.9645727538    20.7902913835
Cu      6.9628997697     0.7084071650    20.7902889333
Cu      8.1915502896     2.8364904338    20.7902866156
Cu      9.4201953040     4.9645740548    20.7903503365
Cu      0.0010428986    -0.0018057325    23.0273517401
Cu      8.6015898836     2.1262776614    23.0273552622
Cu      9.8302388627     4.2543622756    23.0274144136
Cu      2.4583419782    -0.0018066192    23.0273557766
Cu      3.6869906071     2.1262790835    23.0274165548
Cu      4.9156415131     4.2543622274    23.0273665999
Cu      4.9156402052    -0.0018047056    23.0274192152
Cu      6.1442910876     2.1262783689    23.0273756746
Cu      7.3729407321     4.2543609985    23.0273568361
Cu      1.6487791991     1.4003980715    25.2846423159
Cu      2.8774297978     3.5284804804    25.2846906726
Cu      4.1060777351     5.6565649388    25.2846337678
Cu      4.1060806858     1.4003971992    25.2847039172
Cu      5.3347281269     3.5284806703    25.2846609695
Cu      6.5633791479     5.6565620985    25.2846304410
Cu      6.5633773233     1.4003982191    25.2846677823
Cu      7.7920275691     3.5284808165    25.2846416844
Cu      9.0206788913     5.6565635482    25.2846938013
72
Step 4 | ATOMIC_POSITIONS (angstrom) | Cartesian Angstrom
Ni      0.0000000000     0.0000000000    10.0000000900
Ni      8.6005476670     2.1280836470    10.0000000900
Ni      9.8291973330     4.2561672950    10.0000000900
Ni      2.4572993330     0.0000000000    10.0000000900
Ni      3.6859490000     2.1280836470    10.0000000900
Ni      4.9145986670     4.2561672950    10.0000000900
Ni      4.9145986670    -0.0000000000    10.0000000900
Ni      6.1432483330     2.1280836470    10.0000000900
Ni      7.3718980000     4.2561672950    10.0000000900
Ni      1.6381995390     1.4187224170    12.0063763950
Ni      2.8668492300     3.5468061070    12.0063763950
Ni      4.0954988850     5.6748897330    12.0063763950
Ni      4.0954988480     1.4187224170    12.0063763950
Ni      5.3241485390     3.5468061070    12.0063763950
Ni      6.5527981940     5.6748897330    12.0063763950
Ni      6.5527982300     1.4187224170    12.0063763950
Ni      7.7814479220     3.5468061070    12.0063763950
Ni      9.0100975760     5.6748897330    12.0063763950
Ni      2.0468490837     0.7110456862    14.1650402634
Ni      3.2753744101     2.8390822827    14.1650175811
Ni      4.5040567382     4.9671256126    14.1650433538
Ni      4.5040880635     0.7109204125    14.1650535681
Ni      5.7327651462     2.8390690481    14.1650733769
Ni      6.9615170648     4.9671496220    14.1650429478
Ni      6.9614076974     0.7109465355    14.1650492820
Ni      8.1901564226     2.8391239282    14.1650324636
Ni      9.4186714067     4.9670899752    14.1649661303
Ni      0.0049235371    -0.0085350934    16.3282674272
Ni      8.6054861725     2.1195812740    16.3282623892
Ni      9.8340771662     4.2475937743    16.3282318664
Ni      2.4622616672    -0.0085244987    16.3282712364
Ni      3.6908481143     2.1195305429    16.3282749982
Ni      4.9195376544     4.2476087063    16.3282706869
Ni      4.9195204743    -0.0085755045    16.3282743198
Ni      6.1482158659     2.1195361917    16.3283007658
Ni      7.3768844712     4.2476081212    16.3282456133
Cu      1.6451766533     1.4066571348    18.5429152779
Cu      2.8738055997     3.5347071636    18.5429474708
Cu      4.1024761210     5.6628039132    18.5429209887
Cu      4.1024712421     1.4066297468    18.5429672828
Cu      5.3311396127     3.5347078199    18.5429296377
Cu      6.5597964591     5.6627957823    18.5429256891
Cu      6.5597868079     1.4066386912    18.5429204672
Cu      7.7884388046     3.5347129587    18.5428813495
Cu      9.0170616419     5.6627950727    18.5429540290
Cu      2.0486993457     0.7077199448    20.7905110026
Cu      3.2773441797     2.8358000043    20.7905549027
Cu      4.5059995998     4.9638823506    20.7904980324
Cu      4.5059953190     0.7077181074    20.7905685748
Cu      5.7346504486     2.8357981444    20.7905116483
Cu      6.9633016232     4.9638817691    20.7905019879
Cu      6.9632984621     0.7077181330    20.7904985247
Cu      8.1919483823     2.8358013659    20.7904927323
Cu      9.4205918989     4.9638850462    20.7905622550
Cu      0.0018005586    -0.0031176870    23.0279003543
Cu      8.6023464757     2.1249660798    23.0279030509
Cu      9.8309955620     4.2530509629    23.0279655553
Cu      2.4590989620    -0.0031188742    23.0279050115
Cu      3.6877473908     2.1249682661    23.0279674993
Cu      4.9163992428     4.2530507846    23.0279151438
Cu      4.9163971267    -0.0031158583    23.0279707796
Cu      6.1450487552     2.1249667731    23.0279244407
Cu      7.3736978016     4.2530489412    23.0279048358
Cu      1.6557555736     1.3883146336    25.2839884467
Cu      2.8844074290     3.5163956795    25.2840403682
Cu      4.1130536697     5.6444815084    25.2839811815
Cu      4.1130596743     1.3883118904    25.2840506979
Cu      5.3417049112     3.5163960263    25.2840062890
Cu      6.5703559153     5.6444753724    25.2839778264
Cu      6.5703535460     1.3883149824    25.2840137411
Cu      7.7990037258     3.5163965499    25.2839876820
Cu      9.0276569052     5.6444781270    25.2840438828
72
Step 5 | ATOMIC_POSITIONS (angstrom) | Cartesian Angstrom
Ni      0.0000000000     0.0000000000    10.0000000900
Ni      8.6005476670     2.1280836470    10.0000000900
Ni      9.8291973330     4.2561672950    10.0000000900
Ni      2.4572993330     0.0000000000    10.0000000900
Ni      3.6859490000     2.1280836470    10.0000000900
Ni      4.9145986670     4.2561672950    10.0000000900
Ni      4.9145986670    -0.0000000000    10.0000000900
Ni      6.1432483330     2.1280836470    10.0000000900
Ni      7.3718980000     4.2561672950    10.0000000900
Ni      1.6381995390     1.4187224170    12.0063763950
Ni      2.8668492300     3.5468061070    12.0063763950
Ni      4.0954988850     5.6748897330    12.0063763950
Ni      4.0954988480     1.4187224170    12.0063763950
Ni      5.3241485390     3.5468061070    12.0063763950
Ni      6.5527981940     5.6748897330    12.0063763950
Ni      6.5527982300     1.4187224170    12.0063763950
Ni      7.7814479220     3.5468061070    12.0063763950
Ni      9.0100975760     5.6748897330    12.0063763950
Ni      2.0463089883     0.7119954356    14.1658427718
Ni      3.2748053308     2.8400276856    14.1657995887
Ni      4.5034868556     4.9680345032    14.1658508047
Ni      4.5035706368     0.7118176502    14.1658537369
Ni      5.7322480114     2.8399899993    14.1658967730
Ni      6.9610311706     4.9680489358    14.1658480015
Ni      6.9608721265     0.7118578318    14.1658614430
Ni      8.1896531621     2.8400698288    14.1658220025
Ni      9.4181347938     4.9679815158    14.1657247738
Ni      0.0078428455    -0.0136054929    16.3280606763
Ni      8.6084055252     2.1145294614    16.3280239690
Ni      9.8369811367     4.2425084637    16.3279771855
Ni      2.4651978471    -0.0135948727    16.3280510464
Ni      3.6937679277     2.1144601020    16.3280394454
Ni      4.9224699440     4.2425255063    16.3280555009
Ni      4.9224603730    -0.0136690514    16.3280389589
Ni      6.1511712282     2.1144611135    16.3280950948
Ni      7.3798421843     4.2425148941    16.3280092779
Cu      1.6493353480     1.3994586710    18.5420800887
Cu      2.8779564642     3.5274951826    18.5421219599
Cu      4.1066360959     5.6555947452    18.5421179158
Cu      4.1066329352     1.3994190456    18.5421468977
Cu      5.3353093286     3.5274920459    18.5421215902
Cu      6.5639680603     5.6555797533    18.5421101286
Cu      6.5639554955     1.3994298506    18.5421045064
Cu      7.7926072651     3.5274977827    18.5420375899
Cu      9.0212204299     5.6555792432    18.5421261697
Cu      2.0493214769     0.7066435355    20.7909882777
Cu      3.2779642958     2.8347222572    20.7910386314
Cu      4.5066229299     4.9628030383    20.7909835391
Cu      4.5066168522     0.7066401940    20.7910517403
Cu      5.7352748679     2.8347180164    20.7909947030
Cu      6.9639263975     4.9628014943    20.7909828814
Cu      6.9639217002     0.7066402140    20.7909784800
Cu      8.1925711764     2.8347237860    20.7909658166
Cu      9.4212122863     4.9628074392    20.7910446600
Cu      0.0029903535    -0.0051782113    23.0289212938
Cu      8.6035352099     2.1229059773    23.0289225172
Cu      9.8321841918     4.2509912254    23.0289904613
Cu      2.4602882535    -0.0051797143    23.0289266623
Cu      3.6889360737     2.1229091321    23.0289920190
Cu      4.9175892425     4.2509906544    23.0289361622
Cu      4.9175860997    -0.0051755000    23.0289963048
Cu      6.1462386824     2.1229064945    23.0289455964
Cu      7.3748873516     4.2509880641    23.0289249383
Cu      1.6662141625     1.3702004664    25.2827525285
Cu      2.8948671821     3.4982795773    25.2828099138
Cu      4.1235114412     5.6263671609    25.2827472265
Cu      4.1235208663     1.3701951828    25.2828159760
Cu      5.3521634334     3.4982802758    25.2827693075
Cu      6.5808148272     5.6263572523    25.2827438526
Cu      6.5808118569     1.3702008071    25.2827776562
Cu      7.8094622350     3.4982811844    25.2827516524
Cu      9.0381173000     5.6263611453    25.2828138929
72
Step 6 | ATOMIC_POSITIONS (angstrom) | Cartesian Angstrom
Ni      0.0000000000     0.0000000000    10.0000000900
Ni      8.6005476670     2.1280836470    10.0000000900
Ni      9.8291973330     4.2561672950    10.0000000900
Ni      2.4572993330     0.0000000000    10.0000000900
Ni      3.6859490000     2.1280836470    10.0000000900
Ni      4.9145986670     4.2561672950    10.0000000900
Ni      4.9145986670    -0.0000000000    10.0000000900
Ni      6.1432483330     2.1280836470    10.0000000900
Ni      7.3718980000     4.2561672950    10.0000000900
Ni      1.6381995390     1.4187224170    12.0063763950
Ni      2.8668492300     3.5468061070    12.0063763950
Ni      4.0954988850     5.6748897330    12.0063763950
Ni      4.0954988480     1.4187224170    12.0063763950
Ni      5.3241485390     3.5468061070    12.0063763950
Ni      6.5527981940     5.6748897330    12.0063763950
Ni      6.5527982300     1.4187224170    12.0063763950
Ni      7.7814479220     3.5468061070    12.0063763950
Ni      9.0100975760     5.6748897330    12.0063763950
Ni      2.0455269209     0.7133821604    14.1671908426
Ni      3.2739740208     2.8413959339    14.1671286800
Ni      4.5026689697     4.9693798949    14.1672137296
Ni      4.5027871118     0.7131415204    14.1671960303
Ni      5.7314814279     2.8413502453    14.1672756494
Ni      6.9603009914     4.9693928393    14.1671887954
Ni      6.9600924876     0.7132011917    14.1672282515
Ni      8.1889129691     2.8414533742    14.1671499644
Ni      9.4173382935     4.9692985328    14.1670161650
Ni      0.0122547586    -0.0212601429    16.3276780314
Ni      8.6128215765     2.1068945183    16.3275926862
Ni      9.8413746944     4.2348354103    16.3275279073
Ni      2.4696278453    -0.0212430817    16.3276374802
Ni      3.6981733250     2.1068059285    16.3276105729
Ni      4.9268913834     4.2348609171    16.3276604608
Ni      4.9268882196    -0.0213470710    16.3276137903
Ni      6.1556180588     2.1068023808    16.3277137663
Ni      7.3842946506     4.2348427819    16.3275794312
Cu      1.6555853265     1.3886411685    18.5406669421
Cu      2.8841964405     3.5166648061    18.5407194492
Cu      4.1128855985     5.6447661260    18.5407493747
Cu      4.1128822437     1.3885901317    18.5407516985
Cu      5.3415663943     3.5166571690    18.5407469807
Cu      6.5702295617     5.6447456276    18.5407237796
Cu      6.5702136734     1.3885995284    18.5407223997
Cu      7.7988672605     3.5166619128    18.5406179529
Cu      9.0274686451     5.6447439947    18.5407245858
Cu      2.0502950414     0.7049587554    20.7918995827
Cu      3.2789353977     2.8330366399    20.7919596103
Cu      4.5075980215     4.9611142624    20.7919085091
Cu      4.5075891667     0.7049539483    20.7919727475
Cu      5.7362505327     2.8330283452    20.7919168149
Cu      6.9649029620     4.9611121067    20.7919013153
Cu      6.9648966257     0.7049529001    20.7918957716
Cu      8.1935457717     2.8330377188    20.7918717946
Cu      9.4221839986     4.9611218003    20.7919644266
Cu      0.0048629171    -0.0084212580    23.0306832114
Cu      8.6054065180     2.1196633316    23.0306817729
Cu      9.8340552656     4.2477494344    23.0307582311
Cu      2.4621601722    -0.0084229811    23.0306892768
Cu      3.6908070492     2.1196680256    23.0307591735
Cu      4.9194620310     4.2477479906    23.0306982724
Cu      4.9194574711    -0.0084172386    23.0307652028
Cu      6.1481112248     2.1196636079    23.0307079425
Cu      7.3767597254     4.2477444405    23.0306857734
Cu      1.6818913093     1.3430476311    25.2805464016
Cu      2.9105458081     3.4711247132    25.2806122076
Cu      4.1391874098     5.5992147763    25.2805442756
Cu      4.1392007138     1.3430394149    25.2806121798
Cu      5.3678400318     3.4711260383    25.2805620642
Cu      6.5964922958     5.5992004425    25.2805410156
Cu      6.5964882389     1.3430482289    25.2805716865
Cu      7.8251388865     3.4711274499    25.2805456730
Cu      9.0537961665     5.5992056141    25.2806169194
72
Step 7 | ATOMIC_POSITIONS (angstrom) | Cartesian Angstrom
Ni      0.0000000000     0.0000000000    10.0000000900
Ni      8.6005476670     2.1280836470    10.0000000900
Ni      9.8291973330     4.2561672950    10.0000000900
Ni      2.4572993330     0.0000000000    10.0000000900
Ni      3.6859490000     2.1280836470    10.0000000900
Ni      4.9145986670     4.2561672950    10.0000000900
Ni      4.9145986670    -0.0000000000    10.0000000900
Ni      6.1432483330     2.1280836470    10.0000000900
Ni      7.3718980000     4.2561672950    10.0000000900
Ni      1.6381995390     1.4187224170    12.0063763950
Ni      2.8668492300     3.5468061070    12.0063763950
Ni      4.0954988850     5.6748897330    12.0063763950
Ni      4.0954988480     1.4187224170    12.0063763950
Ni      5.3241485390     3.5468061070    12.0063763950
Ni      6.5527981940     5.6748897330    12.0063763950
Ni      6.5527982300     1.4187224170    12.0063763950
Ni      7.7814479220     3.5468061070    12.0063763950
Ni      9.0100975760     5.6748897330    12.0063763950
Ni      2.0444049380     0.7154288994    14.1693190687
Ni      3.2727685882     2.8433995994    14.1692268841
Ni      4.5014711808     4.9713763205    14.1693581176
Ni      4.5015935028     0.7151271395    14.1693017596
Ni      5.7303023155     2.8433710138    14.1694417919
Ni      6.9591964759     4.9714339767    14.1692999524
Ni      6.9589161452     0.7151947930    14.1693800373
Ni      8.1878174941     2.8435074144    14.1692545927
Ni      9.4161497527     4.9712776490    14.1690597737
Ni      0.0188843829    -0.0327533889    16.3269518420
Ni      8.6194705860     2.0954204005    16.3267957462
Ni      9.8479787012     4.2233196566    16.3267012541
Ni      2.4762934500    -0.0327179203    16.3268513525
Ni      3.7047920795     2.0953010416    16.3267977759
Ni      4.9335318264     4.2233571206    16.3269101421
Ni      4.9335061066    -0.0328502602    16.3268085388
Ni      6.1622614152     2.0953082563    16.3269862637
Ni      7.3909595383     4.2233535895    16.3267796930
Cu      1.6649978653     1.3723602952    18.5383489329
Cu      2.8935909018     3.5003685344    18.5384171186
Cu      4.1222933380     5.6284752952    18.5385006420
Cu      4.1222797809     1.3722984043    18.5384468350
Cu      5.3509745402     3.5003598782    18.5384833699
Cu      6.5796470369     5.6284559874    18.5384332923
Cu      6.5796196078     1.3723072835    18.5384561887
Cu      7.8082798107     3.5003666586    18.5382967476
Cu      9.0368617882     5.6284510093    18.5384230402
Cu      2.0517983505     0.7023588289    20.7935328335
Cu      3.2804346192     2.8304358058    20.7936076282
Cu      4.5091031454     4.9585090684    20.7935652283
Cu      4.5090880017     0.7023531112    20.7936206406
Cu      5.7377542107     2.8304221732    20.7935690931
Cu      6.9664083268     4.9585076996    20.7935468023
Cu      6.9664001417     0.7023496719    20.7935422298
Cu      8.1950491797     2.8304366122    20.7934994352
Cu      9.4236831071     4.9585221355    20.7936126038
Cu      0.0078050603    -0.0135168890    23.0335890411
Cu      8.6083472166     2.1145681937    23.0335825817
Cu      9.8369955897     4.2426556608    23.0336726956
Cu      2.4651017144    -0.0135185979    23.0335949182
Cu      3.6937469643     2.1145750752    23.0336719102
Cu      4.9224045971     4.2426528011    23.0336043964
Cu      4.9223977438    -0.0135108421    23.0336810604
Cu      6.1510530571     2.1145680515    23.0336142522
Cu      7.3797017060     4.2426481976    23.0335895102
Cu      1.7053921931     1.3023444255    25.2768166032
Cu      2.9340481105     3.4304191339    25.2768951069
Cu      4.1626865743     5.5585122258    25.2768194099
Cu      4.1627041576     1.3023326116    25.2768863328
Cu      5.3913394883     3.4304212640    25.2768309566
Cu      6.6199933429     5.5584928067    25.2768162549
Cu      6.6199879397     1.3023452112    25.2768421723
Cu      7.8486390951     3.4304230955    25.2768164297
Cu      9.0772987807     5.5584990973    25.2769008400
72
Step 8 | ATOMIC_POSITIONS (angstrom) | Cartesian Angstrom
Ni      0.0000000000     0.0000000000    10.0000000900
Ni      8.6005476670     2.1280836470    10.0000000900
Ni      9.8291973330     4.2561672950    10.0000000900
Ni      2.4572993330     0.0000000000    10.0000000900
Ni      3.6859490000     2.1280836470    10.0000000900
Ni      4.9145986670     4.2561672950    10.0000000900
Ni      4.9145986670    -0.0000000000    10.0000000900
Ni      6.1432483330     2.1280836470    10.0000000900
Ni      7.3718980000     4.2561672950    10.0000000900
Ni      1.6381995390     1.4187224170    12.0063763950
Ni      2.8668492300     3.5468061070    12.0063763950
Ni      4.0954988850     5.6748897330    12.0063763950
Ni      4.0954988480     1.4187224170    12.0063763950
Ni      5.3241485390     3.5468061070    12.0063763950
Ni      6.5527981940     5.6748897330    12.0063763950
Ni      6.5527982300     1.4187224170    12.0063763950
Ni      7.7814479220     3.5468061070    12.0063763950
Ni      9.0100975760     5.6748897330    12.0063763950
Ni      2.0427296069     0.7184691476    14.1726191845
Ni      3.2709771871     2.8463732874    14.1724775523
Ni      4.4996814340     4.9743326047    14.1726923119
Ni      4.4998431317     0.7180626532    14.1725632884
Ni      5.7285600081     2.8463510981    14.1728015652
Ni      6.9575717964     4.9744454089    14.1725833746
Ni      6.9571767156     0.7181381182    14.1727261028
Ni      8.1862051195     2.8465374983    14.1725295392
Ni      9.4144040271     4.9742032924    14.1722399231
Ni      0.0288466720    -0.0500348860    16.3256264957
Ni      8.6294667438     2.0781694035    16.3253648562
Ni      9.8579143943     4.2060107385    16.3252224305
Ni      2.4863035401    -0.0499671451    16.3254476711
Ni      3.7147402666     2.0780101267    16.3253536765