80
Step 1 | ATOMIC_POSITIONS (angstrom) | Cartesian Angstrom
Ni      1.2286497520     0.7093615510    11.2500000000
Ni      2.4572990100     2.8374462050    11.2500000000
Ni      3.6859482670     4.9655308580    11.2500000000
Ni      4.9145975240     7.0936155120    11.2500000000
Ni      3.6859497520     0.7093615510    11.2500000000
Ni      4.9145990100     2.8374462050    11.2500000000
Ni      6.1432482670     4.9655308580    11.2500000000
Ni      7.3718975240     7.0936155120    11.2500000000
Ni      6.1432497520     0.7093615510    11.2500000000
Ni      7.3718990100     2.8374462050    11.2500000000
Ni      8.6005482670     4.9655308580    11.2500000000
Ni      9.8291975240     7.0936155120    11.2500000000
Ni      8.6005497520     0.7093615510    11.2500000000
Ni      9.8291990100     2.8374462050    11.2500000000
Ni     11.0578482670     4.9655308580    11.2500000000
Ni     12.2864975240     7.0936155120    11.2500000000
Ni      9.8231926170     0.0024995240    13.3023445020
Ni     11.0518089830     2.1302240240    13.3047084140
Ni     12.2800508460     4.2570722560    13.3044621730
Ni     13.5092872810     6.3850384710    13.3032135990
Ni      2.4517697470     0.0021660600    13.3026623600
Ni      3.6803279060     2.1303359400    13.3041136820
Ni      4.9088074780     4.2579363990    13.3054287220
Ni      6.1372745400     6.3857876860    13.3032783460
Ni      4.9086517490     0.0018312680    13.3024059970
Ni      6.1374036900     2.1309748260    13.3056096280
Ni      7.3661494970     4.2582451230    13.3069521290
Ni      8.5943412640     6.3854189360    13.3048452030
Ni      7.3652045600     0.0023769350    13.3020218590
Ni      8.5942385870     2.1304695640    13.3043867890
Ni      9.8231946460     4.2572739590    13.3057508080
Ni     11.0517679490     6.3857120740    13.3033345670
Ni      2.4490340010     1.4222228900    15.3362210300
Ni      3.6772966340     3.5494520400    15.3385526490
Ni      4.9062018310     5.6779299860    15.3378107870
Ni      6.1346571370     7.8070605970    15.3335997660
Ni      4.9058225440     1.4219700120    15.3362205140
Ni      6.1346426160     3.5508505240    15.3401416950
Ni      7.3625330180     5.6784279340    15.3395242280
Ni      8.5915701700     7.8062468640    15.3354849980
Ni      7.3627070880     1.4224398610    15.3370387850
Ni      8.5913286880     3.5492678030    15.3408173340
Ni      9.8201850890     5.6778143970    15.3377748310
Ni     11.0486432900     7.8070022870    15.3347461740
Ni      9.8200953690     1.4222882770    15.3366655970
Ni     11.0486075170     3.5492992340    15.3407266610
Ni     12.2774144290     5.6772885480    15.3359640400
Ni     13.5061541410     7.8063455600    15.3319300910
Ni      1.2187910910     0.7145173250    17.3879335110
Ni      2.4472474040     2.8420654680    17.3934583510
Ni      3.6755426410     4.9714604160    17.3911200990
Ni      4.9045370410     7.0991000160    17.3858411420
Ni      3.6755273380     0.7130852300    17.3897672760
Ni      4.9036999830     2.8423805670    17.3934479200
Ni      6.1319552590     4.9726957520    17.3963329100
Ni      7.3614524680     7.0997442320    17.3897409240
Ni      6.1332850860     0.7119051780    17.3902533170
Ni      7.3623531400     2.8409773510    17.3961535170
Ni      8.5911690580     4.9716069240    17.3936889090
Ni      9.8197669710     7.1000576730    17.3889506800
Ni      8.5911411740     0.7131642410    17.3880086890
Ni      9.8198330200     2.8408219280    17.3957136840
Ni     11.0487030820     4.9704125330    17.3927697590
Ni     12.2763266390     7.0989938260    17.3852102910
O       6.0598811896     2.1110964080    20.1048818952
O       7.3838292030     4.2729984133    18.7990349926
O       5.1730747398     2.7473227291    22.7716988315
C       6.3034974025     3.3723323637    20.7699091527
C       7.5760053672     3.9842049770    20.1900520467
C       6.4552951445     3.1662750694    22.2759621687
H       5.4518513278     4.0584093685    20.5724794545
H       8.4311148986     3.2814538972    20.2723512435
H       7.8203268823     4.9201652058    20.7234895698
H       6.7747880086     4.1072015131    22.7698693061
H       7.2335879356     2.3972284169    22.4485155002
H       5.2611655184     1.7220113420    20.4907919093
H       3.3388987929     1.0214999220    18.6774397383
H       5.2357762162     2.6113019891    23.7290536713
O       2.3424593294     1.3383810388    18.9036178442
H       2.5132760020     2.3602539336    18.6625585066
80
Step 2 | ATOMIC_POSITIONS (angstrom) | Cartesian Angstrom
Ni      1.2286497520     0.7093615510    11.2500000000
Ni      2.4572990100     2.8374462050    11.2500000000
Ni      3.6859482670     4.9655308580    11.2500000000
Ni      4.9145975240     7.0936155120    11.2500000000
Ni      3.6859497520     0.7093615510    11.2500000000
Ni      4.9145990100     2.8374462050    11.2500000000
Ni      6.1432482670     4.9655308580    11.2500000000
Ni      7.3718975240     7.0936155120    11.2500000000
Ni      6.1432497520     0.7093615510    11.2500000000
Ni      7.3718990100     2.8374462050    11.2500000000
Ni      8.6005482670     4.9655308580    11.2500000000
Ni      9.8291975240     7.0936155120    11.2500000000
Ni      8.6005497520     0.7093615510    11.2500000000
Ni      9.8291990100     2.8374462050    11.2500000000
Ni     11.0578482670     4.9655308580    11.2500000000
Ni     12.2864975240     7.0936155120    11.2500000000
Ni      9.8231926170     0.0024995240    13.3023445020
Ni     11.0518089830     2.1302240240    13.3047084140
Ni     12.2800508460     4.2570722560    13.3044621730
Ni     13.5092872810     6.3850384710    13.3032135990
Ni      2.4517697470     0.0021660600    13.3026623600
Ni      3.6803279060     2.1303359400    13.3041136820
Ni      4.9088074780     4.2579363990    13.3054287220
Ni      6.1372745400     6.3857876860    13.3032783460
Ni      4.9086517490     0.0018312680    13.3024059970
Ni      6.1374036900     2.1309748260    13.3056096280
Ni      7.3661494970     4.2582451230    13.3069521290
Ni      8.5943412640     6.3854189360    13.3048452030
Ni      7.3652045600     0.0023769350    13.3020218590
Ni      8.5942385870     2.1304695640    13.3043867890
Ni      9.8231946460     4.2572739590    13.3057508080
Ni     11.0517679490     6.3857120740    13.3033345670
Ni      2.4490340010     1.4222228900    15.3362210300
Ni      3.6772966340     3.5494520400    15.3385526490
Ni      4.9062018310     5.6779299860    15.3378107870
Ni      6.1346571370     7.8070605970    15.3335997660
Ni      4.9058225440     1.4219700120    15.3362205140
Ni      6.1346426160     3.5508505240    15.3401416950
Ni      7.3625330180     5.6784279340    15.3395242280
Ni      8.5915701700     7.8062468640    15.3354849980
Ni      7.3627070880     1.4224398610    15.3370387850
Ni      8.5913286880     3.5492678030    15.3408173340
Ni      9.8201850890     5.6778143970    15.3377748310
Ni     11.0486432900     7.8070022870    15.3347461740
Ni      9.8200953690     1.4222882770    15.3366655970
Ni     11.0486075170     3.5492992340    15.3407266610
Ni     12.2774144290     5.6772885480    15.3359640400
Ni     13.5061541410     7.8063455600    15.3319300910
Ni      1.2187910910     0.7145173250    17.3879335110
Ni      2.4472474040     2.8420654680    17.3934583510
Ni      3.6755426410     4.9714604160    17.3911200990
Ni      4.9045370410     7.0991000160    17.3858411420
Ni      3.6755273380     0.7130852300    17.3897672760
Ni      4.9036999830     2.8423805670    17.3934479200
Ni      6.1319552590     4.9726957520    17.3963329100
Ni      7.3614524680     7.0997442320    17.3897409240
Ni      6.1332850860     0.7119051780    17.3902533170
Ni      7.3623531400     2.8409773510    17.3961535170
Ni      8.5911690580     4.9716069240    17.3936889090
Ni      9.8197669710     7.1000576730    17.3889506800
Ni      8.5911411740     0.7131642410    17.3880086890
Ni      9.8198330200     2.8408219280    17.3957136840
Ni     11.0487030820     4.9704125330    17.3927697590
Ni     12.2763266390     7.0989938260    17.3852102910
O       6.0718707213     2.1261600508    20.1073731686
O       7.3914443701     4.2669850634    18.7953567800
O       5.1753284770     2.7459896203    22.7670902593
C       6.3053645100     3.3709206952    20.7744964873
C       7.5703712781     3.9792346746    20.1862321254
C       6.4542995444     3.1694337856    22.2752996237
H       5.4581912461     4.0558142071    20.5739580007
H       8.4230024417     3.2864356440    20.2729850148
H       7.8182546879     4.9171506004    20.7197226273
H       6.7729874287     4.1041561372    22.7640524856
H       7.2292179372     2.3986478663    22.4493482852
H       5.2529632208     1.7189570050    20.4946908676
H       3.3519533288     1.0251967847    18.8292563062
H       5.2364406176     2.6093325320    23.7308685997
O       2.2864509223     1.2990567037    18.9884058784
H       2.5183476859     2.3680071768    18.8202046746
80
Step 3 | ATOMIC_POSITIONS (angstrom) | Cartesian Angstrom
Ni      1.2286497520     0.7093615510    11.2500000000
Ni      2.4572990100     2.8374462050    11.2500000000
Ni      3.6859482670     4.9655308580    11.2500000000
Ni      4.9145975240     7.0936155120    11.2500000000
Ni      3.6859497520     0.7093615510    11.2500000000
Ni      4.9145990100     2.8374462050    11.2500000000
Ni      6.1432482670     4.9655308580    11.2500000000
Ni      7.3718975240     7.0936155120    11.2500000000
Ni      6.1432497520     0.7093615510    11.2500000000
Ni      7.3718990100     2.8374462050    11.2500000000
Ni      8.6005482670     4.9655308580    11.2500000000
Ni      9.8291975240     7.0936155120    11.2500000000
Ni      8.6005497520     0.7093615510    11.2500000000
Ni      9.8291990100     2.8374462050    11.2500000000
Ni     11.0578482670     4.9655308580    11.2500000000
Ni     12.2864975240     7.0936155120    11.2500000000
Ni      9.8231926170     0.0024995240    13.3023445020
Ni     11.0518089830     2.1302240240    13.3047084140
Ni     12.2800508460     4.2570722560    13.3044621730
Ni     13.5092872810     6.3850384710    13.3032135990
Ni      2.4517697470     0.0021660600    13.3026623600
Ni      3.6803279060     2.1303359400    13.3041136820
Ni      4.9088074780     4.2579363990    13.3054287220
Ni      6.1372745400     6.3857876860    13.3032783460
Ni      4.9086517490     0.0018312680    13.3024059970
Ni      6.1374036900     2.1309748260    13.3056096280
Ni      7.3661494970     4.2582451230    13.3069521290
Ni      8.5943412640     6.3854189360    13.3048452030
Ni      7.3652045600     0.0023769350    13.3020218590
Ni      8.5942385870     2.1304695640    13.3043867890
Ni      9.8231946460     4.2572739590    13.3057508080
Ni     11.0517679490     6.3857120740    13.3033345670
Ni      2.4490340010     1.4222228900    15.3362210300
Ni      3.6772966340     3.5494520400    15.3385526490
Ni      4.9062018310     5.6779299860    15.3378107870
Ni      6.1346571370     7.8070605970    15.3335997660
Ni      4.9058225440     1.4219700120    15.3362205140
Ni      6.1346426160     3.5508505240    15.3401416950
Ni      7.3625330180     5.6784279340    15.3395242280
Ni      8.5915701700     7.8062468640    15.3354849980
Ni      7.3627070880     1.4224398610    15.3370387850
Ni      8.5913286880     3.5492678030    15.3408173340
Ni      9.8201850890     5.6778143970    15.3377748310
Ni     11.0486432900     7.8070022870    15.3347461740
Ni      9.8200953690     1.4222882770    15.3366655970
Ni     11.0486075170     3.5492992340    15.3407266610
Ni     12.2774144290     5.6772885480    15.3359640400
Ni     13.5061541410     7.8063455600    15.3319300910
Ni      1.2187910910     0.7145173250    17.3879335110
Ni      2.4472474040     2.8420654680    17.3934583510
Ni      3.6755426410     4.9714604160    17.3911200990
Ni      4.9045370410     7.0991000160    17.3858411420
Ni      3.6755273380     0.7130852300    17.3897672760
Ni      4.9036999830     2.8423805670    17.3934479200
Ni      6.1319552590     4.9726957520    17.3963329100
Ni      7.3614524680     7.0997442320    17.3897409240
Ni      6.1332850860     0.7119051780    17.3902533170
Ni      7.3623531400     2.8409773510    17.3961535170
Ni      8.5911690580     4.9716069240    17.3936889090
Ni      9.8197669710     7.1000576730    17.3889506800
Ni      8.5911411740     0.7131642410    17.3880086890
Ni      9.8198330200     2.8408219280    17.3957136840
Ni     11.0487030820     4.9704125330    17.3927697590
Ni     12.2763266390     7.0989938260    17.3852102910
O       6.0532628485     2.1176514338    20.1211862095
O       7.3978288102     4.2584984003    18.7900363012
O       5.1753519218     2.7424950982    22.7723732382
C       6.3090788148     3.3767938134    20.7768760114
C       7.5662950275     3.9837220663    20.1858033226
C       6.4548254051     3.1672850234    22.2744563974
H       5.4634845614     4.0555467057    20.5764515592
H       8.4171782017     3.2874898444    20.2746212068
H       7.8144137045     4.9116709912    20.7128573788
H       6.7721062529     4.1064976575    22.7597661715
H       7.2246659424     2.4004626330    22.4506400758
H       5.2731793614     1.7299398629    20.4852405466
H       3.3402799877     1.0222291220    18.9776527724
H       5.2367005122     2.6079279337    23.7228426568
O       2.2696375117     1.2843454945    19.0829218955
H       2.5071784453     2.3576455650    18.9755039336
80
Step 4 | ATOMIC_POSITIONS (angstrom) | Cartesian Angstrom
Ni      1.2286497520     0.7093615510    11.2500000000
Ni      2.4572990100     2.8374462050    11.2500000000
Ni      3.6859482670     4.9655308580    11.2500000000
Ni      4.9145975240     7.0936155120    11.2500000000
Ni      3.6859497520     0.7093615510    11.2500000000
Ni      4.9145990100     2.8374462050    11.2500000000
Ni      6.1432482670     4.9655308580    11.2500000000
Ni      7.3718975240     7.0936155120    11.2500000000
Ni      6.1432497520     0.7093615510    11.2500000000
Ni      7.3718990100     2.8374462050    11.2500000000
Ni      8.6005482670     4.9655308580    11.2500000000
Ni      9.8291975240     7.0936155120    11.2500000000
Ni      8.6005497520     0.7093615510    11.2500000000
Ni      9.8291990100     2.8374462050    11.2500000000
Ni     11.0578482670     4.9655308580    11.2500000000
Ni     12.2864975240     7.0936155120    11.2500000000
Ni      9.8231926170     0.0024995240    13.3023445020
Ni     11.0518089830     2.1302240240    13.3047084140
Ni     12.2800508460     4.2570722560    13.3044621730
Ni     13.5092872810     6.3850384710    13.3032135990
Ni      2.4517697470     0.0021660600    13.3026623600
Ni      3.6803279060     2.1303359400    13.3041136820
Ni      4.9088074780     4.2579363990    13.3054287220
Ni      6.1372745400     6.3857876860    13.3032783460
Ni      4.9086517490     0.0018312680    13.3024059970
Ni      6.1374036900     2.1309748260    13.3056096280
Ni      7.3661494970     4.2582451230    13.3069521290
Ni      8.5943412640     6.3854189360    13.3048452030
Ni      7.3652045600     0.0023769350    13.3020218590
Ni      8.5942385870     2.1304695640    13.3043867890
Ni      9.8231946460     4.2572739590    13.3057508080
Ni     11.0517679490     6.3857120740    13.3033345670
Ni      2.4490340010     1.4222228900    15.3362210300
Ni      3.6772966340     3.5494520400    15.3385526490
Ni      4.9062018310     5.6779299860    15.3378107870
Ni      6.1346571370     7.8070605970    15.3335997660
Ni      4.9058225440     1.4219700120    15.3362205140
Ni      6.1346426160     3.5508505240    15.3401416950
Ni      7.3625330180     5.6784279340    15.3395242280
Ni      8.5915701700     7.8062468640    15.3354849980
Ni      7.3627070880     1.4224398610    15.3370387850
Ni      8.5913286880     3.5492678030    15.3408173340
Ni      9.8201850890     5.6778143970    15.3377748310
Ni     11.0486432900     7.8070022870    15.3347461740
Ni      9.8200953690     1.4222882770    15.3366655970
Ni     11.0486075170     3.5492992340    15.3407266610
Ni     12.2774144290     5.6772885480    15.3359640400
Ni     13.5061541410     7.8063455600    15.3319300910
Ni      1.2187910910     0.7145173250    17.3879335110
Ni      2.4472474040     2.8420654680    17.3934583510
Ni      3.6755426410     4.9714604160    17.3911200990
Ni      4.9045370410     7.0991000160    17.3858411420
Ni      3.6755273380     0.7130852300    17.3897672760
Ni      4.9036999830     2.8423805670    17.3934479200
Ni      6.1319552590     4.9726957520    17.3963329100
Ni      7.3614524680     7.0997442320    17.3897409240
Ni      6.1332850860     0.7119051780    17.3902533170
Ni      7.3623531400     2.8409773510    17.3961535170
Ni      8.5911690580     4.9716069240    17.3936889090
Ni      9.8197669710     7.1000576730    17.3889506800
Ni      8.5911411740     0.7131642410    17.3880086890
Ni      9.8198330200     2.8408219280    17.3957136840
Ni     11.0487030820     4.9704125330    17.3927697590
Ni     12.2763266390     7.0989938260    17.3852102910
O       6.0809769726     2.1346786355    20.1179557723
O       7.4053604193     4.2451161702    18.7834635168
O       5.1755800229     2.7401628555    22.7614152536
C       6.3065841720     3.3752849922    20.7794042131
C       7.5638628168     3.9804589959    20.1792126814
C       6.4521983679     3.1686622586    22.2761027310
H       5.4688475322     4.0585616134    20.5806491671
H       8.4080689761     3.2888635814    20.2783871425
H       7.8090446382     4.9109632903    20.7042974203
H       6.7706220161     4.1105178893    22.7537548213
H       7.2207447743     2.4003893870    22.4533594248
H       5.2544326305     1.7245180813    20.4960061312
H       3.2941091647     1.0117238646    19.2011401958
H       5.2388619405     2.6030124675    23.7264875593
O       2.2824008704     1.2870066817    19.2446670764
H       2.4729561115     2.3193374822    19.2097452499
80
Step 5 | ATOMIC_POSITIONS (angstrom) | Cartesian Angstrom
Ni      1.2286497520     0.7093615510    11.2500000000
Ni      2.4572990100     2.8374462050    11.2500000000
Ni      3.6859482670     4.9655308580    11.2500000000
Ni      4.9145975240     7.0936155120    11.2500000000
Ni      3.6859497520     0.7093615510    11.2500000000
Ni      4.9145990100     2.8374462050    11.2500000000
Ni      6.1432482670     4.9655308580    11.2500000000
Ni      7.3718975240     7.0936155120    11.2500000000
Ni      6.1432497520     0.7093615510    11.2500000000
Ni      7.3718990100     2.8374462050    11.2500000000
Ni      8.6005482670     4.9655308580    11.2500000000
Ni      9.8291975240     7.0936155120    11.2500000000
Ni      8.6005497520     0.7093615510    11.2500000000
Ni      9.8291990100     2.8374462050    11.2500000000
Ni     11.0578482670     4.9655308580    11.2500000000
Ni     12.2864975240     7.0936155120    11.2500000000
Ni      9.8231926170     0.0024995240    13.3023445020
Ni     11.0518089830     2.1302240240    13.3047084140
Ni     12.2800508460     4.2570722560    13.3044621730
Ni     13.5092872810     6.3850384710    13.3032135990
Ni      2.4517697470     0.0021660600    13.3026623600
Ni      3.6803279060     2.1303359400    13.3041136820
Ni      4.9088074780     4.2579363990    13.3054287220
Ni      6.1372745400     6.3857876860    13.3032783460
Ni      4.9086517490     0.0018312680    13.3024059970
Ni      6.1374036900     2.1309748260    13.3056096280
Ni      7.3661494970     4.2582451230    13.3069521290
Ni      8.5943412640     6.3854189360    13.3048452030
Ni      7.3652045600     0.0023769350    13.3020218590
Ni      8.5942385870     2.1304695640    13.3043867890
Ni      9.8231946460     4.2572739590    13.3057508080
Ni     11.0517679490     6.3857120740    13.3033345670
Ni      2.4490340010     1.4222228900    15.3362210300
Ni      3.6772966340     3.5494520400    15.3385526490
Ni      4.9062018310     5.6779299860    15.3378107870
Ni      6.1346571370     7.8070605970    15.3335997660
Ni      4.9058225440     1.4219700120    15.3362205140
Ni      6.1346426160     3.5508505240    15.3401416950
Ni      7.3625330180     5.6784279340    15.3395242280
Ni      8.5915701700     7.8062468640    15.3354849980
Ni      7.3627070880     1.4224398610    15.3370387850
Ni      8.5913286880     3.5492678030    15.3408173340
Ni      9.8201850890     5.6778143970    15.3377748310
Ni     11.0486432900     7.8070022870    15.3347461740
Ni      9.8200953690     1.4222882770    15.3366655970
Ni     11.0486075170     3.5492992340    15.3407266610
Ni     12.2774144290     5.6772885480    15.3359640400
Ni     13.5061541410     7.8063455600    15.3319300910
Ni      1.2187910910     0.7145173250    17.3879335110
Ni      2.4472474040     2.8420654680    17.3934583510
Ni      3.6755426410     4.9714604160    17.3911200990
Ni      4.9045370410     7.0991000160    17.3858411420
Ni      3.6755273380     0.7130852300    17.3897672760
Ni      4.9036999830     2.8423805670    17.3934479200
Ni      6.1319552590     4.9726957520    17.3963329100
Ni      7.3614524680     7.0997442320    17.3897409240
Ni      6.1332850860     0.7119051780    17.3902533170
Ni      7.3623531400     2.8409773510    17.3961535170
Ni      8.5911690580     4.9716069240    17.3936889090
Ni      9.8197669710     7.1000576730    17.3889506800
Ni      8.5911411740     0.7131642410    17.3880086890
Ni      9.8198330200     2.8408219280    17.3957136840
Ni     11.0487030820     4.9704125330    17.3927697590
Ni     12.2763266390     7.0989938260    17.3852102910
O       6.0807855197     2.1301464742    20.1257270506
O       7.4124459320     4.2255748894    18.7756491837
O       5.1729862857     2.7342653882    22.7604327903
C       6.3114963112     3.3781157705    20.7811963212
C       7.5594606353     3.9752205075    20.1714436078
C       6.4512210524     3.1756309602    22.2764152847
H       5.4702280819     4.0678543467    20.5866498054
H       8.3994789341     3.2859702925    20.2859755624
H       7.8017750966     4.9167945239    20.6911171969
H       6.7672757270     4.1169978965    22.7462792559
H       7.2175206915     2.3989035862    22.4582855946
H       5.2638155494     1.7340226911    20.4960111190
H       3.1998404102     0.9907269812    19.5367578207
H       5.2403154920     2.5961048207    23.7186291416
O       2.3318081937     1.3135341911    19.5142229640
H       2.4067651313     2.2399541202    19.5620101318
80
Step 6 | ATOMIC_POSITIONS (angstrom) | Cartesian Angstrom
Ni      1.2286497520     0.7093615510    11.2500000000
Ni      2.4572990100     2.8374462050    11.2500000000
Ni      3.6859482670     4.9655308580    11.2500000000
Ni      4.9145975240     7.0936155120    11.2500000000
Ni      3.6859497520     0.7093615510    11.2500000000
Ni      4.9145990100     2.8374462050    11.2500000000
Ni      6.1432482670     4.9655308580    11.2500000000
Ni      7.3718975240     7.0936155120    11.2500000000
Ni      6.1432497520     0.7093615510    11.2500000000
Ni      7.3718990100     2.8374462050    11.2500000000
Ni      8.6005482670     4.9655308580    11.2500000000
Ni      9.8291975240     7.0936155120    11.2500000000
Ni      8.6005497520     0.7093615510    11.2500000000
Ni      9.8291990100     2.8374462050    11.2500000000
Ni     11.0578482670     4.9655308580    11.2500000000
Ni     12.2864975240     7.0936155120    11.2500000000
Ni      9.8231926170     0.0024995240    13.3023445020
Ni     11.0518089830     2.1302240240    13.3047084140
Ni     12.2800508460     4.2570722560    13.3044621730
Ni     13.5092872810     6.3850384710    13.3032135990
Ni      2.4517697470     0.0021660600    13.3026623600
Ni      3.6803279060     2.1303359400    13.3041136820
Ni      4.9088074780     4.2579363990    13.3054287220
Ni      6.1372745400     6.3857876860    13.3032783460
Ni      4.9086517490     0.0018312680    13.3024059970
Ni      6.1374036900     2.1309748260    13.3056096280
Ni      7.3661494970     4.2582451230    13.3069521290
Ni      8.5943412640     6.3854189360    13.3048452030
Ni      7.3652045600     0.0023769350    13.3020218590
Ni      8.5942385870     2.1304695640    13.3043867890
Ni      9.8231946460     4.2572739590    13.3057508080
Ni     11.0517679490     6.3857120740    13.3033345670
Ni      2.4490340010     1.4222228900    15.3362210300
Ni      3.6772966340     3.5494520400    15.3385526490
Ni      4.9062018310     5.6779299860    15.3378107870
Ni      6.1346571370     7.8070605970    15.3335997660
Ni      4.9058225440     1.4219700120    15.3362205140
Ni      6.1346426160     3.5508505240    15.3401416950
Ni      7.3625330180     5.6784279340    15.3395242280
Ni      8.5915701700     7.8062468640    15.3354849980
Ni      7.3627070880     1.4224398610    15.3370387850
Ni      8.5913286880     3.5492678030    15.3408173340
Ni      9.8201850890     5.6778143970    15.3377748310
Ni     11.0486432900     7.8070022870    15.3347461740
Ni      9.8200953690     1.4222882770    15.3366655970
Ni     11.0486075170     3.5492992340    15.3407266610
Ni     12.2774144290     5.6772885480    15.3359640400
Ni     13.5061541410     7.8063455600    15.3319300910
Ni      1.2187910910     0.7145173250    17.3879335110
Ni      2.4472474040     2.8420654680    17.3934583510
Ni      3.6755426410     4.9714604160    17.3911200990
Ni      4.9045370410     7.0991000160    17.3858411420
Ni      3.6755273380     0.7130852300    17.3897672760
Ni      4.9036999830     2.8423805670    17.3934479200
Ni      6.1319552590     4.9726957520    17.3963329100
Ni      7.3614524680     7.0997442320    17.3897409240
Ni      6.1332850860     0.7119051780    17.3902533170
Ni      7.3623531400     2.8409773510    17.3961535170
Ni      8.5911690580     4.9716069240    17.3936889090
Ni      9.8197669710     7.1000576730    17.3889506800
Ni      8.5911411740     0.7131642410    17.3880086890
Ni      9.8198330200     2.8408219280    17.3957136840
Ni     11.0487030820     4.9704125330    17.3927697590
Ni     12.2763266390     7.0989938260    17.3852102910
O       6.0781091684     2.1253213024    20.1250487692
O       7.4095113786     4.2245858036    18.7768263551
O       5.1721411036     2.7350489517    22.7595600957
C       6.3094520300     3.3788089654    20.7790078790
C       7.5615400336     3.9768260107    20.1729440696
C       6.4527599461     3.1744280728    22.2762500540
H       5.4681488886     4.0699223745    20.5869935575
H       8.4026307375     3.2823966003    20.2879119808
H       7.8011135578     4.9196285223    20.6886408245
H       6.7665873460     4.1195565226    22.7478613921
H       7.2180213682     2.3997968073    22.4589569396
H       5.2667346690     1.7359260926    20.4964136499
H       3.2261031376     0.9709658177    19.5652833069
H       5.2401398385     2.5945593698    23.7183259180
O       2.2990297693     1.2967598700    19.5461924302
H       2.3998714025     2.2685689862    19.5936334671
80
Step 7 | ATOMIC_POSITIONS (angstrom) | Cartesian Angstrom
Ni      1.2286497520     0.7093615510    11.2500000000
Ni      2.4572990100     2.8374462050    11.2500000000
Ni      3.6859482670     4.9655308580    11.2500000000
Ni      4.9145975240     7.0936155120    11.2500000000
Ni      3.6859497520     0.7093615510    11.2500000000
Ni      4.9145990100     2.8374462050    11.2500000000
Ni      6.1432482670     4.9655308580    11.2500000000
Ni      7.3718975240     7.0936155120    11.2500000000
Ni      6.1432497520     0.7093615510    11.2500000000
Ni      7.3718990100     2.8374462050    11.2500000000
Ni      8.6005482670     4.9655308580    11.2500000000
Ni      9.8291975240     7.0936155120    11.2500000000
Ni      8.6005497520     0.7093615510    11.2500000000
Ni      9.8291990100     2.8374462050    11.2500000000
Ni     11.0578482670     4.9655308580    11.2500000000
Ni     12.2864975240     7.0936155120    11.2500000000
Ni      9.8231926170     0.0024995240    13.3023445020
Ni     11.0518089830     2.1302240240    13.3047084140
Ni     12.2800508460     4.2570722560    13.3044621730
Ni     13.5092872810     6.3850384710    13.3032135990
Ni      2.4517697470     0.0021660600    13.3026623600
Ni      3.6803279060     2.1303359400    13.3041136820
Ni      4.9088074780     4.2579363990    13.3054287220
Ni      6.1372745400     6.3857876860    13.3032783460
Ni      4.9086517490     0.0018312680    13.3024059970
Ni      6.1374036900     2.1309748260    13.3056096280
Ni      7.3661494970     4.2582451230    13.3069521290
Ni      8.5943412640     6.3854189360    13.3048452030
Ni      7.3652045600     0.0023769350    13.3020218590
Ni      8.5942385870     2.1304695640    13.3043867890
Ni      9.8231946460     4.2572739590    13.3057508080
Ni     11.0517679490     6.3857120740    13.3033345670
Ni      2.4490340010     1.4222228900    15.3362210300
Ni      3.6772966340     3.5494520400    15.3385526490
Ni      4.9062018310     5.6779299860    15.3378107870
Ni      6.1346571370     7.8070605970    15.3335997660
Ni      4.9058225440     1.4219700120    15.3362205140
Ni      6.1346426160     3.5508505240    15.3401416950
Ni      7.3625330180     5.6784279340    15.3395242280
Ni      8.5915701700     7.8062468640    15.3354849980
Ni      7.3627070880     1.4224398610    15.3370387850
Ni      8.5913286880     3.5492678030    15.3408173340
Ni      9.8201850890     5.6778143970    15.3377748310
Ni     11.0486432900     7.8070022870    15.3347461740
Ni      9.8200953690     1.4222882770    15.3366655970
Ni     11.0486075170     3.5492992340    15.3407266610
Ni     12.2774144290     5.6772885480    15.3359640400
Ni     13.5061541410     7.8063455600    15.3319300910
Ni      1.2187910910     0.7145173250    17.3879335110
Ni      2.4472474040     2.8420654680    17.3934583510
Ni      3.6755426410     4.9714604160    17.3911200990
Ni      4.9045370410     7.0991000160    17.3858411420
Ni      3.6755273380     0.7130852300    17.3897672760
Ni      4.9036999830     2.8423805670    17.3934479200
Ni      6.1319552590     4.9726957520    17.3963329100
Ni      7.3614524680     7.0997442320    17.3897409240
Ni      6.1332850860     0.7119051780    17.3902533170