80
Step 1 | ATOMIC_POSITIONS (angstrom) | Cartesian Angstrom
Ni      1.2286497520     0.7093615510    11.2500000000
Ni      2.4572990100     2.8374462050    11.2500000000
Ni      3.6859482670     4.9655308580    11.2500000000
Ni      4.9145975240     7.0936155120    11.2500000000
Ni      3.6859497520     0.7093615510    11.2500000000
Ni      4.9145990100     2.8374462050    11.2500000000
Ni      6.1432482670     4.9655308580    11.2500000000
Ni      7.3718975240     7.0936155120    11.2500000000
Ni      6.1432497520     0.7093615510    11.2500000000
Ni      7.3718990100     2.8374462050    11.2500000000
Ni      8.6005482670     4.9655308580    11.2500000000
Ni      9.8291975240     7.0936155120    11.2500000000
Ni      8.6005497520     0.7093615510    11.2500000000
Ni      9.8291990100     2.8374462050    11.2500000000
Ni     11.0578482670     4.9655308580    11.2500000000
Ni     12.2864975240     7.0936155120    11.2500000000
Ni      9.8231926170     0.0024995240    13.3023445020
Ni     11.0518089830     2.1302240240    13.3047084140
Ni     12.2800508460     4.2570722560    13.3044621730
Ni     13.5092872810     6.3850384710    13.3032135990
Ni      2.4517697470     0.0021660600    13.3026623600
Ni      3.6803279060     2.1303359400    13.3041136820
Ni      4.9088074780     4.2579363990    13.3054287220
Ni      6.1372745400     6.3857876860    13.3032783460
Ni      4.9086517490     0.0018312680    13.3024059970
Ni      6.1374036900     2.1309748260    13.3056096280
Ni      7.3661494970     4.2582451230    13.3069521290
Ni      8.5943412640     6.3854189360    13.3048452030
Ni      7.3652045600     0.0023769350    13.3020218590
Ni      8.5942385870     2.1304695640    13.3043867890
Ni      9.8231946460     4.2572739590    13.3057508080
Ni     11.0517679490     6.3857120740    13.3033345670
Ni      2.4490340010     1.4222228900    15.3362210300
Ni      3.6772966340     3.5494520400    15.3385526490
Ni      4.9062018310     5.6779299860    15.3378107870
Ni      6.1346571370     7.8070605970    15.3335997660
Ni      4.9058225440     1.4219700120    15.3362205140
Ni      6.1346426160     3.5508505240    15.3401416950
Ni      7.3625330180     5.6784279340    15.3395242280
Ni      8.5915701700     7.8062468640    15.3354849980
Ni      7.3627070880     1.4224398610    15.3370387850
Ni      8.5913286880     3.5492678030    15.3408173340
Ni      9.8201850890     5.6778143970    15.3377748310
Ni     11.0486432900     7.8070022870    15.3347461740
Ni      9.8200953690     1.4222882770    15.3366655970
Ni     11.0486075170     3.5492992340    15.3407266610
Ni     12.2774144290     5.6772885480    15.3359640400
Ni     13.5061541410     7.8063455600    15.3319300910
Ni      1.2187910910     0.7145173250    17.3879335110
Ni      2.4472474040     2.8420654680    17.3934583510
Ni      3.6755426410     4.9714604160    17.3911200990
Ni      4.9045370410     7.0991000160    17.3858411420
Ni      3.6755273380     0.7130852300    17.3897672760
Ni      4.9036999830     2.8423805670    17.3934479200
Ni      6.1319552590     4.9726957520    17.3963329100
Ni      7.3614524680     7.0997442320    17.3897409240
Ni      6.1332850860     0.7119051780    17.3902533170
Ni      7.3623531400     2.8409773510    17.3961535170
Ni      8.5911690580     4.9716069240    17.3936889090
Ni      9.8197669710     7.1000576730    17.3889506800
Ni      8.5911411740     0.7131642410    17.3880086890
Ni      9.8198330200     2.8408219280    17.3957136840
Ni     11.0487030820     4.9704125330    17.3927697590
Ni     12.2763266390     7.0989938260    17.3852102910
O       9.1099397358     3.7179533135    21.7822051012
O       8.5992338624     4.9958109013    19.4514840918
O       9.0221805889     5.3453511088    24.2240548258
C       8.7337544840     5.0943258144    21.8609663211
C       9.0415977607     5.8101698587    20.5245045265
C       9.4290311783     5.8640934881    22.9651351105
H       7.6441705539     5.0626638442    22.0909450798
H      10.1479396891     6.0008112215    20.4621570289
H       8.5398005529     6.7948361043    20.4733039972
H       9.1698951275     6.9380031225    22.8601877959
H      10.5266317682     5.7777094394    22.8180490793
H      10.0819630353     3.6632902241    21.7922238305
H       4.3334662600     2.5268208651    19.6880038761
H       9.4735878761     5.8370585188    24.9243308024
O       3.7168432719     2.2054476936    19.0283335854
H       2.9511739954     1.8118325608    19.4708213108
80
Step 2 | ATOMIC_POSITIONS (angstrom) | Cartesian Angstrom
Ni      1.2286497520     0.7093615510    11.2500000000
Ni      2.4572990100     2.8374462050    11.2500000000
Ni      3.6859482670     4.9655308580    11.2500000000
Ni      4.9145975240     7.0936155120    11.2500000000
Ni      3.6859497520     0.7093615510    11.2500000000
Ni      4.9145990100     2.8374462050    11.2500000000
Ni      6.1432482670     4.9655308580    11.2500000000
Ni      7.3718975240     7.0936155120    11.2500000000
Ni      6.1432497520     0.7093615510    11.2500000000
Ni      7.3718990100     2.8374462050    11.2500000000
Ni      8.6005482670     4.9655308580    11.2500000000
Ni      9.8291975240     7.0936155120    11.2500000000
Ni      8.6005497520     0.7093615510    11.2500000000
Ni      9.8291990100     2.8374462050    11.2500000000
Ni     11.0578482670     4.9655308580    11.2500000000
Ni     12.2864975240     7.0936155120    11.2500000000
Ni      9.8231926170     0.0024995240    13.3023445020
Ni     11.0518089830     2.1302240240    13.3047084140
Ni     12.2800508460     4.2570722560    13.3044621730
Ni     13.5092872810     6.3850384710    13.3032135990
Ni      2.4517697470     0.0021660600    13.3026623600
Ni      3.6803279060     2.1303359400    13.3041136820
Ni      4.9088074780     4.2579363990    13.3054287220
Ni      6.1372745400     6.3857876860    13.3032783460
Ni      4.9086517490     0.0018312680    13.3024059970
Ni      6.1374036900     2.1309748260    13.3056096280
Ni      7.3661494970     4.2582451230    13.3069521290
Ni      8.5943412640     6.3854189360    13.3048452030
Ni      7.3652045600     0.0023769350    13.3020218590
Ni      8.5942385870     2.1304695640    13.3043867890
Ni      9.8231946460     4.2572739590    13.3057508080
Ni     11.0517679490     6.3857120740    13.3033345670
Ni      2.4490340010     1.4222228900    15.3362210300
Ni      3.6772966340     3.5494520400    15.3385526490
Ni      4.9062018310     5.6779299860    15.3378107870
Ni      6.1346571370     7.8070605970    15.3335997660
Ni      4.9058225440     1.4219700120    15.3362205140
Ni      6.1346426160     3.5508505240    15.3401416950
Ni      7.3625330180     5.6784279340    15.3395242280
Ni      8.5915701700     7.8062468640    15.3354849980
Ni      7.3627070880     1.4224398610    15.3370387850
Ni      8.5913286880     3.5492678030    15.3408173340
Ni      9.8201850890     5.6778143970    15.3377748310
Ni     11.0486432900     7.8070022870    15.3347461740
Ni      9.8200953690     1.4222882770    15.3366655970
Ni     11.0486075170     3.5492992340    15.3407266610
Ni     12.2774144290     5.6772885480    15.3359640400
Ni     13.5061541410     7.8063455600    15.3319300910
Ni      1.2187910910     0.7145173250    17.3879335110
Ni      2.4472474040     2.8420654680    17.3934583510
Ni      3.6755426410     4.9714604160    17.3911200990
Ni      4.9045370410     7.0991000160    17.3858411420
Ni      3.6755273380     0.7130852300    17.3897672760
Ni      4.9036999830     2.8423805670    17.3934479200
Ni      6.1319552590     4.9726957520    17.3963329100
Ni      7.3614524680     7.0997442320    17.3897409240
Ni      6.1332850860     0.7119051780    17.3902533170
Ni      7.3623531400     2.8409773510    17.3961535170
Ni      8.5911690580     4.9716069240    17.3936889090
Ni      9.8197669710     7.1000576730    17.3889506800
Ni      8.5911411740     0.7131642410    17.3880086890
Ni      9.8198330200     2.8408219280    17.3957136840
Ni     11.0487030820     4.9704125330    17.3927697590
Ni     12.2763266390     7.0989938260    17.3852102910
O       9.1123950976     3.7207954309    21.8030995495
O       8.5974538515     4.9951953369    19.3799520486
O       9.0187151919     5.3419155099    24.2324057075
C       8.7399024957     5.0878813003    21.8487256222
C       9.0217123890     5.7856601258    20.4527088388
C       9.4323464291     5.8642090104    22.9724604800
H       7.6590432723     5.0700534131    22.0725876566
H      10.1359364459     5.9980643949    20.4649117458
H       8.5416447136     6.8052306911    20.4862292423
H       9.1705040866     6.9359978751    22.8622026577
H      10.5253931705     5.7766742925    22.8212200672
H      10.0793917379     3.6663005204    21.7894347534
H       4.3727645127     2.5489752704    19.7282141455
H       9.4764377079     5.8403093429    24.9296010391
O       3.7053939614     2.1932313483    19.1040806697
H       2.9105224128     1.7887546939    19.4920196897
80
Step 3 | ATOMIC_POSITIONS (angstrom) | Cartesian Angstrom
Ni      1.2286497520     0.7093615510    11.2500000000
Ni      2.4572990100     2.8374462050    11.2500000000
Ni      3.6859482670     4.9655308580    11.2500000000
Ni      4.9145975240     7.0936155120    11.2500000000
Ni      3.6859497520     0.7093615510    11.2500000000
Ni      4.9145990100     2.8374462050    11.2500000000
Ni      6.1432482670     4.9655308580    11.2500000000
Ni      7.3718975240     7.0936155120    11.2500000000
Ni      6.1432497520     0.7093615510    11.2500000000
Ni      7.3718990100     2.8374462050    11.2500000000
Ni      8.6005482670     4.9655308580    11.2500000000
Ni      9.8291975240     7.0936155120    11.2500000000
Ni      8.6005497520     0.7093615510    11.2500000000
Ni      9.8291990100     2.8374462050    11.2500000000
Ni     11.0578482670     4.9655308580    11.2500000000
Ni     12.2864975240     7.0936155120    11.2500000000
Ni      9.8231926170     0.0024995240    13.3023445020
Ni     11.0518089830     2.1302240240    13.3047084140
Ni     12.2800508460     4.2570722560    13.3044621730
Ni     13.5092872810     6.3850384710    13.3032135990
Ni      2.4517697470     0.0021660600    13.3026623600
Ni      3.6803279060     2.1303359400    13.3041136820
Ni      4.9088074780     4.2579363990    13.3054287220
Ni      6.1372745400     6.3857876860    13.3032783460
Ni      4.9086517490     0.0018312680    13.3024059970
Ni      6.1374036900     2.1309748260    13.3056096280
Ni      7.3661494970     4.2582451230    13.3069521290
Ni      8.5943412640     6.3854189360    13.3048452030
Ni      7.3652045600     0.0023769350    13.3020218590
Ni      8.5942385870     2.1304695640    13.3043867890
Ni      9.8231946460     4.2572739590    13.3057508080
Ni     11.0517679490     6.3857120740    13.3033345670
Ni      2.4490340010     1.4222228900    15.3362210300
Ni      3.6772966340     3.5494520400    15.3385526490
Ni      4.9062018310     5.6779299860    15.3378107870
Ni      6.1346571370     7.8070605970    15.3335997660
Ni      4.9058225440     1.4219700120    15.3362205140
Ni      6.1346426160     3.5508505240    15.3401416950
Ni      7.3625330180     5.6784279340    15.3395242280
Ni      8.5915701700     7.8062468640    15.3354849980
Ni      7.3627070880     1.4224398610    15.3370387850
Ni      8.5913286880     3.5492678030    15.3408173340
Ni      9.8201850890     5.6778143970    15.3377748310
Ni     11.0486432900     7.8070022870    15.3347461740
Ni      9.8200953690     1.4222882770    15.3366655970
Ni     11.0486075170     3.5492992340    15.3407266610
Ni     12.2774144290     5.6772885480    15.3359640400
Ni     13.5061541410     7.8063455600    15.3319300910
Ni      1.2187910910     0.7145173250    17.3879335110
Ni      2.4472474040     2.8420654680    17.3934583510
Ni      3.6755426410     4.9714604160    17.3911200990
Ni      4.9045370410     7.0991000160    17.3858411420
Ni      3.6755273380     0.7130852300    17.3897672760
Ni      4.9036999830     2.8423805670    17.3934479200
Ni      6.1319552590     4.9726957520    17.3963329100
Ni      7.3614524680     7.0997442320    17.3897409240
Ni      6.1332850860     0.7119051780    17.3902533170
Ni      7.3623531400     2.8409773510    17.3961535170
Ni      8.5911690580     4.9716069240    17.3936889090
Ni      9.8197669710     7.1000576730    17.3889506800
Ni      8.5911411740     0.7131642410    17.3880086890
Ni      9.8198330200     2.8408219280    17.3957136840
Ni     11.0487030820     4.9704125330    17.3927697590
Ni     12.2763266390     7.0989938260    17.3852102910
O       9.1106841658     3.7165893836    21.8175659056
O       8.5948620588     4.9946908889    19.3315443174
O       9.0188054949     5.3423265173    24.2368781776
C       8.7415474242     5.0885485817    21.8302774597
C       9.0187350021     5.7861579826    20.4344444631
C       9.4305770349     5.8644360624    22.9645210296
H       7.6648943782     5.0744086728    22.0599558123
H      10.1208098425     5.9918521873    20.4566555147
H       8.5441954261     6.7991071698    20.4871062121
H       9.1711003756     6.9345142238    22.8649318520
H      10.5270584789     5.7757570109    22.8253360724
H      10.0836154545     3.6675907304    21.7869015809
H       4.3808272858     2.5545002850    19.7523707321
H       9.4764594418     5.8405020138    24.9312923842
O       3.7110710938     2.1912926208    19.1576699566
H       2.8867561661     1.7750554517    19.5170657228
80
Step 4 | ATOMIC_POSITIONS (angstrom) | Cartesian Angstrom
Ni      1.2286497520     0.7093615510    11.2500000000
Ni      2.4572990100     2.8374462050    11.2500000000
Ni      3.6859482670     4.9655308580    11.2500000000
Ni      4.9145975240     7.0936155120    11.2500000000
Ni      3.6859497520     0.7093615510    11.2500000000
Ni      4.9145990100     2.8374462050    11.2500000000
Ni      6.1432482670     4.9655308580    11.2500000000
Ni      7.3718975240     7.0936155120    11.2500000000
Ni      6.1432497520     0.7093615510    11.2500000000
Ni      7.3718990100     2.8374462050    11.2500000000
Ni      8.6005482670     4.9655308580    11.2500000000
Ni      9.8291975240     7.0936155120    11.2500000000
Ni      8.6005497520     0.7093615510    11.2500000000
Ni      9.8291990100     2.8374462050    11.2500000000
Ni     11.0578482670     4.9655308580    11.2500000000
Ni     12.2864975240     7.0936155120    11.2500000000
Ni      9.8231926170     0.0024995240    13.3023445020
Ni     11.0518089830     2.1302240240    13.3047084140
Ni     12.2800508460     4.2570722560    13.3044621730
Ni     13.5092872810     6.3850384710    13.3032135990
Ni      2.4517697470     0.0021660600    13.3026623600
Ni      3.6803279060     2.1303359400    13.3041136820
Ni      4.9088074780     4.2579363990    13.3054287220
Ni      6.1372745400     6.3857876860    13.3032783460
Ni      4.9086517490     0.0018312680    13.3024059970
Ni      6.1374036900     2.1309748260    13.3056096280
Ni      7.3661494970     4.2582451230    13.3069521290
Ni      8.5943412640     6.3854189360    13.3048452030
Ni      7.3652045600     0.0023769350    13.3020218590
Ni      8.5942385870     2.1304695640    13.3043867890
Ni      9.8231946460     4.2572739590    13.3057508080
Ni     11.0517679490     6.3857120740    13.3033345670
Ni      2.4490340010     1.4222228900    15.3362210300
Ni      3.6772966340     3.5494520400    15.3385526490
Ni      4.9062018310     5.6779299860    15.3378107870
Ni      6.1346571370     7.8070605970    15.3335997660
Ni      4.9058225440     1.4219700120    15.3362205140
Ni      6.1346426160     3.5508505240    15.3401416950
Ni      7.3625330180     5.6784279340    15.3395242280
Ni      8.5915701700     7.8062468640    15.3354849980
Ni      7.3627070880     1.4224398610    15.3370387850
Ni      8.5913286880     3.5492678030    15.3408173340
Ni      9.8201850890     5.6778143970    15.3377748310
Ni     11.0486432900     7.8070022870    15.3347461740
Ni      9.8200953690     1.4222882770    15.3366655970
Ni     11.0486075170     3.5492992340    15.3407266610
Ni     12.2774144290     5.6772885480    15.3359640400
Ni     13.5061541410     7.8063455600    15.3319300910
Ni      1.2187910910     0.7145173250    17.3879335110
Ni      2.4472474040     2.8420654680    17.3934583510
Ni      3.6755426410     4.9714604160    17.3911200990
Ni      4.9045370410     7.0991000160    17.3858411420
Ni      3.6755273380     0.7130852300    17.3897672760
Ni      4.9036999830     2.8423805670    17.3934479200
Ni      6.1319552590     4.9726957520    17.3963329100
Ni      7.3614524680     7.0997442320    17.3897409240
Ni      6.1332850860     0.7119051780    17.3902533170
Ni      7.3623531400     2.8409773510    17.3961535170
Ni      8.5911690580     4.9716069240    17.3936889090
Ni      9.8197669710     7.1000576730    17.3889506800
Ni      8.5911411740     0.7131642410    17.3880086890
Ni      9.8198330200     2.8408219280    17.3957136840
Ni     11.0487030820     4.9704125330    17.3927697590
Ni     12.2763266390     7.0989938260    17.3852102910
O       9.1144825635     3.7110139008    21.8300524090
O       8.5946508692     5.0019384875    19.2963700469
O       9.0182101799     5.3428923746    24.2308959138
C       8.7406062337     5.0887438206    21.8097336826
C       9.0172033916     5.7845813408    20.4273839200
C       9.4287024242     5.8633921249    22.9528449953
H       7.6665725160     5.0786562374    22.0451349423
H      10.1065910704     5.9833177673    20.4381231156
H       8.5448599325     6.7872595007    20.4803688903
H       9.1714136890     6.9346077147    22.8679891552
H      10.5284373072     5.7747948493    22.8301917887
H      10.0846294520     3.6680380890    21.7836879946
H       4.3873016760     2.5598201198    19.7927553926
H       9.4772342979     5.8417505112    24.9329204350
O       3.6984788515     2.1786299546    19.2041747551
H       2.8812226621     1.7707947656    19.5473199012
80
Step 5 | ATOMIC_POSITIONS (angstrom) | Cartesian Angstrom
Ni      1.2286497520     0.7093615510    11.2500000000
Ni      2.4572990100     2.8374462050    11.2500000000
Ni      3.6859482670     4.9655308580    11.2500000000
Ni      4.9145975240     7.0936155120    11.2500000000
Ni      3.6859497520     0.7093615510    11.2500000000
Ni      4.9145990100     2.8374462050    11.2500000000
Ni      6.1432482670     4.9655308580    11.2500000000
Ni      7.3718975240     7.0936155120    11.2500000000
Ni      6.1432497520     0.7093615510    11.2500000000
Ni      7.3718990100     2.8374462050    11.2500000000
Ni      8.6005482670     4.9655308580    11.2500000000
Ni      9.8291975240     7.0936155120    11.2500000000
Ni      8.6005497520     0.7093615510    11.2500000000
Ni      9.8291990100     2.8374462050    11.2500000000
Ni     11.0578482670     4.9655308580    11.2500000000
Ni     12.2864975240     7.0936155120    11.2500000000
Ni      9.8231926170     0.0024995240    13.3023445020
Ni     11.0518089830     2.1302240240    13.3047084140
Ni     12.2800508460     4.2570722560    13.3044621730
Ni     13.5092872810     6.3850384710    13.3032135990
Ni      2.4517697470     0.0021660600    13.3026623600
Ni      3.6803279060     2.1303359400    13.3041136820
Ni      4.9088074780     4.2579363990    13.3054287220
Ni      6.1372745400     6.3857876860    13.3032783460
Ni      4.9086517490     0.0018312680    13.3024059970
Ni      6.1374036900     2.1309748260    13.3056096280
Ni      7.3661494970     4.2582451230    13.3069521290
Ni      8.5943412640     6.3854189360    13.3048452030
Ni      7.3652045600     0.0023769350    13.3020218590
Ni      8.5942385870     2.1304695640    13.3043867890
Ni      9.8231946460     4.2572739590    13.3057508080
Ni     11.0517679490     6.3857120740    13.3033345670
Ni      2.4490340010     1.4222228900    15.3362210300
Ni      3.6772966340     3.5494520400    15.3385526490
Ni      4.9062018310     5.6779299860    15.3378107870
Ni      6.1346571370     7.8070605970    15.3335997660
Ni      4.9058225440     1.4219700120    15.3362205140
Ni      6.1346426160     3.5508505240    15.3401416950
Ni      7.3625330180     5.6784279340    15.3395242280
Ni      8.5915701700     7.8062468640    15.3354849980
Ni      7.3627070880     1.4224398610    15.3370387850
Ni      8.5913286880     3.5492678030    15.3408173340
Ni      9.8201850890     5.6778143970    15.3377748310
Ni     11.0486432900     7.8070022870    15.3347461740
Ni      9.8200953690     1.4222882770    15.3366655970
Ni     11.0486075170     3.5492992340    15.3407266610
Ni     12.2774144290     5.6772885480    15.3359640400
Ni     13.5061541410     7.8063455600    15.3319300910
Ni      1.2187910910     0.7145173250    17.3879335110
Ni      2.4472474040     2.8420654680    17.3934583510
Ni      3.6755426410     4.9714604160    17.3911200990
Ni      4.9045370410     7.0991000160    17.3858411420
Ni      3.6755273380     0.7130852300    17.3897672760
Ni      4.9036999830     2.8423805670    17.3934479200
Ni      6.1319552590     4.9726957520    17.3963329100
Ni      7.3614524680     7.0997442320    17.3897409240
Ni      6.1332850860     0.7119051780    17.3902533170
Ni      7.3623531400     2.8409773510    17.3961535170
Ni      8.5911690580     4.9716069240    17.3936889090
Ni      9.8197669710     7.1000576730    17.3889506800
Ni      8.5911411740     0.7131642410    17.3880086890
Ni      9.8198330200     2.8408219280    17.3957136840
Ni     11.0487030820     4.9704125330    17.3927697590
Ni     12.2763266390     7.0989938260    17.3852102910
O       9.1182849529     3.7061188108    21.8401240926
O       8.5960148607     5.0182247461    19.2758522379
O       9.0182467110     5.3455229216    24.2179400409
C       8.7343780857     5.0846253894    21.7902103100
C       9.0172260164     5.7758538897    20.4247354054
C       9.4290384107     5.8646038770    22.9360309490
H       7.6654638690     5.0827162719    22.0240576353
H      10.0955329838     5.9717027903    20.4048885021
H       8.5412782712     6.7711557413    20.4644722691
H       9.1716908196     6.9356594921    22.8705901776
H      10.5284086538     5.7736535448    22.8351480895
H      10.0880764472     3.6670880756    21.7788427143
H       4.3764776997     2.5569289266    19.8476113827
H       9.4753436822     5.8405788429    24.9273644144
O       3.6995351480     2.1702214407    19.2501756789
H       2.8747896691     1.7663368972    19.6025650893
80
Step 6 | ATOMIC_POSITIONS (angstrom) | Cartesian Angstrom
Ni      1.2286497520     0.7093615510    11.2500000000
Ni      2.4572990100     2.8374462050    11.2500000000
Ni      3.6859482670     4.9655308580    11.2500000000
Ni      4.9145975240     7.0936155120    11.2500000000
Ni      3.6859497520     0.7093615510    11.2500000000
Ni      4.9145990100     2.8374462050    11.2500000000
Ni      6.1432482670     4.9655308580    11.2500000000
Ni      7.3718975240     7.0936155120    11.2500000000
Ni      6.1432497520     0.7093615510    11.2500000000
Ni      7.3718990100     2.8374462050    11.2500000000
Ni      8.6005482670     4.9655308580    11.2500000000
Ni      9.8291975240     7.0936155120    11.2500000000
Ni      8.6005497520     0.7093615510    11.2500000000
Ni      9.8291990100     2.8374462050    11.2500000000
Ni     11.0578482670     4.9655308580    11.2500000000
Ni     12.2864975240     7.0936155120    11.2500000000
Ni      9.8231926170     0.0024995240    13.3023445020
Ni     11.0518089830     2.1302240240    13.3047084140
Ni     12.2800508460     4.2570722560    13.3044621730
Ni     13.5092872810     6.3850384710    13.3032135990
Ni      2.4517697470     0.0021660600    13.3026623600
Ni      3.6803279060     2.1303359400    13.3041136820
Ni      4.9088074780     4.2579363990    13.3054287220
Ni      6.1372745400     6.3857876860    13.3032783460
Ni      4.9086517490     0.0018312680    13.3024059970
Ni      6.1374036900     2.1309748260    13.3056096280
Ni      7.3661494970     4.2582451230    13.3069521290
Ni      8.5943412640     6.3854189360    13.3048452030
Ni      7.3652045600     0.0023769350    13.3020218590
Ni      8.5942385870     2.1304695640    13.3043867890
Ni      9.8231946460     4.2572739590    13.3057508080
Ni     11.0517679490     6.3857120740    13.3033345670
Ni      2.4490340010     1.4222228900    15.3362210300
Ni      3.6772966340     3.5494520400    15.3385526490
Ni      4.9062018310     5.6779299860    15.3378107870
Ni      6.1346571370     7.8070605970    15.3335997660
Ni      4.9058225440     1.4219700120    15.3362205140
Ni      6.1346426160     3.5508505240    15.3401416950
Ni      7.3625330180     5.6784279340    15.3395242280
Ni      8.5915701700     7.8062468640    15.3354849980
Ni      7.3627070880     1.4224398610    15.3370387850
Ni      8.5913286880     3.5492678030    15.3408173340
Ni      9.8201850890     5.6778143970    15.3377748310
Ni     11.0486432900     7.8070022870    15.3347461740
Ni      9.8200953690     1.4222882770    15.3366655970
Ni     11.0486075170     3.5492992340    15.3407266610
Ni     12.2774144290     5.6772885480    15.3359640400
Ni     13.5061541410     7.8063455600    15.3319300910
Ni      1.2187910910     0.7145173250    17.3879335110
Ni      2.4472474040     2.8420654680    17.3934583510
Ni      3.6755426410     4.9714604160    17.3911200990
Ni      4.9045370410     7.0991000160    17.3858411420
Ni      3.6755273380     0.7130852300    17.3897672760
Ni      4.9036999830     2.8423805670    17.3934479200
Ni      6.1319552590     4.9726957520    17.3963329100
Ni      7.3614524680     7.0997442320    17.3897409240
Ni      6.1332850860     0.7119051780    17.3902533170
Ni      7.3623531400     2.8409773510    17.3961535170
Ni      8.5911690580     4.9716069240    17.3936889090
Ni      9.8197669710     7.1000576730    17.3889506800
Ni      8.5911411740     0.7131642410    17.3880086890
Ni      9.8198330200     2.8408219280    17.3957136840
Ni     11.0487030820     4.9704125330    17.3927697590
Ni     12.2763266390     7.0989938260    17.3852102910
O       9.1199685907     3.7022106297    21.8456824146
O       8.5951015056     5.0321720221    19.2658930812
O       9.0174936228     5.3478280512    24.2038045210
C       8.7331058688     5.0789689310    21.7790708122
C       9.0167071717     5.7674165361    20.4196289137
C       9.4279513883     5.8673434038    22.9211728179
H       7.6601251022     5.0850207183    22.0026937107
H      10.0920693043     5.9606153154    20.3696287847
H       8.5356644176     6.7564157692    20.4471778003
H       9.1721024166     6.9376051834    22.8705616603
H      10.5286200587     5.7725025760    22.8368724236
H      10.0922581204     3.6658334504    21.7735718648
H       4.3588209951     2.5507040979    19.9062839981
H       9.4717260352     5.8378145963    24.9161078923
O       3.6980022749     2.1597852822    19.2911994225
H       2.8771703209     1.7668219761    19.6618003602
80
Step 7 | ATOMIC_POSITIONS (angstrom) | Cartesian Angstrom
Ni      1.2286497520     0.7093615510    11.2500000000
Ni      2.4572990100     2.8374462050    11.2500000000
Ni      3.6859482670     4.9655308580    11.2500000000
Ni      4.9145975240     7.0936155120    11.2500000000
Ni      3.6859497520     0.7093615510    11.2500000000
Ni      4.9145990100     2.8374462050    11.2500000000
Ni      6.1432482670     4.9655308580    11.2500000000
Ni      7.3718975240     7.0936155120    11.2500000000
Ni      6.1432497520     0.7093615510    11.2500000000
Ni      7.3718990100     2.8374462050    11.2500000000
Ni      8.6005482670     4.9655308580    11.2500000000
Ni      9.8291975240     7.0936155120    11.2500000000
Ni      8.6005497520     0.7093615510    11.2500000000
Ni      9.8291990100     2.8374462050    11.2500000000
Ni     11.0578482670     4.9655308580    11.2500000000
Ni     12.2864975240     7.0936155120    11.2500000000
Ni      9.8231926170     0.0024995240    13.3023445020
Ni     11.0518089830     2.1302240240    13.3047084140
Ni     12.2800508460     4.2570722560    13.3044621730
Ni     13.5092872810     6.3850384710    13.3032135990
Ni      2.4517697470     0.0021660600    13.3026623600
Ni      3.6803279060     2.1303359400    13.3041136820
Ni      4.9088074780     4.2579363990    13.3054287220
Ni      6.1372745400     6.3857876860    13.3032783460
Ni      4.9086517490     0.0018312680    13.3024059970
Ni      6.1374036900     2.1309748260    13.3056096280
Ni      7.3661494970     4.2582451230    13.3069521290
Ni      8.5943412640     6.3854189360    13.3048452030
Ni      7.3652045600     0.0023769350    13.3020218590
Ni      8.5942385870     2.1304695640    13.3043867890
Ni      9.8231946460     4.2572739590    13.3057508080
Ni     11.0517679490     6.3857120740    13.3033345670
Ni      2.4490340010     1.4222228900    15.3362210300
Ni      3.6772966340     3.5494520400    15.3385526490
Ni      4.9062018310     5.6779299860    15.3378107870
Ni      6.1346571370     7.8070605970    15.3335997660
Ni      4.9058225440     1.4219700120    15.3362205140
Ni      6.1346426160     3.5508505240    15.3401416950
Ni      7.3625330180     5.6784279340    15.3395242280
Ni      8.5915701700     7.8062468640    15.3354849980
Ni      7.3627070880     1.4224398610    15.3370387850
Ni      8.5913286880     3.5492678030    15.3408173340
Ni      9.8201850890     5.6778143970    15.3377748310
Ni     11.0486432900     7.8070022870    15.3347461740
Ni      9.8200953690     1.4222882770    15.3366655970
Ni     11.0486075170     3.5492992340    15.3407266610
Ni     12.2774144290     5.6772885480    15.3359640400
Ni     13.5061541410     7.8063455600    15.3319300910
Ni      1.2187910910     0.7145173250    17.3879335110
Ni      2.4472474040     2.8420654680    17.3934583510
Ni      3.6755426410     4.9714604160    17.3911200990
Ni      4.9045370410     7.0991000160    17.3858411420
Ni      3.6755273380     0.7130852300    17.3897672760
Ni      4.9036999830     2.8423805670    17.3934479200
Ni      6.1319552590     4.9726957520    17.3963329100
Ni      7.3614524680     7.0997442320    17.3897409240
Ni      6.1332850860     0.7119051780    17.3902533170