80
Step 1 | ATOMIC_POSITIONS (angstrom) | Cartesian Angstrom
Ni      1.0325713130     1.1995576310    11.2500000000
Ni      2.2612205710     3.3276422850    11.2500000000
Ni      3.2447717800     5.3184720360    11.2500000000
Ni      4.7185190850     7.5838115920    11.2500000000
Ni      3.4898713130     1.1995576310    11.2500000000
Ni      4.7185205710     3.3276422850    11.2500000000
Ni      5.9471698280     5.4557269380    11.2500000000
Ni      7.1758190850     7.5838115920    11.2500000000
Ni      5.9471713130     1.1995576310    11.2500000000
Ni      7.1758205710     3.3276422850    11.2500000000
Ni      8.4044698280     5.4557269380    11.2500000000
Ni      9.6331190850     7.5838115920    11.2500000000
Ni      8.4044713130     1.1995576310    11.2500000000
Ni      9.6331205710     3.3276422850    11.2500000000
Ni     10.8617698280     5.4557269380    11.2500000000
Ni     12.0904190850     7.5838115920    11.2500000000
Ni      9.6271141780     0.4926956040    13.3023445020
Ni     10.8557305440     2.6204201040    13.3047084140
Ni     12.0839724070     4.7472683360    13.3044621730
Ni     13.3132088420     6.8752345510    13.3032135990
Ni      2.2556913080     0.4923621400    13.3026623600
Ni      3.4842494670     2.6205320200    13.3041136820
Ni      4.7127290390     4.7481324790    13.3054287220
Ni      5.9411961010     6.8759837660    13.3032783460
Ni      4.7125733100     0.4920273480    13.3024059970
Ni      5.9413252510     2.6211709060    13.3056096280
Ni      7.1700710580     4.7484412030    13.3069521290
Ni      8.3982628250     6.8756150160    13.3048452030
Ni      7.1691261210     0.4925730150    13.3020218590
Ni      8.3981601480     2.6206656440    13.3043867890
Ni      9.6271162070     4.7474700390    13.3057508080
Ni     10.8556895100     6.8759081540    13.3033345670
Ni      2.2529555620     1.9124189700    15.3362210300
Ni      3.4812181950     4.0396481200    15.3385526490
Ni      4.7101233920     6.1681260660    15.3378107870
Ni      5.9385786980     8.2972566770    15.3335997660
Ni      4.7097441050     1.9121660920    15.3362205140
Ni      5.9385641770     4.0410466040    15.3401416950
Ni      7.1664545790     6.1686240140    15.3395242280
Ni      8.3954917310     8.2964429440    15.3354849980
Ni      7.1666286490     1.9126359410    15.3370387850
Ni      8.3952502490     4.0394638830    15.3408173340
Ni      9.6241066500     6.1680104770    15.3377748310
Ni     10.8525648510     8.2971983670    15.3347461740
Ni      9.6240169300     1.9124843570    15.3366655970
Ni     10.8525290780     4.0394953140    15.3407266610
Ni     12.0813359900     6.1674846280    15.3359640400
Ni     13.3100757020     8.2965416400    15.3319300910
Ni      1.0227126520     1.2047134050    17.3879335110
Ni      2.2511689650     3.3322615480    17.3934583510
Ni      3.4794642020     5.4616564960    17.3911200990
Ni      4.7084586020     7.5892960960    17.3858411420
Ni      3.4794488990     1.2032813100    17.3897672760
Ni      4.7076215440     3.3325766470    17.3934479200
Ni      5.9358768200     5.4628918320    17.3963329100
Ni      7.1653740290     7.5899403120    17.3897409240
Ni      5.9372066470     1.2021012580    17.3902533170
Ni      7.1662747010     3.3311734310    17.3961535170
Ni      8.3950906190     5.4618030040    17.3936889090
Ni      9.6236885320     7.5902537530    17.3889506800
Ni      8.3950627350     1.2033603210    17.3880086890
Ni      9.6237545810     3.3310180080    17.3957136840
Ni     10.8526246430     5.4606086130    17.3927697590
Ni     12.0802482000     7.5891899060    17.3852102910
O       7.9943070428     3.9458581204    21.7190449257
O       8.4007473256     5.5456461622    19.5478070419
O      10.0158295347     4.1348151380    23.8835215555
C       9.1547008865     4.7731329478    21.7340477387
C       9.5410433128     5.1355454596    20.2838780914
C      10.3312073948     4.1631093666    22.4918698089
H       8.8460632146     5.6884746552    22.2671162431
H      10.0108759657     4.2361791428    19.8038447065
H      10.2963373213     5.9445221685    20.2523909838
H      11.2394645347     4.7623658786    22.2945193841
H      10.5152279585     3.1408647331    22.0985290617
H       8.2425845012     3.0632121602    21.3921494331
H       2.5602443527     2.8321984317    19.4924452366
H      10.8076728895     3.8743389741    24.3785917349
O       2.3149102077     1.8982470505    18.9409641383
H       2.7988804561     1.4506824176    19.7160582332
80
Step 2 | ATOMIC_POSITIONS (angstrom) | Cartesian Angstrom
Ni      1.0325713130     1.1995576310    11.2500000000
Ni      2.2612205710     3.3276422850    11.2500000000
Ni      3.2447717800     5.3184720360    11.2500000000
Ni      4.7185190850     7.5838115920    11.2500000000
Ni      3.4898713130     1.1995576310    11.2500000000
Ni      4.7185205710     3.3276422850    11.2500000000
Ni      5.9471698280     5.4557269380    11.2500000000
Ni      7.1758190850     7.5838115920    11.2500000000
Ni      5.9471713130     1.1995576310    11.2500000000
Ni      7.1758205710     3.3276422850    11.2500000000
Ni      8.4044698280     5.4557269380    11.2500000000
Ni      9.6331190850     7.5838115920    11.2500000000
Ni      8.4044713130     1.1995576310    11.2500000000
Ni      9.6331205710     3.3276422850    11.2500000000
Ni     10.8617698280     5.4557269380    11.2500000000
Ni     12.0904190850     7.5838115920    11.2500000000
Ni      9.6271141780     0.4926956040    13.3023445020
Ni     10.8557305440     2.6204201040    13.3047084140
Ni     12.0839724070     4.7472683360    13.3044621730
Ni     13.3132088420     6.8752345510    13.3032135990
Ni      2.2556913080     0.4923621400    13.3026623600
Ni      3.4842494670     2.6205320200    13.3041136820
Ni      4.7127290390     4.7481324790    13.3054287220
Ni      5.9411961010     6.8759837660    13.3032783460
Ni      4.7125733100     0.4920273480    13.3024059970
Ni      5.9413252510     2.6211709060    13.3056096280
Ni      7.1700710580     4.7484412030    13.3069521290
Ni      8.3982628250     6.8756150160    13.3048452030
Ni      7.1691261210     0.4925730150    13.3020218590
Ni      8.3981601480     2.6206656440    13.3043867890
Ni      9.6271162070     4.7474700390    13.3057508080
Ni     10.8556895100     6.8759081540    13.3033345670
Ni      2.2529555620     1.9124189700    15.3362210300
Ni      3.4812181950     4.0396481200    15.3385526490
Ni      4.7101233920     6.1681260660    15.3378107870
Ni      5.9385786980     8.2972566770    15.3335997660
Ni      4.7097441050     1.9121660920    15.3362205140
Ni      5.9385641770     4.0410466040    15.3401416950
Ni      7.1664545790     6.1686240140    15.3395242280
Ni      8.3954917310     8.2964429440    15.3354849980
Ni      7.1666286490     1.9126359410    15.3370387850
Ni      8.3952502490     4.0394638830    15.3408173340
Ni      9.6241066500     6.1680104770    15.3377748310
Ni     10.8525648510     8.2971983670    15.3347461740
Ni      9.6240169300     1.9124843570    15.3366655970
Ni     10.8525290780     4.0394953140    15.3407266610
Ni     12.0813359900     6.1674846280    15.3359640400
Ni     13.3100757020     8.2965416400    15.3319300910
Ni      1.0227126520     1.2047134050    17.3879335110
Ni      2.2511689650     3.3322615480    17.3934583510
Ni      3.4794642020     5.4616564960    17.3911200990
Ni      4.7084586020     7.5892960960    17.3858411420
Ni      3.4794488990     1.2032813100    17.3897672760
Ni      4.7076215440     3.3325766470    17.3934479200
Ni      5.9358768200     5.4628918320    17.3963329100
Ni      7.1653740290     7.5899403120    17.3897409240
Ni      5.9372066470     1.2021012580    17.3902533170
Ni      7.1662747010     3.3311734310    17.3961535170
Ni      8.3950906190     5.4618030040    17.3936889090
Ni      9.6236885320     7.5902537530    17.3889506800
Ni      8.3950627350     1.2033603210    17.3880086890
Ni      9.6237545810     3.3310180080    17.3957136840
Ni     10.8526246430     5.4606086130    17.3927697590
Ni     12.0802482000     7.5891899060    17.3852102910
O       7.9954815100     3.9421472610    21.7289272518
O       8.4077317431     5.5421656127    19.5118054241
O      10.0154953127     4.1349031931    23.8830571694
C       9.1472447924     4.7736187773    21.7280187664
C       9.5289469680     5.1440840223    20.2646099705
C      10.3301456625     4.1639757152    22.4891499337
H       8.8455565676     5.6875471143    22.2653978775
H      10.0126306388     4.2351976878    19.8058545529
H      10.3033836268     5.9428390141    20.2575029795
H      11.2394932718     4.7633030307    22.2947066198
H      10.5149589107     3.1403516210    22.0989202867
H       8.2430852244     3.0642412834    21.3906335202
H       2.5357591223     2.8104164267    19.4410531149
H      10.8086568449     3.8736073048    24.3789840307
O       2.3583881159     1.9290667241    19.0876724644
H       2.7802754882     1.4317604842    19.6817416191
80
Step 3 | ATOMIC_POSITIONS (angstrom) | Cartesian Angstrom
Ni      1.0325713130     1.1995576310    11.2500000000
Ni      2.2612205710     3.3276422850    11.2500000000
Ni      3.2447717800     5.3184720360    11.2500000000
Ni      4.7185190850     7.5838115920    11.2500000000
Ni      3.4898713130     1.1995576310    11.2500000000
Ni      4.7185205710     3.3276422850    11.2500000000
Ni      5.9471698280     5.4557269380    11.2500000000
Ni      7.1758190850     7.5838115920    11.2500000000
Ni      5.9471713130     1.1995576310    11.2500000000
Ni      7.1758205710     3.3276422850    11.2500000000
Ni      8.4044698280     5.4557269380    11.2500000000
Ni      9.6331190850     7.5838115920    11.2500000000
Ni      8.4044713130     1.1995576310    11.2500000000
Ni      9.6331205710     3.3276422850    11.2500000000
Ni     10.8617698280     5.4557269380    11.2500000000
Ni     12.0904190850     7.5838115920    11.2500000000
Ni      9.6271141780     0.4926956040    13.3023445020
Ni     10.8557305440     2.6204201040    13.3047084140
Ni     12.0839724070     4.7472683360    13.3044621730
Ni     13.3132088420     6.8752345510    13.3032135990
Ni      2.2556913080     0.4923621400    13.3026623600
Ni      3.4842494670     2.6205320200    13.3041136820
Ni      4.7127290390     4.7481324790    13.3054287220
Ni      5.9411961010     6.8759837660    13.3032783460
Ni      4.7125733100     0.4920273480    13.3024059970
Ni      5.9413252510     2.6211709060    13.3056096280
Ni      7.1700710580     4.7484412030    13.3069521290
Ni      8.3982628250     6.8756150160    13.3048452030
Ni      7.1691261210     0.4925730150    13.3020218590
Ni      8.3981601480     2.6206656440    13.3043867890
Ni      9.6271162070     4.7474700390    13.3057508080
Ni     10.8556895100     6.8759081540    13.3033345670
Ni      2.2529555620     1.9124189700    15.3362210300
Ni      3.4812181950     4.0396481200    15.3385526490
Ni      4.7101233920     6.1681260660    15.3378107870
Ni      5.9385786980     8.2972566770    15.3335997660
Ni      4.7097441050     1.9121660920    15.3362205140
Ni      5.9385641770     4.0410466040    15.3401416950
Ni      7.1664545790     6.1686240140    15.3395242280
Ni      8.3954917310     8.2964429440    15.3354849980
Ni      7.1666286490     1.9126359410    15.3370387850
Ni      8.3952502490     4.0394638830    15.3408173340
Ni      9.6241066500     6.1680104770    15.3377748310
Ni     10.8525648510     8.2971983670    15.3347461740
Ni      9.6240169300     1.9124843570    15.3366655970
Ni     10.8525290780     4.0394953140    15.3407266610
Ni     12.0813359900     6.1674846280    15.3359640400
Ni     13.3100757020     8.2965416400    15.3319300910
Ni      1.0227126520     1.2047134050    17.3879335110
Ni      2.2511689650     3.3322615480    17.3934583510
Ni      3.4794642020     5.4616564960    17.3911200990
Ni      4.7084586020     7.5892960960    17.3858411420
Ni      3.4794488990     1.2032813100    17.3897672760
Ni      4.7076215440     3.3325766470    17.3934479200
Ni      5.9358768200     5.4628918320    17.3963329100
Ni      7.1653740290     7.5899403120    17.3897409240
Ni      5.9372066470     1.2021012580    17.3902533170
Ni      7.1662747010     3.3311734310    17.3961535170
Ni      8.3950906190     5.4618030040    17.3936889090
Ni      9.6236885320     7.5902537530    17.3889506800
Ni      8.3950627350     1.2033603210    17.3880086890
Ni      9.6237545810     3.3310180080    17.3957136840
Ni     10.8526246430     5.4606086130    17.3927697590
Ni     12.0802482000     7.5891899060    17.3852102910
O       7.9965055731     3.9394635256    21.7363460116
O       8.4136304906     5.5394929638    19.4821915432
O      10.0160676262     4.1348731988    23.8827236038
C       9.1414706904     4.7727336579    21.7229846447
C       9.5206124999     5.1498715307    20.2506861473
C      10.3293865934     4.1652124467    22.4865889112
H       8.8446222216     5.6876852157    22.2640849611
H      10.0139569101     4.2343958509    19.8069917665
H      10.3080288935     5.9414519555    20.2610210267
H      11.2393351406     4.7639455824    22.2947424225
H      10.5146395136     3.1401387879    22.0990418566
H       8.2434026299     3.0651971056    21.3894173008
H       2.5289424509     2.8271266884    19.4284737885
H      10.8082410489     3.8734321536    24.3782435859
O       2.3350032838     1.9642308695    19.1116466456
H       2.8110614772     1.3711351265    19.7204687751
80
Step 4 | ATOMIC_POSITIONS (angstrom) | Cartesian Angstrom
Ni      1.0325713130     1.1995576310    11.2500000000
Ni      2.2612205710     3.3276422850    11.2500000000
Ni      3.2447717800     5.3184720360    11.2500000000
Ni      4.7185190850     7.5838115920    11.2500000000
Ni      3.4898713130     1.1995576310    11.2500000000
Ni      4.7185205710     3.3276422850    11.2500000000
Ni      5.9471698280     5.4557269380    11.2500000000
Ni      7.1758190850     7.5838115920    11.2500000000
Ni      5.9471713130     1.1995576310    11.2500000000
Ni      7.1758205710     3.3276422850    11.2500000000
Ni      8.4044698280     5.4557269380    11.2500000000
Ni      9.6331190850     7.5838115920    11.2500000000
Ni      8.4044713130     1.1995576310    11.2500000000
Ni      9.6331205710     3.3276422850    11.2500000000
Ni     10.8617698280     5.4557269380    11.2500000000
Ni     12.0904190850     7.5838115920    11.2500000000
Ni      9.6271141780     0.4926956040    13.3023445020
Ni     10.8557305440     2.6204201040    13.3047084140
Ni     12.0839724070     4.7472683360    13.3044621730
Ni     13.3132088420     6.8752345510    13.3032135990
Ni      2.2556913080     0.4923621400    13.3026623600
Ni      3.4842494670     2.6205320200    13.3041136820
Ni      4.7127290390     4.7481324790    13.3054287220
Ni      5.9411961010     6.8759837660    13.3032783460
Ni      4.7125733100     0.4920273480    13.3024059970
Ni      5.9413252510     2.6211709060    13.3056096280
Ni      7.1700710580     4.7484412030    13.3069521290
Ni      8.3982628250     6.8756150160    13.3048452030
Ni      7.1691261210     0.4925730150    13.3020218590
Ni      8.3981601480     2.6206656440    13.3043867890
Ni      9.6271162070     4.7474700390    13.3057508080
Ni     10.8556895100     6.8759081540    13.3033345670
Ni      2.2529555620     1.9124189700    15.3362210300
Ni      3.4812181950     4.0396481200    15.3385526490
Ni      4.7101233920     6.1681260660    15.3378107870
Ni      5.9385786980     8.2972566770    15.3335997660
Ni      4.7097441050     1.9121660920    15.3362205140
Ni      5.9385641770     4.0410466040    15.3401416950
Ni      7.1664545790     6.1686240140    15.3395242280
Ni      8.3954917310     8.2964429440    15.3354849980
Ni      7.1666286490     1.9126359410    15.3370387850
Ni      8.3952502490     4.0394638830    15.3408173340
Ni      9.6241066500     6.1680104770    15.3377748310
Ni     10.8525648510     8.2971983670    15.3347461740
Ni      9.6240169300     1.9124843570    15.3366655970
Ni     10.8525290780     4.0394953140    15.3407266610
Ni     12.0813359900     6.1674846280    15.3359640400
Ni     13.3100757020     8.2965416400    15.3319300910
Ni      1.0227126520     1.2047134050    17.3879335110
Ni      2.2511689650     3.3322615480    17.3934583510
Ni      3.4794642020     5.4616564960    17.3911200990
Ni      4.7084586020     7.5892960960    17.3858411420
Ni      3.4794488990     1.2032813100    17.3897672760
Ni      4.7076215440     3.3325766470    17.3934479200
Ni      5.9358768200     5.4628918320    17.3963329100
Ni      7.1653740290     7.5899403120    17.3897409240
Ni      5.9372066470     1.2021012580    17.3902533170
Ni      7.1662747010     3.3311734310    17.3961535170
Ni      8.3950906190     5.4618030040    17.3936889090
Ni      9.6236885320     7.5902537530    17.3889506800
Ni      8.3950627350     1.2033603210    17.3880086890
Ni      9.6237545810     3.3310180080    17.3957136840
Ni     10.8526246430     5.4606086130    17.3927697590
Ni     12.0802482000     7.5891899060    17.3852102910
O       7.9920629734     3.9338657529    21.7468812418
O       8.4169419585     5.5382487368    19.4381716625
O      10.0143387435     4.1362176049    23.8791955478
C       9.1385445939     4.7805233108    21.7133141552
C       9.5257523202     5.1471922317    20.2408133583
C      10.3273155598     4.1667274264    22.4794856829
H       8.8424932244     5.6862974888    22.2609577181
H      10.0130739929     4.2379255085    19.8085490795
H      10.3085218240     5.9373274533    20.2641023427
H      11.2385346779     4.7652864006    22.2941784653
H      10.5140198946     3.1408143928    22.0992674075
H       8.2439024389     3.0646102751    21.3865851398
H       2.5322996076     2.8875643382    19.4383643766
H      10.8091645740     3.8727817068    24.3773428535
O       2.3132497282     1.9367465378    19.1536286832
H       2.8306125882     1.3234271050    19.7467466269
80
Step 5 | ATOMIC_POSITIONS (angstrom) | Cartesian Angstrom
Ni      1.0325713130     1.1995576310    11.2500000000
Ni      2.2612205710     3.3276422850    11.2500000000
Ni      3.2447717800     5.3184720360    11.2500000000
Ni      4.7185190850     7.5838115920    11.2500000000
Ni      3.4898713130     1.1995576310    11.2500000000
Ni      4.7185205710     3.3276422850    11.2500000000
Ni      5.9471698280     5.4557269380    11.2500000000
Ni      7.1758190850     7.5838115920    11.2500000000
Ni      5.9471713130     1.1995576310    11.2500000000
Ni      7.1758205710     3.3276422850    11.2500000000
Ni      8.4044698280     5.4557269380    11.2500000000
Ni      9.6331190850     7.5838115920    11.2500000000
Ni      8.4044713130     1.1995576310    11.2500000000
Ni      9.6331205710     3.3276422850    11.2500000000
Ni     10.8617698280     5.4557269380    11.2500000000
Ni     12.0904190850     7.5838115920    11.2500000000
Ni      9.6271141780     0.4926956040    13.3023445020
Ni     10.8557305440     2.6204201040    13.3047084140
Ni     12.0839724070     4.7472683360    13.3044621730
Ni     13.3132088420     6.8752345510    13.3032135990
Ni      2.2556913080     0.4923621400    13.3026623600
Ni      3.4842494670     2.6205320200    13.3041136820
Ni      4.7127290390     4.7481324790    13.3054287220
Ni      5.9411961010     6.8759837660    13.3032783460
Ni      4.7125733100     0.4920273480    13.3024059970
Ni      5.9413252510     2.6211709060    13.3056096280
Ni      7.1700710580     4.7484412030    13.3069521290
Ni      8.3982628250     6.8756150160    13.3048452030
Ni      7.1691261210     0.4925730150    13.3020218590
Ni      8.3981601480     2.6206656440    13.3043867890
Ni      9.6271162070     4.7474700390    13.3057508080
Ni     10.8556895100     6.8759081540    13.3033345670
Ni      2.2529555620     1.9124189700    15.3362210300
Ni      3.4812181950     4.0396481200    15.3385526490
Ni      4.7101233920     6.1681260660    15.3378107870
Ni      5.9385786980     8.2972566770    15.3335997660
Ni      4.7097441050     1.9121660920    15.3362205140
Ni      5.9385641770     4.0410466040    15.3401416950
Ni      7.1664545790     6.1686240140    15.3395242280
Ni      8.3954917310     8.2964429440    15.3354849980
Ni      7.1666286490     1.9126359410    15.3370387850
Ni      8.3952502490     4.0394638830    15.3408173340
Ni      9.6241066500     6.1680104770    15.3377748310
Ni     10.8525648510     8.2971983670    15.3347461740
Ni      9.6240169300     1.9124843570    15.3366655970
Ni     10.8525290780     4.0394953140    15.3407266610
Ni     12.0813359900     6.1674846280    15.3359640400
Ni     13.3100757020     8.2965416400    15.3319300910
Ni      1.0227126520     1.2047134050    17.3879335110
Ni      2.2511689650     3.3322615480    17.3934583510
Ni      3.4794642020     5.4616564960    17.3911200990
Ni      4.7084586020     7.5892960960    17.3858411420
Ni      3.4794488990     1.2032813100    17.3897672760
Ni      4.7076215440     3.3325766470    17.3934479200
Ni      5.9358768200     5.4628918320    17.3963329100
Ni      7.1653740290     7.5899403120    17.3897409240
Ni      5.9372066470     1.2021012580    17.3902533170
Ni      7.1662747010     3.3311734310    17.3961535170
Ni      8.3950906190     5.4618030040    17.3936889090
Ni      9.6236885320     7.5902537530    17.3889506800
Ni      8.3950627350     1.2033603210    17.3880086890
Ni      9.6237545810     3.3310180080    17.3957136840
Ni     10.8526246430     5.4606086130    17.3927697590
Ni     12.0802482000     7.5891899060    17.3852102910
O       7.9905620405     3.9288647880    21.7581555433
O       8.4287817696     5.5343607377    19.3849733105
O      10.0144952514     4.1376315218    23.8747161976
C       9.1316737710     4.7827510112    21.7011726374
C       9.5226584816     5.1468266490    20.2261887942
C      10.3249976274     4.1705041593    22.4717425725
H       8.8386161548     5.6874317674    22.2569977958
H      10.0141163623     4.2391493157    19.8086134588
H      10.3095442208     5.9333681012    20.2667482798
H      11.2375994792     4.7669757997    22.2928717837
H      10.5128538619     3.1417245084    22.0983846331
H       8.2438496381     3.0653468152    21.3833596311
H       2.5277917990     2.9060351999    19.4347773212
H      10.8069181702     3.8731483565    24.3730720068
O       2.3045133144     1.9391193851    19.2370955411
H       2.8455517678     1.2824938505    19.7676077157
80
Step 6 | ATOMIC_POSITIONS (angstrom) | Cartesian Angstrom
Ni      1.0325713130     1.1995576310    11.2500000000
Ni      2.2612205710     3.3276422850    11.2500000000
Ni      3.2447717800     5.3184720360    11.2500000000
Ni      4.7185190850     7.5838115920    11.2500000000
Ni      3.4898713130     1.1995576310    11.2500000000
Ni      4.7185205710     3.3276422850    11.2500000000
Ni      5.9471698280     5.4557269380    11.2500000000
Ni      7.1758190850     7.5838115920    11.2500000000
Ni      5.9471713130     1.1995576310    11.2500000000
Ni      7.1758205710     3.3276422850    11.2500000000
Ni      8.4044698280     5.4557269380    11.2500000000
Ni      9.6331190850     7.5838115920    11.2500000000
Ni      8.4044713130     1.1995576310    11.2500000000
Ni      9.6331205710     3.3276422850    11.2500000000
Ni     10.8617698280     5.4557269380    11.2500000000
Ni     12.0904190850     7.5838115920    11.2500000000
Ni      9.6271141780     0.4926956040    13.3023445020
Ni     10.8557305440     2.6204201040    13.3047084140
Ni     12.0839724070     4.7472683360    13.3044621730
Ni     13.3132088420     6.8752345510    13.3032135990
Ni      2.2556913080     0.4923621400    13.3026623600
Ni      3.4842494670     2.6205320200    13.3041136820
Ni      4.7127290390     4.7481324790    13.3054287220
Ni      5.9411961010     6.8759837660    13.3032783460
Ni      4.7125733100     0.4920273480    13.3024059970
Ni      5.9413252510     2.6211709060    13.3056096280
Ni      7.1700710580     4.7484412030    13.3069521290
Ni      8.3982628250     6.8756150160    13.3048452030
Ni      7.1691261210     0.4925730150    13.3020218590
Ni      8.3981601480     2.6206656440    13.3043867890
Ni      9.6271162070     4.7474700390    13.3057508080
Ni     10.8556895100     6.8759081540    13.3033345670
Ni      2.2529555620     1.9124189700    15.3362210300
Ni      3.4812181950     4.0396481200    15.3385526490
Ni      4.7101233920     6.1681260660    15.3378107870
Ni      5.9385786980     8.2972566770    15.3335997660
Ni      4.7097441050     1.9121660920    15.3362205140
Ni      5.9385641770     4.0410466040    15.3401416950
Ni      7.1664545790     6.1686240140    15.3395242280
Ni      8.3954917310     8.2964429440    15.3354849980
Ni      7.1666286490     1.9126359410    15.3370387850
Ni      8.3952502490     4.0394638830    15.3408173340
Ni      9.6241066500     6.1680104770    15.3377748310
Ni     10.8525648510     8.2971983670    15.3347461740
Ni      9.6240169300     1.9124843570    15.3366655970
Ni     10.8525290780     4.0394953140    15.3407266610
Ni     12.0813359900     6.1674846280    15.3359640400
Ni     13.3100757020     8.2965416400    15.3319300910
Ni      1.0227126520     1.2047134050    17.3879335110
Ni      2.2511689650     3.3322615480    17.3934583510
Ni      3.4794642020     5.4616564960    17.3911200990
Ni      4.7084586020     7.5892960960    17.3858411420
Ni      3.4794488990     1.2032813100    17.3897672760
Ni      4.7076215440     3.3325766470    17.3934479200
Ni      5.9358768200     5.4628918320    17.3963329100
Ni      7.1653740290     7.5899403120    17.3897409240
Ni      5.9372066470     1.2021012580    17.3902533170
Ni      7.1662747010     3.3311734310    17.3961535170
Ni      8.3950906190     5.4618030040    17.3936889090
Ni      9.6236885320     7.5902537530    17.3889506800
Ni      8.3950627350     1.2033603210    17.3880086890
Ni      9.6237545810     3.3310180080    17.3957136840
Ni     10.8526246430     5.4606086130    17.3927697590
Ni     12.0802482000     7.5891899060    17.3852102910
O       7.9900948464     3.9240225998    21.7657508016
O       8.4482156219     5.5287930768    19.3361899793
O      10.0107370563     4.1419615064    23.8647225543
C       9.1224656134     4.7856826935    21.6915644905
C       9.5193557432     5.1441202111    20.2119706120
C      10.3229526321     4.1742867286    22.4628421464
H       8.8330607581     5.6887476911    22.2493256126
H      10.0169605717     4.2379799774    19.8054613477
H      10.3060019411     5.9289137397    20.2661741415
H      11.2366689245     4.7697483074    22.2894590715
H      10.5109039641     3.1446473808    22.0955311182
H       8.2422343960     3.0667408227    21.3798869373
H       2.5312709177     2.9020099792    19.4441514243
H      10.8049704423     3.8736487495    24.3660568950
O       2.2904307759     1.9345596400    19.3202179981
H       2.8581447724     1.2664538482    19.7900800912
80
Step 7 | ATOMIC_POSITIONS (angstrom) | Cartesian Angstrom
Ni      1.0325713130     1.1995576310    11.2500000000
Ni      2.2612205710     3.3276422850    11.2500000000
Ni      3.2447717800     5.3184720360    11.2500000000
Ni      4.7185190850     7.5838115920    11.2500000000
Ni      3.4898713130     1.1995576310    11.2500000000
Ni      4.7185205710     3.3276422850    11.2500000000
Ni      5.9471698280     5.4557269380    11.2500000000
Ni      7.1758190850     7.5838115920    11.2500000000
Ni      5.9471713130     1.1995576310    11.2500000000
Ni      7.1758205710     3.3276422850    11.2500000000
Ni      8.4044698280     5.4557269380    11.2500000000
Ni      9.6331190850     7.5838115920    11.2500000000
Ni      8.4044713130     1.1995576310    11.2500000000
Ni      9.6331205710     3.3276422850    11.2500000000
Ni     10.8617698280     5.4557269380    11.2500000000
Ni     12.0904190850     7.5838115920    11.2500000000
Ni      9.6271141780     0.4926956040    13.3023445020
Ni     10.8557305440     2.6204201040    13.3047084140
Ni     12.0839724070     4.7472683360    13.3044621730
Ni     13.3132088420     6.8752345510    13.3032135990
Ni      2.2556913080     0.4923621400    13.3026623600
Ni      3.4842494670     2.6205320200    13.3041136820
Ni      4.7127290390     4.7481324790    13.3054287220
Ni      5.9411961010     6.8759837660    13.3032783460
Ni      4.7125733100     0.4920273480    13.3024059970
Ni      5.9413252510     2.6211709060    13.3056096280
Ni      7.1700710580     4.7484412030    13.3069521290
Ni      8.3982628250     6.8756150160    13.3048452030
Ni      7.1691261210     0.4925730150    13.3020218590
Ni      8.3981601480     2.6206656440    13.3043867890
Ni      9.6271162070     4.7474700390    13.3057508080
Ni     10.8556895100     6.8759081540    13.3033345670
Ni      2.2529555620     1.9124189700    15.3362210300
Ni      3.4812181950     4.0396481200    15.3385526490
Ni      4.7101233920     6.1681260660    15.3378107870
Ni      5.9385786980     8.2972566770    15.3335997660
Ni      4.7097441050     1.9121660920    15.3362205140
Ni      5.9385641770     4.0410466040    15.3401416950
Ni      7.1664545790     6.1686240140    15.3395242280
Ni      8.3954917310     8.2964429440    15.3354849980
Ni      7.1666286490     1.9126359410    15.3370387850
Ni      8.3952502490     4.0394638830    15.3408173340
Ni      9.6241066500     6.1680104770    15.3377748310
Ni     10.8525648510     8.2971983670    15.3347461740
Ni      9.6240169300     1.9124843570    15.3366655970
Ni     10.8525290780     4.0394953140    15.3407266610
Ni     12.0813359900     6.1674846280    15.3359640400
Ni     13.3100757020     8.2965416400    15.3319300910
Ni      1.0227126520     1.2047134050    17.3879335110
Ni      2.2511689650     3.3322615480    17.3934583510
Ni      3.4794642020     5.4616564960    17.3911200990
Ni      4.7084586020     7.5892960960    17.3858411420
Ni      3.4794488990     1.2032813100    17.3897672760
Ni      4.7076215440     3.3325766470    17.3934479200
Ni      5.9358768200     5.4628918320    17.3963329100
Ni      7.1653740290     7.5899403120    17.3897409240
Ni      5.9372066470     1.2021012580    17.3902533170