80
Step 1 | ATOMIC_POSITIONS (angstrom) | Cartesian Angstrom
NI      1.2286497520     0.7093615510    11.2500000000
NI      2.4572990100     2.8374462050    11.2500000000
NI      3.6859482670     4.9655308580    11.2500000000
NI      4.9145975240     7.0936155120    11.2500000000
NI      3.6859497520     0.7093615510    11.2500000000
NI      4.9145990100     2.8374462050    11.2500000000
NI      6.1432482670     4.9655308580    11.2500000000
NI      7.3718975240     7.0936155120    11.2500000000
NI      6.1432497520     0.7093615510    11.2500000000
NI      7.3718990100     2.8374462050    11.2500000000
NI      8.6005482670     4.9655308580    11.2500000000
NI      9.8291975240     7.0936155120    11.2500000000
NI      8.6005497520     0.7093615510    11.2500000000
NI      9.8291990100     2.8374462050    11.2500000000
NI     11.0578482670     4.9655308580    11.2500000000
NI     12.2864975240     7.0936155120    11.2500000000
NI      0.0001182235    -0.0000839615    13.2588984905
NI      1.2285747517     2.1281916345    13.2584013567
NI      2.4574037269     4.2561476601    13.2581690635
NI     13.5150784248     6.3841452730    13.2584968358
NI      2.4573907732    -0.0000610594    13.2582462536
NI      3.6859270453     2.1280447728    13.2585493976
NI      4.9146323749     4.2562112950    13.2581233515
NI      6.1433428452     6.3841920497    13.2581059770
NI      4.9145370214     0.0000902701    13.2582311804
NI      6.1433334650     2.1281530959    13.2582355453
NI      7.3716395237     4.2560622592    13.2580017742
NI      8.6003678074     6.3843299483    13.2587283570
NI      7.3717217228    -0.0001031521    13.2585493558
NI      8.6005770541     2.1282317788    13.2583094531
NI      9.8292244816     4.2559445386    13.2587981557
NI     11.0578817411     6.3842646859    13.2588300706
NI      2.4577352626     1.4190004332    15.2606013730
NI      3.6872139621     3.5460552713    15.2605377573
NI      4.9149868195     5.6744389030    15.2611279297
NI      6.1433237697     7.8027163177    15.2613427412
NI      4.9146160593     1.4202345571    15.2604602741
NI      6.1426336834     3.5463951581    15.2605322654
NI      7.3717998806     5.6740885616    15.2613211347
NI      8.6006426257     7.8031049008    15.2617965728
NI      7.3716469410     1.4191308045    15.2608629943
NI      8.5999078257     3.5476142301    15.2625483147
NI      9.8291782927     5.6747928481    15.2593447543
NI     11.0576054615     7.8033168428    15.2621913531
NI      9.8290262507     1.4186120454    15.2605597271
NI     11.0580469105     3.5468302057    15.2616204131
NI     12.2866800273     5.6745021063    15.2619031361
NI     13.5152151662     7.8030676300    15.2606883578
NI      1.2280057914     0.7092507693    17.2746483410
NI      2.4521360888     2.8378553114    17.2740504493
NI      3.6831367138     4.9696482249    17.2736808480
NI      4.9147533949     7.0942796360    17.2743190998
NI      3.6838498634     0.7050229512    17.2736645426
NI      4.9145580791     2.8374172813    17.3071279074
NI      6.1417735675     4.9689331279    17.2710577469
NI      7.3694926953     7.0978767356    17.2701671256
NI      6.1453762252     0.7050504867    17.2736859472
NI      7.3747603954     2.8340377529    17.2707274610
NI      8.6016394843     4.9724226860    17.2776715448
NI      9.8315098240     7.0975055533    17.2700551025
NI      8.6012963610     0.7096547522    17.2748479725
NI      9.8318383422     2.8329938761    17.2695631708
NI     11.0618292659     4.9649283507    17.2707849721
NI     12.2862614475     7.0934171827    17.2741683246
O       9.1607002749     3.6876340648    21.6767799547
O       8.6675366778     5.0415024940    19.3059770580
O       8.6727338983     5.0336407407    24.1249851605
C       8.6818393547     5.0354158341    21.7138344592
C       9.1491698061     5.7569611229    20.4578277681
C       9.1546027351     5.7302871955    22.9760516451
H       7.5676220918     4.9520124022    21.7094224298
H      10.2532802326     5.7703740591    20.4029071471
H       8.7769229909     6.7758538477    20.4000744700
H       8.8105912246     6.7705776706    23.0079347130
H      10.2637474055     5.7185454059    23.0081082229
H      10.1401458536     3.7446863719    21.6868363345
H       9.0162862915     4.1197902798    19.3714584311
H       9.0167744771     5.5100277853    24.8976686170
O       4.9147373259     2.8378396572    19.2045009592
H       4.9150816935     2.8373428019    20.1832386532
80
Step 2 | ATOMIC_POSITIONS (angstrom) | Cartesian Angstrom
NI      1.2286497520     0.7093615510    11.2500000000
NI      2.4572990100     2.8374462050    11.2500000000
NI      3.6859482670     4.9655308580    11.2500000000
NI      4.9145975240     7.0936155120    11.2500000000
NI      3.6859497520     0.7093615510    11.2500000000
NI      4.9145990100     2.8374462050    11.2500000000
NI      6.1432482670     4.9655308580    11.2500000000
NI      7.3718975240     7.0936155120    11.2500000000
NI      6.1432497520     0.7093615510    11.2500000000
NI      7.3718990100     2.8374462050    11.2500000000
NI      8.6005482670     4.9655308580    11.2500000000
NI      9.8291975240     7.0936155120    11.2500000000
NI      8.6005497520     0.7093615510    11.2500000000
NI      9.8291990100     2.8374462050    11.2500000000
NI     11.0578482670     4.9655308580    11.2500000000
NI     12.2864975240     7.0936155120    11.2500000000
NI      0.0004096071    -0.0003451093    13.2643873225
NI      1.2284509842     2.1284215524    13.2627833314
NI      2.4576543877     4.2561252831    13.2621253260
NI     13.5148934691     6.3838918695    13.2631915723
NI      2.4576038237    -0.0002268485    13.2623336692
NI      3.6858841878     2.1279541750    13.2632382434
NI      4.9146623356     4.2563018580    13.2618793701
NI      6.1435532586     6.3840969569    13.2618427724
NI      4.9144027145     0.0002587638    13.2623595817
NI      6.1434657011     2.1282652119    13.2622200496
NI      7.3710963609     4.2558368196    13.2614971100
NI      8.5999268993     6.3845574057    13.2637681469
NI      7.3712725431    -0.0004065610    13.2633357095
NI      8.6006471789     2.1286064985    13.2625555888
NI      9.8292614543     4.2554038580    13.2640478668
NI     11.0580137887     6.3843456221    13.2641718004
NI      2.4588334236     1.4196587789    15.2575869647
NI      3.6910796463     3.5437932772    15.2598633189
NI      4.9157007396     5.6733940479    15.2589535937
NI      6.1433501104     7.8022494943    15.2595667175
NI      4.9146450374     1.4247872373    15.2595841719
NI      6.1401581509     3.5448280821    15.2594844347
NI      7.3718111509     5.6721886809    15.2598873971
NI      8.6009144505     7.8034897954    15.2607239120
NI      7.3709856254     1.4199041690    15.2580793745
NI      8.5984955606     3.5498742935    15.2640548333
NI      9.8290285487     5.6744928362    15.2536387850
NI     11.0572068565     7.8041972145    15.2621069271
NI      9.8286401352     1.4181180996    15.2570064125
NI     11.0586237269     3.5469089396    15.2601819820
NI     12.2872405074     5.6736951731    15.2612578189
NI     13.5153169727     7.8032278078    15.2579622945
NI      1.2263686492     0.7089451219    17.2884338781
NI      2.4405094604     2.8384876979    17.2859451171
NI      3.6767268807     4.9792459937    17.2846829753
NI      4.9147993485     7.0961794208    17.2873573088
NI      3.6788670419     0.6953596076    17.2846227500
NI      4.9141495466     2.8371294660    17.3913221783
NI      6.1384555580     4.9770347301    17.2758056418
NI      7.3637837264     7.1079897136    17.2731943910
NI      6.1504855856     0.6951837870    17.2847047490
NI      7.3817294906     2.8265378096    17.2747667193
NI      8.6047153422     4.9886756083    17.2981214895
NI      9.8369889315     7.1063205644    17.2729503774
NI      8.6031834671     0.7098218802    17.2890951098
NI      9.8376513904     2.8233140428    17.2714892224
NI     11.0704578651     4.9638156425    17.2754730306
NI     12.2860273938     7.0931388181    17.2867637193
O       9.1646393645     3.6701120237    21.6630784556
O       8.6471312179     5.0209677803    19.3157922916
O       8.6602424160     5.0252237953    24.1320058077
C       8.6891607170     5.0301217642    21.7253107495
C       9.1551678420     5.7649459688    20.4640899779
C       9.1574069114     5.7337134946    22.9921746234
H       7.5829522889     4.9537053140    21.7098594320
H      10.2599367908     5.7791465793    20.4104704898
H       8.7702701051     6.7888857667    20.3898189209
H       8.8101764547     6.7886529147    22.9951896825
H      10.2710901791     5.7268780491    22.9916636344
H      10.1342118129     3.7369784356    21.6913772018
H       9.0114821615     4.1050982383    19.3857275963
H       9.0125623865     5.5049720530    24.9003710277
O       4.9150877321     2.8388645302    19.1772737893
H       4.9163865563     2.8371011923    20.1426011885
80
Step 3 | ATOMIC_POSITIONS (angstrom) | Cartesian Angstrom
NI      1.2286497520     0.7093615510    11.2500000000
NI      2.4572990100     2.8374462050    11.2500000000
NI      3.6859482670     4.9655308580    11.2500000000
NI      4.9145975240     7.0936155120    11.2500000000
NI      3.6859497520     0.7093615510    11.2500000000
NI      4.9145990100     2.8374462050    11.2500000000
NI      6.1432482670     4.9655308580    11.2500000000
NI      7.3718975240     7.0936155120    11.2500000000
NI      6.1432497520     0.7093615510    11.2500000000
NI      7.3718990100     2.8374462050    11.2500000000
NI      8.6005482670     4.9655308580    11.2500000000
NI      9.8291975240     7.0936155120    11.2500000000
NI      8.6005497520     0.7093615510    11.2500000000
NI      9.8291990100     2.8374462050    11.2500000000
NI     11.0578482670     4.9655308580    11.2500000000
NI     12.2864975240     7.0936155120    11.2500000000
NI      0.0004805166    -0.0005169623    13.2657266802
NI      1.2284585916     2.1284980215    13.2637345107
NI      2.4578487605     4.2560980307    13.2632078706
NI     13.5148009513     6.3837870659    13.2644202036
NI      2.4576750102    -0.0003050598    13.2632981575
NI      3.6859476439     2.1279897963    13.2643773565
NI      4.9146230566     4.2562598778    13.2627722614
NI      6.1436171063     6.3840650802    13.2626765413
NI      4.9144113088     0.0003854713    13.2635386381
NI      6.1434132607     2.1282810796    13.2631362413
NI      7.3709129702     4.2556900039    13.2623639956
NI      8.5997092165     6.3846644346    13.2648152041
NI      7.3710836438    -0.0005580104    13.2645468074
NI      8.6006375294     2.1288529193    13.2636464326
NI      9.8291932172     4.2551265514    13.2652651031
NI     11.0581542725     6.3844440702    13.2654259843
NI      2.4593172596     1.4199349148    15.2589936499
NI      3.6933656030     3.5425458074    15.2651890024
NI      4.9157096453     5.6730266084    15.2600639214
NI      6.1430775087     7.8022713266    15.2607090571
NI      4.9147071198     1.4274062179    15.2648073514
NI      6.1383006653     3.5436737203    15.2640959464
NI      7.3721594440     5.6714066277    15.2618211912
NI      8.6010981280     7.8037701448    15.2615272482
NI      7.3706968299     1.4199824511    15.2589861323
NI      8.5980481445     3.5511734554    15.2670137369
NI      9.8287998071     5.6742894269    15.2545042661
NI     11.0573622637     7.8047126330    15.2633852123
NI      9.8284529037     1.4176374196    15.2576208441
NI     11.0590084305     3.5469568683    15.2609363545
NI     12.2876875145     5.6735329446    15.2625354356
NI     13.5152708727     7.8032332400    15.2596838949
NI      1.2254249119     0.7087583387    17.2943615785
NI      2.4367937584     2.8381915683    17.2904446990
NI      3.6746495069     4.9829176121    17.2887885712
NI      4.9142790731     7.0975089033    17.2930201645
NI      3.6768364511     0.6925145759    17.2887300646
NI      4.9135932507     2.8366863089    17.4055836448
NI      6.1373861749     4.9804337570    17.2771537702
NI      7.3614410693     7.1119863824    17.2744539318
NI      6.1528184186     0.6918866927    17.2888207450
NI      7.3847980789     2.8243619817    17.2758863908
NI      8.6065864367     4.9952153867    17.3068153318
NI      9.8391838836     7.1092144848    17.2743853504
NI      8.6041578536     0.7090464301    17.2951585735
NI      9.8393045426     2.8206302993    17.2724595285
NI     11.0726344392     4.9639325712    17.2776386400
NI     12.2864795786     7.0933468039    17.2920886768
O       9.1604148813     3.6719184745    21.6585267044
O       8.6431849175     5.0139508469    19.3303272830
O       8.6601426605     5.0295049252    24.1330432786
C       8.6904696530     5.0292554849    21.7250539786
C       9.1533756415     5.7626311140    20.4635021959
C       9.1586830236     5.7336216079    22.9920227543
H       7.5901774780     4.9538540042    21.7111916325
H      10.2607466349     5.7838941007    20.4115905924
H       8.7684986863     6.7898724639    20.3852316110
H       8.8118831931     6.7886094591    22.9908865884
H      10.2705435555     5.7311705486    22.9885839956
H      10.1387708615     3.7304216520    21.6939239907
H       9.0074554589     4.1000926779    19.3942081274
H       9.0088357709     5.5001893135    24.9039601461
O       4.9153124611     2.8395865715    19.1782456470
H       4.9171971090     2.8369065387    20.1311115488
80
Step 4 | ATOMIC_POSITIONS (angstrom) | Cartesian Angstrom
NI      1.2286497520     0.7093615510    11.2500000000
NI      2.4572990100     2.8374462050    11.2500000000
NI      3.6859482670     4.9655308580    11.2500000000
NI      4.9145975240     7.0936155120    11.2500000000
NI      3.6859497520     0.7093615510    11.2500000000
NI      4.9145990100     2.8374462050    11.2500000000
NI      6.1432482670     4.9655308580    11.2500000000
NI      7.3718975240     7.0936155120    11.2500000000
NI      6.1432497520     0.7093615510    11.2500000000
NI      7.3718990100     2.8374462050    11.2500000000
NI      8.6005482670     4.9655308580    11.2500000000
NI      9.8291975240     7.0936155120    11.2500000000
NI      8.6005497520     0.7093615510    11.2500000000
NI      9.8291990100     2.8374462050    11.2500000000
NI     11.0578482670     4.9655308580    11.2500000000
NI     12.2864975240     7.0936155120    11.2500000000
NI      0.0004868928    -0.0009601032    13.2681394573
NI      1.2285044946     2.1286190841    13.2653756841
NI      2.4585403944     4.2559355041    13.2656496714
NI     13.5146401940     6.3836012600    13.2667825621
NI      2.4577728068    -0.0004539228    13.2650825480
NI      3.6862944517     2.1282248354    13.2668833041
NI      4.9145438336     4.2559820210    13.2648007046
NI      6.1437706832     6.3838852278    13.2642895332
NI      4.9145174335     0.0009434899    13.2661985052
NI      6.1431407908     2.1283890708    13.2651466286
NI      7.3703928475     4.2552286556    13.2644170011
NI      8.5992337598     6.3847638984    13.2665391600
NI      7.3707808834    -0.0008563296    13.2668049377
NI      8.6005293683     2.1295505482    13.2658644002
NI      9.8288908207     4.2545504129    13.2674363182
NI     11.0584346264     6.3846204476    13.2676865846
NI      2.4602383073     1.4204826888    15.2644985969
NI      3.6983514691     3.5399661950    15.2810916427
NI      4.9155281594     5.6724314234    15.2642917156
NI      6.1421724086     7.8024699125    15.2649349224
NI      4.9149521105     1.4330466641    15.2804629869
NI      6.1341607160     3.5410828765    15.2778066639
NI      7.3731637545     5.6697576494    15.2683233462
NI      8.6015941639     7.8045064076    15.2644293679
NI      7.3702327674     1.4199564634    15.2628293810
NI      8.5971911881     3.5542476632    15.2754707824
NI      9.8281890586     5.6738335153    15.2593908239
NI     11.0580145897     7.8059718929    15.2673949258
NI      9.8279595369     1.4164097689    15.2609412755
NI     11.0600272285     3.5470735148    15.2638270249
NI     12.2888359215     5.6733265998    15.2667871007
NI     13.5151031236     7.8031926995    15.2660806902
NI      1.2229597603     0.7083711384    17.3078425881
NI      2.4297134764     2.8371151681    17.3005365055
NI      3.6707427724     4.9905917965    17.2979844308
NI      4.9126739461     7.1009344345    17.3059867896
NI      3.6725123423     0.6874604534    17.2979589967
NI      4.9121740454     2.8354682042    17.4208052848
NI      6.1354870083     4.9878893567    17.2802466513
NI      7.3564733612     7.1203572607    17.2776111241
NI      6.1582075493     0.6856530769    17.2980358814
NI      7.3916774824     2.8207093530    17.2785451614
NI      8.6110189401     5.0091749291    17.3277561373
NI      9.8438420537     7.1148171712    17.2780765358
NI      8.6065033147     0.7066797047    17.3089092052
NI      9.8420803991     2.8162716873    17.2751161489
NI     11.0759697849     4.9647804179    17.2829051766
NI     12.2879110210     7.0940680143    17.3041601210
O       9.1640168898     3.6782485830    21.6494921548
O       8.6339929819     4.9983899972    19.3621011576
O       8.6600344125     5.0395312625    24.1289312851
C       8.6942176502     5.0314049076    21.7244304320
C       9.1510763144     5.7587616469    20.4633363622
C       9.1619811296     5.7335174998    22.9881105978
H       7.6030134177     4.9540274860    21.7149551016
H      10.2586832496     5.7951727332    20.4126973899
H       8.7650337453     6.7868606594    20.3745977348
H       8.8165540170     6.7844864500    22.9812062300
H      10.2683283814     5.7412367218    22.9841722808
H      10.1386776280     3.7122504576    21.6999348971
H       8.9975672101     4.0871962338    19.4172245669
H       9.0016934704     5.4912092277    24.9179766973
O       4.9158673384     2.8417250374    19.1719857324
H       4.9193751910     2.8362336157    20.1289558558
80
Step 5 | ATOMIC_POSITIONS (angstrom) | Cartesian Angstrom
NI      1.2286497520     0.7093615510    11.2500000000
NI      2.4572990100     2.8374462050    11.2500000000
NI      3.6859482670     4.9655308580    11.2500000000
NI      4.9145975240     7.0936155120    11.2500000000
NI      3.6859497520     0.7093615510    11.2500000000
NI      4.9145990100     2.8374462050    11.2500000000
NI      6.1432482670     4.9655308580    11.2500000000
NI      7.3718975240     7.0936155120    11.2500000000
NI      6.1432497520     0.7093615510    11.2500000000
NI      7.3718990100     2.8374462050    11.2500000000
NI      8.6005482670     4.9655308580    11.2500000000
NI      9.8291975240     7.0936155120    11.2500000000
NI      8.6005497520     0.7093615510    11.2500000000
NI      9.8291990100     2.8374462050    11.2500000000
NI     11.0578482670     4.9655308580    11.2500000000
NI     12.2864975240     7.0936155120    11.2500000000
NI      0.0002587955    -0.0014482516    13.2701843390
NI      1.2287075845     2.1285918822    13.2668329998
NI      2.4597358563     4.2554969984    13.2687747270
NI     13.5145526714     6.3835102715    13.2690090781
NI      2.4578129545    -0.0004318313    13.2668087300
NI      3.6869602364     2.1286645570    13.2703517166
NI      4.9144080898     4.2553052506    13.2677516824
NI      6.1440038303     6.3835341702    13.2661091335
NI      4.9146866452     0.0020916783    13.2695109532
NI      6.1424759787     2.1285796189    13.2679885353
NI      7.3695848110     4.2545701922    13.2674461564
NI      8.5988817860     6.3846630215    13.2679776213
NI      7.3706979415    -0.0010725712    13.2688225026
NI      8.6003234452     2.1304364981    13.2682925530
NI      9.8284546651     4.2541791210    13.2693827897
NI     11.0585178960     6.3846487496    13.2697123963
NI      2.4608211614     1.4208622637    15.2729930181
NI      3.7022018626     3.5381235169    15.3008512001
NI      4.9151271017     5.6722860285    15.2707199902
NI      6.1409700363     7.8028959677    15.2712367911
NI      4.9152589236     1.4372967233    15.2999437163
NI      6.1308570851     3.5389783715    15.2945439373
NI      7.3744087573     5.6684959343    15.2775631242
NI      8.6022025081     7.8055050258    15.2687271173
NI      7.3701475104     1.4196826761    15.2690185694
NI      8.5966450780     3.5573454445    15.2859739246
NI      9.8275194743     5.6735254083    15.2680909407
NI     11.0589883053     7.8073391509    15.2728301477
NI      9.8274583821     1.4151638761    15.2668490063
NI     11.0613638576     3.5471357664    15.2682862561
NI     12.2900720653     5.6732864004    15.2728386464
NI     13.5148487689     7.8030743899    15.2756367825
NI      1.2201168822     0.7082555575    17.3217153685
NI      2.4245091415     2.8356195554    17.3111551180
NI      3.6680014350     4.9971560240    17.3077441239
NI      4.9106441099     7.1047715036    17.3195437945
NI      3.6686975169     0.6844298046    17.3077653308
NI      4.9106728920     2.8339466213    17.4118444746
NI      6.1345148708     4.9949642075    17.2843518810
NI      7.3523003813     7.1275259086    17.2817394074
NI      6.1636692147     0.6814179521    17.3077842361
NI      7.3983430973     2.8190753904    17.2823411644
NI      8.6153677129     5.0215173926    17.3516178387
NI      9.8478671107     7.1192185945    17.2828215322
NI      8.6089592999     0.7038087067    17.3230660716
NI      9.8434809485     2.8146339059    17.2789926071
NI     11.0771046288     4.9664141613    17.2890947031
NI     12.2896775644     7.0950488557    17.3166274590
O       9.1684359586     3.6839413311    21.6412823595
O       8.6223384656     4.9802720617    19.3858600976
O       8.6608669818     5.0509068089    24.1260138116
C       8.7009671660     5.0367055770    21.7254836943
C       9.1522757813     5.7579746306    20.4666015112
C       9.1676420498     5.7348188140    22.9828435354
H       7.6110225685     4.9537464146    21.7196588319
H      10.2527922631     5.8070973035    20.4116368377
H       8.7607171600     6.7791795654    20.3632833943
H       8.8210574700     6.7792077582    22.9705209701
H      10.2672641622     5.7517971514    22.9824245487
H      10.1398190293     3.6916424610    21.7073729939
H       8.9862571010     4.0719197556    19.4472329155
H       8.9934138492     5.4809256114    24.9309773011
O       4.9165962340     2.8448996435    19.1854550381
H       4.9221274225     2.8351210140    20.1309178661
80
Step 6 | ATOMIC_POSITIONS (angstrom) | Cartesian Angstrom
NI      1.2286497520     0.7093615510    11.2500000000
NI      2.4572990100     2.8374462050    11.2500000000
NI      3.6859482670     4.9655308580    11.2500000000
NI      4.9145975240     7.0936155120    11.2500000000
NI      3.6859497520     0.7093615510    11.2500000000
NI      4.9145990100     2.8374462050    11.2500000000
NI      6.1432482670     4.9655308580    11.2500000000
NI      7.3718975240     7.0936155120    11.2500000000
NI      6.1432497520     0.7093615510    11.2500000000
NI      7.3718990100     2.8374462050    11.2500000000
NI      8.6005482670     4.9655308580    11.2500000000
NI      9.8291975240     7.0936155120    11.2500000000
NI      8.6005497520     0.7093615510    11.2500000000
NI      9.8291990100     2.8374462050    11.2500000000
NI     11.0578482670     4.9655308580    11.2500000000
NI     12.2864975240     7.0936155120    11.2500000000
NI     -0.0001933411    -0.0018877572    13.2727978342
NI      1.2290578913     2.1283659110    13.2690123883
NI      2.4613511719     4.2548103013    13.2731099360
NI     13.5145832397     6.3835267418    13.2718346542
NI      2.4577826774    -0.0001543723    13.2692322053
NI      3.6878347108     2.1292150820    13.2757223658
NI      4.9142273323     4.2543251257    13.2723996671
NI      6.1442794749     6.3830141057    13.2689295272
NI      4.9148848087     0.0037758364    13.2739386032
NI      6.1415232161     2.1288228861    13.2725046842
NI      7.3684482129     4.2537950096    13.2721309054
NI      8.5987122686     6.3843802243    13.2702907234
NI      7.3708850751    -0.0011311760    13.2713698871
NI      8.6000411511     2.1313208607    13.2716345466
NI      9.8280259186     4.2540939222    13.2721572037
NI     11.0583501479     6.3844849349    13.2725004391
NI      2.4609374878     1.4210173763    15.2822335079
NI      3.7038830217     3.5375453169    15.3188059717
NI      4.9147763691     5.6726161516    15.2777488842
NI      6.1397370723     7.8033854248    15.2779945017
NI      4.9155975030     1.4389899930    15.3175928418
NI      6.1294920293     3.5380497988    15.3092282654
NI      7.3756043436     5.6678258987    15.2874040631
NI      8.6027829367     7.8066522617    15.2734568075
NI      7.3705428723     1.4194049394    15.2759547639
NI      8.5964280284     3.5599777698    15.2962673304
NI      9.8269122058     5.6734770577    15.2779070475
NI     11.0600507291     7.8086102440    15.2786328293
NI      9.8269968743     1.4142583311    15.2736771433
NI     11.0628123082     3.5470978908    15.2732992156
NI     12.2911392811     5.6733492528    15.2794604812
NI     13.5146008308     7.8029574921    15.2857703070
NI      1.2172609819     0.7086268965    17.3354097152
NI      2.4207454392     2.8343637328    17.3226782739
NI      3.6662419782     5.0022797098    17.3184858249
NI      4.9088096535     7.1082894429    17.3331589062
NI      3.6657198109     0.6828900567    17.3185926621
NI      4.9096758393     2.8325497319    17.4072982537
NI      6.1342447666     5.0011532479    17.2904825574
NI      7.3492779530     7.1331755332    17.2870876248
NI      6.1687106433     0.6791211899    17.3184648735
NI      7.4040476222     2.8189162206    17.2882061493
NI      8.6188358334     5.0314445069    17.3772629715
NI      9.8510294623     7.1229435112    17.2885833510
NI      8.6111602651     0.7015166342    17.3371212879
NI      9.8440257582     2.8149487443    17.2841980431
NI     11.0771448636     4.9683382085    17.2960879877
NI     12.2911556975     7.0959861817    17.3291455166
O       9.1685625014     3.6841670760    21.6334303400
O       8.6089209234     4.9616234710    19.3988627328
O       8.6594709082     5.0581545257    24.1257683308
C       8.7085843756     5.0397082818    21.7297419873
C       9.1518767465     5.7586653731    20.4703198284
C       9.1740612164     5.7381501469    22.9842100101
H       7.6174559423     4.9538953393    21.7246415509
H      10.2497231054     5.8183727715    20.4087097247
H       8.7539268913     6.7730092107    20.3518313182
H       8.8237622108     6.7795997300    22.9584706682
H      10.2720123302     5.7620139967    22.9813479620
H      10.1453683147     3.6722007520    21.7162422879
H       8.9745431734     4.0539566964    19.4820531623
H       8.9856307236     5.4714774330    24.9396074956
O       4.9172834963     2.8493428416    19.1841888380
H       4.9253872570     2.8332673687    20.1459559413
80
Step 7 | ATOMIC_POSITIONS (angstrom) | Cartesian Angstrom
NI      1.2286497520     0.7093615510    11.2500000000
NI      2.4572990100     2.8374462050    11.2500000000
NI      3.6859482670     4.9655308580    11.2500000000
NI      4.9145975240     7.0936155120    11.2500000000
NI      3.6859497520     0.7093615510    11.2500000000
NI      4.9145990100     2.8374462050    11.2500000000
NI      6.1432482670     4.9655308580    11.2500000000
NI      7.3718975240     7.0936155120    11.2500000000
NI      6.1432497520     0.7093615510    11.2500000000
NI      7.3718990100     2.8374462050    11.2500000000
NI      8.6005482670     4.9655308580    11.2500000000
NI      9.8291975240     7.0936155120    11.2500000000
NI      8.6005497520     0.7093615510    11.2500000000
NI      9.8291990100     2.8374462050    11.2500000000
NI     11.0578482670     4.9655308580    11.2500000000
NI     12.2864975240     7.0936155120    11.2500000000
NI     -0.0009697958    -0.0022250267    13.2763494945
NI      1.2295359907     2.1278742845    13.2723540651
NI      2.4634079637     4.2538955967    13.2790429018
NI     13.5148108856     6.3836823862    13.2756238228
NI      2.4576076616     0.0004305476    13.2727488151
NI      3.6889274894     2.1298966205    13.2838383836
NI      4.9140366219     4.2530572801    13.2794831849
NI      6.1445912427     6.3822398723    13.2732822521
NI      4.9151681161     0.0060237488    13.2797922824
NI      6.1403294045     2.1291373823    13.2794355762
NI      7.3669718338     4.2529505169    13.2791067908
NI      8.5987704205     6.3838224157    13.2740290599
NI      7.3714786773    -0.0009201149    13.2747786025
NI      8.5996431019     2.1321753973    13.2763381942
NI      9.8276157876     4.2544028102    13.2762484755
NI     11.0578673158     6.3840637294    13.2764765026
NI      2.4603125393     1.4208229409    15.2926632269
NI      3.7025011508     3.5388326931    15.3336875949
NI      4.9145721496     5.6736334526    15.2858695240
NI      6.1384894995     7.8039355130    15.2855253039
NI      4.9160507736     1.4370289541    15.3321208959
NI      6.1309665956     3.5388979083    15.3206559925
NI      7.3767918892     5.6681260909    15.2982719657
NI      8.6032008929     7.8078635692    15.2790402236
NI      7.3716815181     1.4192264867    15.2841914474
NI      8.5967886961     3.5618780385    15.3061830373
NI      9.8262938815     5.6737721001    15.2894713919
NI     11.0613093577     7.8096198676    15.2851588517
NI      9.8265746128     1.4139532682    15.2819844413
NI     11.0641926564     3.5469585793    15.2793371163
NI     12.2918841350     5.6736864685    15.2870861468
NI     13.5143957966     7.8028829186    15.2966938515
NI      1.2145047084     0.7097871517    17.3486519346
NI      2.4191288097     2.8336563715    17.3354627760
NI      3.6660139339     5.0051483909    17.3305850360
NI      4.9074245173     7.1111407534    17.3466827756
NI      3.6640791896     0.6835731523    17.3308894626
NI      4.9096673352     2.8314090969    17.4042030232
NI      6.1349662975     5.0058726246    17.2996722233
NI      7.3480861982     7.1364435691    17.2943452809
NI      6.1730375327     0.6798308370    17.3304112675