80
Step 1 | ATOMIC_POSITIONS (angstrom) | Cartesian Angstrom
Ni      1.2286497520     0.7093615510    11.2500000000
Ni      2.4572990100     2.8374462050    11.2500000000
Ni      3.6859482670     4.9655308580    11.2500000000
Ni      4.9145975240     7.0936155120    11.2500000000
Ni      3.6859497520     0.7093615510    11.2500000000
Ni      4.9145990100     2.8374462050    11.2500000000
Ni      6.1432482670     4.9655308580    11.2500000000
Ni      7.3718975240     7.0936155120    11.2500000000
Ni      6.1432497520     0.7093615510    11.2500000000
Ni      7.3718990100     2.8374462050    11.2500000000
Ni      8.6005482670     4.9655308580    11.2500000000
Ni      9.8291975240     7.0936155120    11.2500000000
Ni      8.6005497520     0.7093615510    11.2500000000
Ni      9.8291990100     2.8374462050    11.2500000000
Ni     11.0578482670     4.9655308580    11.2500000000
Ni     12.2864975240     7.0936155120    11.2500000000
Ni      9.8231926171     0.0024995243    13.3023445018
Ni     11.0518089828     2.1302240239    13.3047084143
Ni     12.2800508463     4.2570722555    13.3044621731
Ni     13.5092872810     6.3850384707    13.3032135992
Ni      2.4517697468     0.0021660604    13.3026623602
Ni      3.6803279060     2.1303359400    13.3041136817
Ni      4.9088074779     4.2579363993    13.3054287219
Ni      6.1372745399     6.3857876859    13.3032783461
Ni      4.9086517489     0.0018312679    13.3024059973
Ni      6.1374036900     2.1309748259    13.3056096279
Ni      7.3661494965     4.2582451225    13.3069521294
Ni      8.5943412642     6.3854189356    13.3048452032
Ni      7.3652045598     0.0023769347    13.3020218594
Ni      8.5942385870     2.1304695640    13.3043867892
Ni      9.8231946460     4.2572739586    13.3057508082
Ni     11.0517679487     6.3857120742    13.3033345673
Ni      2.4490340007     1.4222228898    15.3362210296
Ni      3.6772966341     3.5494520402    15.3385526486
Ni      4.9062018309     5.6779299863    15.3378107865
Ni      6.1346571371     7.8070605965    15.3335997660
Ni      4.9058225440     1.4219700119    15.3362205140
Ni      6.1346426161     3.5508505239    15.3401416952
Ni      7.3625330181     5.6784279340    15.3395242275
Ni      8.5915701699     7.8062468637    15.3354849978
Ni      7.3627070876     1.4224398614    15.3370387851
Ni      8.5913286878     3.5492678034    15.3408173342
Ni      9.8201850892     5.6778143966    15.3377748313
Ni     11.0486432903     7.8070022870    15.3347461742
Ni      9.8200953687     1.4222882767    15.3366655971
Ni     11.0486075170     3.5492992344    15.3407266613
Ni     12.2774144290     5.6772885475    15.3359640395
Ni     13.5061541408     7.8063455598    15.3319300907
Ni      1.2182296651     0.7143197851    17.3886305812
Ni      2.4413134221     2.8424046188    17.3925188844
Ni      3.6723499038     4.9762181810    17.3898573431
Ni      4.9046722190     7.0997592509    17.3862819877
Ni      3.6730888013     0.7082059339    17.3885421672
Ni      4.9036900243     2.8422693408    17.4065301444
Ni      6.1302930895     4.9764597435    17.3915735073
Ni      7.3585685697     7.1046651042    17.3850155803
Ni      6.1358502566     0.7072706094    17.3890244521
Ni      7.3653994674     2.8368360934    17.3911275305
Ni      8.5913969551     4.9800721317    17.3821915009
Ni      9.8225086016     7.1046174587    17.3839063421
Ni      8.5918094087     0.7135238179    17.3887823849
Ni      9.8230565104     2.8353453316    17.3899902396
Ni     11.0537588746     4.9697828282    17.3884211779
Ni     12.2762680879     7.0986585375    17.3854750398
O       9.1604840907     3.6877935292    21.6768359415
O       8.6664931275     5.0417012882    19.3224942838
O       8.6726945680     5.0335927823    24.1247254326
C       8.6815329018     5.0346642451    21.7132495364
C       9.1495754956     5.7593882568    20.4601225702
C       9.1547021593     5.7306457307    22.9761350527
H       7.5675632235     4.9520499021    21.7095875649
H      10.2532209553     5.7701966416    20.4022002827
H       8.7770117677     6.7759001566    20.3998554212
H       8.8105991245     6.7705731689    23.0079831438
H      10.2637154589     5.7185400667    23.0081056967
H      10.1401620403     3.7445292702    21.6866500278
H       9.0175718821     4.1162428405    19.3732432672
H       9.0167842220     5.5100414378    24.8976958636
O       4.9153862758     2.8378001778    19.2302078818
H       4.9148259836     2.8373867478    20.1810960946
80
Step 2 | ATOMIC_POSITIONS (angstrom) | Cartesian Angstrom
Ni      1.2286497520     0.7093615510    11.2500000000
Ni      2.4572990100     2.8374462050    11.2500000000
Ni      3.6859482670     4.9655308580    11.2500000000
Ni      4.9145975240     7.0936155120    11.2500000000
Ni      3.6859497520     0.7093615510    11.2500000000
Ni      4.9145990100     2.8374462050    11.2500000000
Ni      6.1432482670     4.9655308580    11.2500000000
Ni      7.3718975240     7.0936155120    11.2500000000
Ni      6.1432497520     0.7093615510    11.2500000000
Ni      7.3718990100     2.8374462050    11.2500000000
Ni      8.6005482670     4.9655308580    11.2500000000
Ni      9.8291975240     7.0936155120    11.2500000000
Ni      8.6005497520     0.7093615510    11.2500000000
Ni      9.8291990100     2.8374462050    11.2500000000
Ni     11.0578482670     4.9655308580    11.2500000000
Ni     12.2864975240     7.0936155120    11.2500000000
Ni      9.8231926171     0.0024995243    13.3023445018
Ni     11.0518089828     2.1302240239    13.3047084143
Ni     12.2800508463     4.2570722555    13.3044621731
Ni     13.5092872810     6.3850384707    13.3032135992
Ni      2.4517697468     0.0021660604    13.3026623602
Ni      3.6803279060     2.1303359400    13.3041136817
Ni      4.9088074779     4.2579363993    13.3054287219
Ni      6.1372745399     6.3857876859    13.3032783461
Ni      4.9086517489     0.0018312679    13.3024059973
Ni      6.1374036900     2.1309748259    13.3056096279
Ni      7.3661494965     4.2582451225    13.3069521294
Ni      8.5943412642     6.3854189356    13.3048452032
Ni      7.3652045598     0.0023769347    13.3020218594
Ni      8.5942385870     2.1304695640    13.3043867892
Ni      9.8231946460     4.2572739586    13.3057508082
Ni     11.0517679487     6.3857120742    13.3033345673
Ni      2.4490340007     1.4222228898    15.3362210296
Ni      3.6772966341     3.5494520402    15.3385526486
Ni      4.9062018309     5.6779299863    15.3378107865
Ni      6.1346571371     7.8070605965    15.3335997660
Ni      4.9058225440     1.4219700119    15.3362205140
Ni      6.1346426161     3.5508505239    15.3401416952
Ni      7.3625330181     5.6784279340    15.3395242275
Ni      8.5915701699     7.8062468637    15.3354849978
Ni      7.3627070876     1.4224398614    15.3370387851
Ni      8.5913286878     3.5492678034    15.3408173342
Ni      9.8201850892     5.6778143966    15.3377748313
Ni     11.0486432903     7.8070022870    15.3347461742
Ni      9.8200953687     1.4222882767    15.3366655971
Ni     11.0486075170     3.5492992344    15.3407266613
Ni     12.2774144290     5.6772885475    15.3359640395
Ni     13.5061541408     7.8063455598    15.3319300907
Ni      1.2169353376     0.7138333540    17.3900789581
Ni      2.4303239417     2.8428365709    17.3905639288
Ni      3.6663429756     4.9852601410    17.3872378801
Ni      4.9046800959     7.1014002875    17.3871478078
Ni      3.6683942946     0.6992686902    17.3860206414
Ni      4.9033142805     2.8418811033    17.4341347330
Ni      6.1271601197     4.9837502870    17.3820107534
Ni      7.3529682144     7.1143011699    17.3755876565
Ni      6.1408651157     0.6985177725    17.3865058765
Ni      7.3715799579     2.8293603173    17.3810287914
Ni      8.5926830814     4.9961298123    17.3649639649
Ni      9.8278774053     7.1131296942    17.3739702584
Ni      8.5933049114     0.7137426841    17.3903428792
Ni      9.8288730818     2.8256684056    17.3788344368
Ni     11.0627817072     4.9687682360    17.3799163029
Ni     12.2763649510     7.0981393380    17.3859318279
O       9.1624199574     3.6726100311    21.6650447167
O       8.6446336618     5.0211405212    19.3502412526
O       8.6623217429     5.0264859824    24.1310222907
C       8.6911457125     5.0313004678    21.7255436087
C       9.1559058678     5.7695784245    20.4735903049
C       9.1553666625     5.7334460325    22.9892339874
H       7.5786830507     4.9533735419    21.7098794320
H      10.2599244470     5.7777106536    20.4080350334
H       8.7714359769     6.7881301353    20.3912108643
H       8.8102632675     6.7859997493    22.9973307404
H      10.2707051932     5.7253956016    22.9941000595
H      10.1357478662     3.7382532226    21.6900833911
H       9.0159821106     4.0993152972    19.3893654250
H       9.0131334997     5.5056283894    24.8994922725
O       4.9170911279     2.8385922212    19.2162624000
H       4.9153137069     2.8372681514    20.1801019991
80
Step 3 | ATOMIC_POSITIONS (angstrom) | Cartesian Angstrom
Ni      1.2286497520     0.7093615510    11.2500000000
Ni      2.4572990100     2.8374462050    11.2500000000
Ni      3.6859482670     4.9655308580    11.2500000000
Ni      4.9145975240     7.0936155120    11.2500000000
Ni      3.6859497520     0.7093615510    11.2500000000
Ni      4.9145990100     2.8374462050    11.2500000000
Ni      6.1432482670     4.9655308580    11.2500000000
Ni      7.3718975240     7.0936155120    11.2500000000
Ni      6.1432497520     0.7093615510    11.2500000000
Ni      7.3718990100     2.8374462050    11.2500000000
Ni      8.6005482670     4.9655308580    11.2500000000
Ni      9.8291975240     7.0936155120    11.2500000000
Ni      8.6005497520     0.7093615510    11.2500000000
Ni      9.8291990100     2.8374462050    11.2500000000
Ni     11.0578482670     4.9655308580    11.2500000000
Ni     12.2864975240     7.0936155120    11.2500000000
Ni      9.8231926171     0.0024995243    13.3023445018
Ni     11.0518089828     2.1302240239    13.3047084143
Ni     12.2800508463     4.2570722555    13.3044621731
Ni     13.5092872810     6.3850384707    13.3032135992
Ni      2.4517697468     0.0021660604    13.3026623602
Ni      3.6803279060     2.1303359400    13.3041136817
Ni      4.9088074779     4.2579363993    13.3054287219
Ni      6.1372745399     6.3857876859    13.3032783461
Ni      4.9086517489     0.0018312679    13.3024059973
Ni      6.1374036900     2.1309748259    13.3056096279
Ni      7.3661494965     4.2582451225    13.3069521294
Ni      8.5943412642     6.3854189356    13.3048452032
Ni      7.3652045598     0.0023769347    13.3020218594
Ni      8.5942385870     2.1304695640    13.3043867892
Ni      9.8231946460     4.2572739586    13.3057508082
Ni     11.0517679487     6.3857120742    13.3033345673
Ni      2.4490340007     1.4222228898    15.3362210296
Ni      3.6772966341     3.5494520402    15.3385526486
Ni      4.9062018309     5.6779299863    15.3378107865
Ni      6.1346571371     7.8070605965    15.3335997660
Ni      4.9058225440     1.4219700119    15.3362205140
Ni      6.1346426161     3.5508505239    15.3401416952
Ni      7.3625330181     5.6784279340    15.3395242275
Ni      8.5915701699     7.8062468637    15.3354849978
Ni      7.3627070876     1.4224398614    15.3370387851
Ni      8.5913286878     3.5492678034    15.3408173342
Ni      9.8201850892     5.6778143966    15.3377748313
Ni     11.0486432903     7.8070022870    15.3347461742
Ni      9.8200953687     1.4222882767    15.3366655971
Ni     11.0486075170     3.5492992344    15.3407266613
Ni     12.2774144290     5.6772885475    15.3359640395
Ni     13.5061541408     7.8063455598    15.3319300907
Ni      1.2154088949     0.7132130003    17.3914496980
Ni      2.4224328924     2.8426194144    17.3885096019
Ni      3.6619086980     4.9923745507    17.3846049521
Ni      4.9041138325     7.1035630815    17.3879027080
Ni      3.6645834881     0.6930764514    17.3834682433
Ni      4.9021632167     2.8412223341    17.4462177230
Ni      6.1249851956     4.9898936653    17.3732097084
Ni      7.3484004595     7.1222075002    17.3672703215
Ni      6.1452135765     0.6918992428    17.3839649068
Ni      7.3772912420     2.8244798573    17.3716348574
Ni      8.5950505678     5.0085460166    17.3600319047
Ni      9.8322848565     7.1193021677    17.3655330510
Ni      8.5949482883     0.7128267934    17.3917191342
Ni      9.8327054877     2.8195862023    17.3690737362
Ni     11.0683511242     4.9685169124    17.3727070342
Ni     12.2769434454     7.0980722367    17.3861675053
O       9.1634978602     3.6704488910    21.6564006715
O       8.6295015704     4.9992216874    19.3713097768
O       8.6580296116     5.0281854182    24.1338172524
C       8.6884769182     5.0301481943    21.7339446408
C       9.1602426279     5.7668874005    20.4806201233
C       9.1607670225     5.7330884791    22.9967430425
H       7.5946080497     4.9547989759    21.7112603103
H      10.2633723013     5.7864265519    20.4121299562
H       8.7669413052     6.7966274959    20.3845346679
H       8.8114450016     6.7918900105    22.9889053568
H      10.2707548227     5.7325208428    22.9860988391
H      10.1357257331     3.7283050868    21.6937280303
H       9.0110113040     4.0924351553    19.4072871379
H       9.0083106537     5.4995486118    24.9045120713
O       4.9191638076     2.8394771689    19.2238215287
H       4.9158027393     2.8371341978    20.1715698591
80
Step 4 | ATOMIC_POSITIONS (angstrom) | Cartesian Angstrom
Ni      1.2286497520     0.7093615510    11.2500000000
Ni      2.4572990100     2.8374462050    11.2500000000
Ni      3.6859482670     4.9655308580    11.2500000000
Ni      4.9145975240     7.0936155120    11.2500000000
Ni      3.6859497520     0.7093615510    11.2500000000
Ni      4.9145990100     2.8374462050    11.2500000000
Ni      6.1432482670     4.9655308580    11.2500000000
Ni      7.3718975240     7.0936155120    11.2500000000
Ni      6.1432497520     0.7093615510    11.2500000000
Ni      7.3718990100     2.8374462050    11.2500000000
Ni      8.6005482670     4.9655308580    11.2500000000
Ni      9.8291975240     7.0936155120    11.2500000000
Ni      8.6005497520     0.7093615510    11.2500000000
Ni      9.8291990100     2.8374462050    11.2500000000
Ni     11.0578482670     4.9655308580    11.2500000000
Ni     12.2864975240     7.0936155120    11.2500000000
Ni      9.8231926171     0.0024995243    13.3023445018
Ni     11.0518089828     2.1302240239    13.3047084143
Ni     12.2800508463     4.2570722555    13.3044621731
Ni     13.5092872810     6.3850384707    13.3032135992
Ni      2.4517697468     0.0021660604    13.3026623602
Ni      3.6803279060     2.1303359400    13.3041136817
Ni      4.9088074779     4.2579363993    13.3054287219
Ni      6.1372745399     6.3857876859    13.3032783461
Ni      4.9086517489     0.0018312679    13.3024059973
Ni      6.1374036900     2.1309748259    13.3056096279
Ni      7.3661494965     4.2582451225    13.3069521294
Ni      8.5943412642     6.3854189356    13.3048452032
Ni      7.3652045598     0.0023769347    13.3020218594
Ni      8.5942385870     2.1304695640    13.3043867892
Ni      9.8231946460     4.2572739586    13.3057508082
Ni     11.0517679487     6.3857120742    13.3033345673
Ni      2.4490340007     1.4222228898    15.3362210296
Ni      3.6772966341     3.5494520402    15.3385526486
Ni      4.9062018309     5.6779299863    15.3378107865
Ni      6.1346571371     7.8070605965    15.3335997660
Ni      4.9058225440     1.4219700119    15.3362205140
Ni      6.1346426161     3.5508505239    15.3401416952
Ni      7.3625330181     5.6784279340    15.3395242275
Ni      8.5915701699     7.8062468637    15.3354849978
Ni      7.3627070876     1.4224398614    15.3370387851
Ni      8.5913286878     3.5492678034    15.3408173342
Ni      9.8201850892     5.6778143966    15.3377748313
Ni     11.0486432903     7.8070022870    15.3347461742
Ni      9.8200953687     1.4222882767    15.3366655971
Ni     11.0486075170     3.5492992344    15.3407266613
Ni     12.2774144290     5.6772885475    15.3359640395
Ni     13.5061541408     7.8063455598    15.3319300907
Ni      1.2139086915     0.7127045992    17.3925026949
Ni      2.4186580905     2.8419657239    17.3868260294
Ni      3.6597175813     4.9964709034    17.3824945311
Ni      4.9031743518     7.1057036614    17.3884257487
Ni      3.6623288482     0.6904452583    17.3814446256
Ni      4.9007633977     2.8404947507    17.4488759418
Ni      6.1239489376     4.9938754770    17.3666832288
Ni      7.3455453124     7.1270939527    17.3614215317
Ni      6.1482374978     0.6885558851    17.3819287237
Ni      7.3813144045     2.8225946952    17.3645437429
Ni      8.5975162928     5.0157871004    17.3650311302
Ni      9.8350726135     7.1224722961    17.3598689571
Ni      8.5963849793     0.7112409560    17.3926779034
Ni      9.8342176133     2.8174304282    17.3620854870
Ni     11.0701543066     4.9690042501    17.3678076598
Ni     12.2778050309     7.0983787726    17.3861875603
O       9.1628697377     3.6740795550    21.6520690570
O       8.6191638235     4.9890507629    19.3830678867
O       8.6579453810     5.0335151840    24.1335202499
C       8.6947026738     5.0319815210    21.7381825003
C       9.1562432312     5.7648049839    20.4821339478
C       9.1614922843     5.7337457614    22.9973161143
H       7.6009342544     4.9553724421    21.7134733885
H      10.2644715146     5.7932998826    20.4142907626
H       8.7661078698     6.7942779248    20.3802860550
H       8.8142402029     6.7893206711    22.9836253217
H      10.2702194046     5.7380412863    22.9836262944
H      10.1377609558     3.7185492435    21.6971853876
H       9.0076139074     4.0845076302    19.4247374090
H       9.0042529552     5.4944381114    24.9124936448
O       4.9214245436     2.8404637877    19.2206237666
H       4.9160873579     2.8369010469    20.1802673355
80
Step 5 | ATOMIC_POSITIONS (angstrom) | Cartesian Angstrom
Ni      1.2286497520     0.7093615510    11.2500000000
Ni      2.4572990100     2.8374462050    11.2500000000
Ni      3.6859482670     4.9655308580    11.2500000000
Ni      4.9145975240     7.0936155120    11.2500000000
Ni      3.6859497520     0.7093615510    11.2500000000
Ni      4.9145990100     2.8374462050    11.2500000000
Ni      6.1432482670     4.9655308580    11.2500000000
Ni      7.3718975240     7.0936155120    11.2500000000
Ni      6.1432497520     0.7093615510    11.2500000000
Ni      7.3718990100     2.8374462050    11.2500000000
Ni      8.6005482670     4.9655308580    11.2500000000
Ni      9.8291975240     7.0936155120    11.2500000000
Ni      8.6005497520     0.7093615510    11.2500000000
Ni      9.8291990100     2.8374462050    11.2500000000
Ni     11.0578482670     4.9655308580    11.2500000000
Ni     12.2864975240     7.0936155120    11.2500000000
Ni      9.8231926171     0.0024995243    13.3023445018
Ni     11.0518089828     2.1302240239    13.3047084143
Ni     12.2800508463     4.2570722555    13.3044621731
Ni     13.5092872810     6.3850384707    13.3032135992
Ni      2.4517697468     0.0021660604    13.3026623602
Ni      3.6803279060     2.1303359400    13.3041136817
Ni      4.9088074779     4.2579363993    13.3054287219
Ni      6.1372745399     6.3857876859    13.3032783461
Ni      4.9086517489     0.0018312679    13.3024059973
Ni      6.1374036900     2.1309748259    13.3056096279
Ni      7.3661494965     4.2582451225    13.3069521294
Ni      8.5943412642     6.3854189356    13.3048452032
Ni      7.3652045598     0.0023769347    13.3020218594
Ni      8.5942385870     2.1304695640    13.3043867892
Ni      9.8231946460     4.2572739586    13.3057508082
Ni     11.0517679487     6.3857120742    13.3033345673
Ni      2.4490340007     1.4222228898    15.3362210296
Ni      3.6772966341     3.5494520402    15.3385526486
Ni      4.9062018309     5.6779299863    15.3378107865
Ni      6.1346571371     7.8070605965    15.3335997660
Ni      4.9058225440     1.4219700119    15.3362205140
Ni      6.1346426161     3.5508505239    15.3401416952
Ni      7.3625330181     5.6784279340    15.3395242275
Ni      8.5915701699     7.8062468637    15.3354849978
Ni      7.3627070876     1.4224398614    15.3370387851
Ni      8.5913286878     3.5492678034    15.3408173342
Ni      9.8201850892     5.6778143966    15.3377748313
Ni     11.0486432903     7.8070022870    15.3347461742
Ni      9.8200953687     1.4222882767    15.3366655971
Ni     11.0486075170     3.5492992344    15.3407266613
Ni     12.2774144290     5.6772885475    15.3359640395
Ni     13.5061541408     7.8063455598    15.3319300907
Ni      1.2110342796     0.7121491695    17.3942058558
Ni      2.4153483242     2.8404463540    17.3839342882
Ni      3.6577208923     5.0012605288    17.3788925475
Ni      4.9010590615     7.1096422036    17.3892309921
Ni      3.6596289440     0.6889605475    17.3780717538
Ni      4.8979417094     2.8390886294    17.4447641349
Ni      6.1231152081     4.9994285505    17.3564155222
Ni      7.3418497530     7.1333853503    17.3526573173
Ni      6.1527980495     0.6856745922    17.3784778217
Ni      7.3872429320     2.8219880564    17.3532380840
Ni      8.6020170982     5.0247961470    17.3833290643
Ni      9.8387857306     7.1258202434    17.3517265842
Ni      8.5988861104     0.7078491923    17.3941362717
Ni      9.8348522415     2.8171906877    17.3515440259
Ni     11.0701270356     4.9706906868    17.3606901935
Ni     12.2796809001     7.0992882966    17.3860106739
O       9.1690314865     3.6816069000    21.6480563307
O       8.6046324954     4.9737158895    19.3970729385
O       8.6589698729     5.0439052541    24.1324103862
C       8.7032958680     5.0372073120    21.7409333827
C       9.1522729882     5.7620709105    20.4807420224
C       9.1654709619     5.7359255365    22.9959248517
H       7.6084833063     4.9564203526    21.7193880937
H      10.2586962163     5.8044217538    20.4158636735
H       8.7647340452     6.7835704158    20.3737687108
H       8.8191207568     6.7822467982    22.9752814576
H      10.2695678873     5.7477110015    22.9838100838
H      10.1374366649     3.6992038030    21.7039993891
H       8.9996773779     4.0713134755    19.4592443323
H       8.9973676432     5.4859083370    24.9289465803
O       4.9265885335     2.8427230065    19.2267638342
H       4.9163777730     2.8362909968    20.1924768859
