80
Step 1 | ATOMIC_POSITIONS (angstrom) | Cartesian Angstrom
NI      1.2286497520     0.7093615510    11.2500000000
NI      2.4572990100     2.8374462050    11.2500000000
NI      3.6859482670     4.9655308580    11.2500000000
NI      4.9145975240     7.0936155120    11.2500000000
NI      3.6859497520     0.7093615510    11.2500000000
NI      4.9145990100     2.8374462050    11.2500000000
NI      6.1432482670     4.9655308580    11.2500000000
NI      7.3718975240     7.0936155120    11.2500000000
NI      6.1432497520     0.7093615510    11.2500000000
NI      7.3718990100     2.8374462050    11.2500000000
NI      8.6005482670     4.9655308580    11.2500000000
NI      9.8291975240     7.0936155120    11.2500000000
NI      8.6005497520     0.7093615510    11.2500000000
NI      9.8291990100     2.8374462050    11.2500000000
NI     11.0578482670     4.9655308580    11.2500000000
NI     12.2864975240     7.0936155120    11.2500000000
NI      0.0001182235    -0.0000839615    13.2588984905
NI      1.2285747517     2.1281916345    13.2584013567
NI      2.4574037269     4.2561476601    13.2581690635
NI     13.5150784248     6.3841452730    13.2584968358
NI      2.4573907732    -0.0000610594    13.2582462536
NI      3.6859270453     2.1280447728    13.2585493976
NI      4.9146323749     4.2562112950    13.2581233515
NI      6.1433428452     6.3841920497    13.2581059770
NI      4.9145370214     0.0000902701    13.2582311804
NI      6.1433334650     2.1281530959    13.2582355453
NI      7.3716395237     4.2560622592    13.2580017742
NI      8.6003678074     6.3843299483    13.2587283570
NI      7.3717217228    -0.0001031521    13.2585493558
NI      8.6005770541     2.1282317788    13.2583094531
NI      9.8292244816     4.2559445386    13.2587981557
NI     11.0578817411     6.3842646859    13.2588300706
NI      2.4577352626     1.4190004332    15.2606013730
NI      3.6872139621     3.5460552713    15.2605377573
NI      4.9149868195     5.6744389030    15.2611279297
NI      6.1433237697     7.8027163177    15.2613427412
NI      4.9146160593     1.4202345571    15.2604602741
NI      6.1426336834     3.5463951581    15.2605322654
NI      7.3717998806     5.6740885616    15.2613211347
NI      8.6006426257     7.8031049008    15.2617965728
NI      7.3716469410     1.4191308045    15.2608629943
NI      8.5999078257     3.5476142301    15.2625483147
NI      9.8291782927     5.6747928481    15.2593447543
NI     11.0576054615     7.8033168428    15.2621913531
NI      9.8290262507     1.4186120454    15.2605597271
NI     11.0580469105     3.5468302057    15.2616204131
NI     12.2866800273     5.6745021063    15.2619031361
NI     13.5152151662     7.8030676300    15.2606883578
NI      1.2280057914     0.7092507693    17.2746483410
NI      2.4521360888     2.8378553114    17.2740504493
NI      3.6831367138     4.9696482249    17.2736808480
NI      4.9147533949     7.0942796360    17.2743190998
NI      3.6838498634     0.7050229512    17.2736645426
NI      4.9145580791     2.8374172813    17.3071279074
NI      6.1417735675     4.9689331279    17.2710577469
NI      7.3694926953     7.0978767356    17.2701671256
NI      6.1453762252     0.7050504867    17.2736859472
NI      7.3747603954     2.8340377529    17.2707274610
NI      8.6016394843     4.9724226860    17.2776715448
NI      9.8315098240     7.0975055533    17.2700551025
NI      8.6012963610     0.7096547522    17.2748479725
NI      9.8318383422     2.8329938761    17.2695631708
NI     11.0618292659     4.9649283507    17.2707849721
NI     12.2862614475     7.0934171827    17.2741683246
O       9.1607002749     3.6876340648    21.6767799547
O       8.6675366778     5.0415024940    19.3059770580
O       8.6727338983     5.0336407407    24.1249851605
C       8.6818393547     5.0354158341    21.7138344592
C       9.1491698061     5.7569611229    20.4578277681
C       9.1546027351     5.7302871955    22.9760516451
H       7.5676220918     4.9520124022    21.7094224298
H      10.2532802326     5.7703740591    20.4029071471
H       8.7769229909     6.7758538477    20.4000744700
H       8.8105912246     6.7705776706    23.0079347130
H      10.2637474055     5.7185454059    23.0081082229
H      10.1401458536     3.7446863719    21.6868363345
H       9.0162862915     4.1197902798    19.3714584311
H       9.0167744771     5.5100277853    24.8976686170
O       4.9147373259     2.8378396572    19.2045009592
H       4.9150816935     2.8373428019    20.1832386532
80
Step 2 | ATOMIC_POSITIONS (angstrom) | Cartesian Angstrom
NI      1.2286497520     0.7093615510    11.2500000000
NI      2.4572990100     2.8374462050    11.2500000000
NI      3.6859482670     4.9655308580    11.2500000000
NI      4.9145975240     7.0936155120    11.2500000000
NI      3.6859497520     0.7093615510    11.2500000000
NI      4.9145990100     2.8374462050    11.2500000000
NI      6.1432482670     4.9655308580    11.2500000000
NI      7.3718975240     7.0936155120    11.2500000000
NI      6.1432497520     0.7093615510    11.2500000000
NI      7.3718990100     2.8374462050    11.2500000000
NI      8.6005482670     4.9655308580    11.2500000000
NI      9.8291975240     7.0936155120    11.2500000000
NI      8.6005497520     0.7093615510    11.2500000000
NI      9.8291990100     2.8374462050    11.2500000000
NI     11.0578482670     4.9655308580    11.2500000000
NI     12.2864975240     7.0936155120    11.2500000000
NI      0.0004096071    -0.0003451093    13.2643873225
NI      1.2284509842     2.1284215524    13.2627833314
NI      2.4576543877     4.2561252831    13.2621253260
NI     13.5148934691     6.3838918695    13.2631915723
NI      2.4576038237    -0.0002268485    13.2623336692
NI      3.6858841878     2.1279541750    13.2632382434
NI      4.9146623356     4.2563018580    13.2618793701
NI      6.1435532586     6.3840969569    13.2618427724
NI      4.9144027145     0.0002587638    13.2623595817
NI      6.1434657011     2.1282652119    13.2622200496
NI      7.3710963609     4.2558368196    13.2614971100
NI      8.5999268993     6.3845574057    13.2637681469
NI      7.3712725431    -0.0004065610    13.2633357095
NI      8.6006471789     2.1286064985    13.2625555888
NI      9.8292614543     4.2554038580    13.2640478668
NI     11.0580137887     6.3843456221    13.2641718004
NI      2.4588334236     1.4196587789    15.2575869647
NI      3.6910796463     3.5437932772    15.2598633189
NI      4.9157007396     5.6733940479    15.2589535937
NI      6.1433501104     7.8022494943    15.2595667175
NI      4.9146450374     1.4247872373    15.2595841719
NI      6.1401581509     3.5448280821    15.2594844347
NI      7.3718111509     5.6721886809    15.2598873971
NI      8.6009144505     7.8034897954    15.2607239120
NI      7.3709856254     1.4199041690    15.2580793745
NI      8.5984955606     3.5498742935    15.2640548333
NI      9.8290285487     5.6744928362    15.2536387850
NI     11.0572068565     7.8041972145    15.2621069271
NI      9.8286401352     1.4181180996    15.2570064125
NI     11.0586237269     3.5469089396    15.2601819820
NI     12.2872405074     5.6736951731    15.2612578189
NI     13.5153169727     7.8032278078    15.2579622945
NI      1.2263686492     0.7089451219    17.2884338781
NI      2.4405094604     2.8384876979    17.2859451171
NI      3.6767268807     4.9792459937    17.2846829753
NI      4.9147993485     7.0961794208    17.2873573088
NI      3.6788670419     0.6953596076    17.2846227500
NI      4.9141495466     2.8371294660    17.3913221783
NI      6.1384555580     4.9770347301    17.2758056418
NI      7.3637837264     7.1079897136    17.2731943910
NI      6.1504855856     0.6951837870    17.2847047490
NI      7.3817294906     2.8265378096    17.2747667193
NI      8.6047153422     4.9886756083    17.2981214895
NI      9.8369889315     7.1063205644    17.2729503774
NI      8.6031834671     0.7098218802    17.2890951098
NI      9.8376513904     2.8233140428    17.2714892224
NI     11.0704578651     4.9638156425    17.2754730306
NI     12.2860273938     7.0931388181    17.2867637193
O       9.1646393645     3.6701120237    21.6630784556
O       8.6471312179     5.0209677803    19.3157922916
O       8.6602424160     5.0252237953    24.1320058077
C       8.6891607170     5.0301217642    21.7253107495
C       9.1551678420     5.7649459688    20.4640899779
C       9.1574069114     5.7337134946    22.9921746234
H       7.5829522889     4.9537053140    21.7098594320
H      10.2599367908     5.7791465793    20.4104704898
H       8.7702701051     6.7888857667    20.3898189209
H       8.8101764547     6.7886529147    22.9951896825
H      10.2710901791     5.7268780491    22.9916636344
H      10.1342118129     3.7369784356    21.6913772018
H       9.0114821615     4.1050982383    19.3857275963
H       9.0125623865     5.5049720530    24.9003710277
O       4.9150877321     2.8388645302    19.1772737893
H       4.9163865563     2.8371011923    20.1426011885
