80
Step 1 | ATOMIC_POSITIONS (angstrom) | Cartesian Angstrom
Ni      1.2286497520     0.7093615510    11.2500000000
Ni      2.4572990100     2.8374462050    11.2500000000
Ni      3.6859482670     4.9655308580    11.2500000000
Ni      4.9145975240     7.0936155120    11.2500000000
Ni      3.6859497520     0.7093615510    11.2500000000
Ni      4.9145990100     2.8374462050    11.2500000000
Ni      6.1432482670     4.9655308580    11.2500000000
Ni      7.3718975240     7.0936155120    11.2500000000
Ni      6.1432497520     0.7093615510    11.2500000000
Ni      7.3718990100     2.8374462050    11.2500000000
Ni      8.6005482670     4.9655308580    11.2500000000
Ni      9.8291975240     7.0936155120    11.2500000000
Ni      8.6005497520     0.7093615510    11.2500000000
Ni      9.8291990100     2.8374462050    11.2500000000
Ni     11.0578482670     4.9655308580    11.2500000000
Ni     12.2864975240     7.0936155120    11.2500000000
Ni      9.8231926171     0.0024995243    13.3023445018
Ni     11.0518089828     2.1302240239    13.3047084143
Ni     12.2800508463     4.2570722555    13.3044621731
Ni     13.5092872810     6.3850384707    13.3032135992
Ni      2.4517697468     0.0021660604    13.3026623602
Ni      3.6803279060     2.1303359400    13.3041136817
Ni      4.9088074779     4.2579363993    13.3054287219
Ni      6.1372745399     6.3857876859    13.3032783461
Ni      4.9086517489     0.0018312679    13.3024059973
Ni      6.1374036900     2.1309748259    13.3056096279
Ni      7.3661494965     4.2582451225    13.3069521294
Ni      8.5943412642     6.3854189356    13.3048452032
Ni      7.3652045598     0.0023769347    13.3020218594
Ni      8.5942385870     2.1304695640    13.3043867892
Ni      9.8231946460     4.2572739586    13.3057508082
Ni     11.0517679487     6.3857120742    13.3033345673
Ni      2.4490340007     1.4222228898    15.3362210296
Ni      3.6772966341     3.5494520402    15.3385526486
Ni      4.9062018309     5.6779299863    15.3378107865
Ni      6.1346571371     7.8070605965    15.3335997660
Ni      4.9058225440     1.4219700119    15.3362205140
Ni      6.1346426161     3.5508505239    15.3401416952
Ni      7.3625330181     5.6784279340    15.3395242275
Ni      8.5915701699     7.8062468637    15.3354849978
Ni      7.3627070876     1.4224398614    15.3370387851
Ni      8.5913286878     3.5492678034    15.3408173342
Ni      9.8201850892     5.6778143966    15.3377748313
Ni     11.0486432903     7.8070022870    15.3347461742
Ni      9.8200953687     1.4222882767    15.3366655971
Ni     11.0486075170     3.5492992344    15.3407266613
Ni     12.2774144290     5.6772885475    15.3359640395
Ni     13.5061541408     7.8063455598    15.3319300907
Ni      1.2182296651     0.7143197851    17.3886305812
Ni      2.4413134221     2.8424046188    17.3925188844
Ni      3.6723499038     4.9762181810    17.3898573431
Ni      4.9046722190     7.0997592509    17.3862819877
Ni      3.6730888013     0.7082059339    17.3885421672
Ni      4.9036900243     2.8422693408    17.4065301444
Ni      6.1302930895     4.9764597435    17.3915735073
Ni      7.3585685697     7.1046651042    17.3850155803
Ni      6.1358502566     0.7072706094    17.3890244521
Ni      7.3653994674     2.8368360934    17.3911275305
Ni      8.5913969551     4.9800721317    17.3821915009
Ni      9.8225086016     7.1046174587    17.3839063421
Ni      8.5918094087     0.7135238179    17.3887823849
Ni      9.8230565104     2.8353453316    17.3899902396
Ni     11.0537588746     4.9697828282    17.3884211779
Ni     12.2762680879     7.0986585375    17.3854750398
O       9.1604840907     3.6877935292    21.6768359415
O       8.6664931275     5.0417012882    19.3224942838
O       8.6726945680     5.0335927823    24.1247254326
C       8.6815329018     5.0346642451    21.7132495364
C       9.1495754956     5.7593882568    20.4601225702
C       9.1547021593     5.7306457307    22.9761350527
H       7.5675632235     4.9520499021    21.7095875649
H      10.2532209553     5.7701966416    20.4022002827
H       8.7770117677     6.7759001566    20.3998554212
H       8.8105991245     6.7705731689    23.0079831438
H      10.2637154589     5.7185400667    23.0081056967
H      10.1401620403     3.7445292702    21.6866500278
H       9.0175718821     4.1162428405    19.3732432672
H       9.0167842220     5.5100414378    24.8976958636
O       4.9153862758     2.8378001778    19.2302078818
H       4.9148259836     2.8373867478    20.1810960946
80
Step 2 | ATOMIC_POSITIONS (angstrom) | Cartesian Angstrom
Ni      1.2286497520     0.7093615510    11.2500000000
Ni      2.4572990100     2.8374462050    11.2500000000
Ni      3.6859482670     4.9655308580    11.2500000000
Ni      4.9145975240     7.0936155120    11.2500000000
Ni      3.6859497520     0.7093615510    11.2500000000
Ni      4.9145990100     2.8374462050    11.2500000000
Ni      6.1432482670     4.9655308580    11.2500000000
Ni      7.3718975240     7.0936155120    11.2500000000
Ni      6.1432497520     0.7093615510    11.2500000000
Ni      7.3718990100     2.8374462050    11.2500000000
Ni      8.6005482670     4.9655308580    11.2500000000
Ni      9.8291975240     7.0936155120    11.2500000000
Ni      8.6005497520     0.7093615510    11.2500000000
Ni      9.8291990100     2.8374462050    11.2500000000
Ni     11.0578482670     4.9655308580    11.2500000000
Ni     12.2864975240     7.0936155120    11.2500000000
Ni      9.8231926171     0.0024995243    13.3023445018
Ni     11.0518089828     2.1302240239    13.3047084143
Ni     12.2800508463     4.2570722555    13.3044621731
Ni     13.5092872810     6.3850384707    13.3032135992
Ni      2.4517697468     0.0021660604    13.3026623602
Ni      3.6803279060     2.1303359400    13.3041136817
Ni      4.9088074779     4.2579363993    13.3054287219
Ni      6.1372745399     6.3857876859    13.3032783461
Ni      4.9086517489     0.0018312679    13.3024059973
Ni      6.1374036900     2.1309748259    13.3056096279
Ni      7.3661494965     4.2582451225    13.3069521294
Ni      8.5943412642     6.3854189356    13.3048452032
Ni      7.3652045598     0.0023769347    13.3020218594
Ni      8.5942385870     2.1304695640    13.3043867892
Ni      9.8231946460     4.2572739586    13.3057508082
Ni     11.0517679487     6.3857120742    13.3033345673
Ni      2.4490340007     1.4222228898    15.3362210296
Ni      3.6772966341     3.5494520402    15.3385526486
Ni      4.9062018309     5.6779299863    15.3378107865
Ni      6.1346571371     7.8070605965    15.3335997660
Ni      4.9058225440     1.4219700119    15.3362205140
Ni      6.1346426161     3.5508505239    15.3401416952
Ni      7.3625330181     5.6784279340    15.3395242275
Ni      8.5915701699     7.8062468637    15.3354849978
Ni      7.3627070876     1.4224398614    15.3370387851
Ni      8.5913286878     3.5492678034    15.3408173342
Ni      9.8201850892     5.6778143966    15.3377748313
Ni     11.0486432903     7.8070022870    15.3347461742
Ni      9.8200953687     1.4222882767    15.3366655971
Ni     11.0486075170     3.5492992344    15.3407266613
Ni     12.2774144290     5.6772885475    15.3359640395
Ni     13.5061541408     7.8063455598    15.3319300907
Ni      1.2169353376     0.7138333540    17.3900789581
Ni      2.4303239417     2.8428365709    17.3905639288
Ni      3.6663429756     4.9852601410    17.3872378801
Ni      4.9046800959     7.1014002875    17.3871478078
Ni      3.6683942946     0.6992686902    17.3860206414
Ni      4.9033142805     2.8418811033    17.4341347330
Ni      6.1271601197     4.9837502870    17.3820107534
Ni      7.3529682144     7.1143011699    17.3755876565
Ni      6.1408651157     0.6985177725    17.3865058765
Ni      7.3715799579     2.8293603173    17.3810287914
Ni      8.5926830814     4.9961298123    17.3649639649
Ni      9.8278774053     7.1131296942    17.3739702584
Ni      8.5933049114     0.7137426841    17.3903428792
Ni      9.8288730818     2.8256684056    17.3788344368
Ni     11.0627817072     4.9687682360    17.3799163029
Ni     12.2763649510     7.0981393380    17.3859318279
O       9.1624199574     3.6726100311    21.6650447167
O       8.6446336618     5.0211405212    19.3502412526
O       8.6623217429     5.0264859824    24.1310222907
C       8.6911457125     5.0313004678    21.7255436087
C       9.1559058678     5.7695784245    20.4735903049
C       9.1553666625     5.7334460325    22.9892339874
H       7.5786830507     4.9533735419    21.7098794320
H      10.2599244470     5.7777106536    20.4080350334
H       8.7714359769     6.7881301353    20.3912108643
H       8.8102632675     6.7859997493    22.9973307404
H      10.2707051932     5.7253956016    22.9941000595
H      10.1357478662     3.7382532226    21.6900833911
H       9.0159821106     4.0993152972    19.3893654250
H       9.0131334997     5.5056283894    24.8994922725
O       4.9170911279     2.8385922212    19.2162624000
H       4.9153137069     2.8372681514    20.1801019991
80
Step 3 | ATOMIC_POSITIONS (angstrom) | Cartesian Angstrom
Ni      1.2286497520     0.7093615510    11.2500000000
Ni      2.4572990100     2.8374462050    11.2500000000
Ni      3.6859482670     4.9655308580    11.2500000000
Ni      4.9145975240     7.0936155120    11.2500000000
Ni      3.6859497520     0.7093615510    11.2500000000
Ni      4.9145990100     2.8374462050    11.2500000000
Ni      6.1432482670     4.9655308580    11.2500000000
Ni      7.3718975240     7.0936155120    11.2500000000
Ni      6.1432497520     0.7093615510    11.2500000000
Ni      7.3718990100     2.8374462050    11.2500000000
Ni      8.6005482670     4.9655308580    11.2500000000
Ni      9.8291975240     7.0936155120    11.2500000000
Ni      8.6005497520     0.7093615510    11.2500000000
Ni      9.8291990100     2.8374462050    11.2500000000
Ni     11.0578482670     4.9655308580    11.2500000000
Ni     12.2864975240     7.0936155120    11.2500000000
Ni      9.8231926171     0.0024995243    13.3023445018
Ni     11.0518089828     2.1302240239    13.3047084143
Ni     12.2800508463     4.2570722555    13.3044621731
Ni     13.5092872810     6.3850384707    13.3032135992
Ni      2.4517697468     0.0021660604    13.3026623602
Ni      3.6803279060     2.1303359400    13.3041136817
Ni      4.9088074779     4.2579363993    13.3054287219
Ni      6.1372745399     6.3857876859    13.3032783461
Ni      4.9086517489     0.0018312679    13.3024059973
Ni      6.1374036900     2.1309748259    13.3056096279
Ni      7.3661494965     4.2582451225    13.3069521294
Ni      8.5943412642     6.3854189356    13.3048452032
Ni      7.3652045598     0.0023769347    13.3020218594
Ni      8.5942385870     2.1304695640    13.3043867892
Ni      9.8231946460     4.2572739586    13.3057508082
Ni     11.0517679487     6.3857120742    13.3033345673
Ni      2.4490340007     1.4222228898    15.3362210296
Ni      3.6772966341     3.5494520402    15.3385526486
Ni      4.9062018309     5.6779299863    15.3378107865
Ni      6.1346571371     7.8070605965    15.3335997660
Ni      4.9058225440     1.4219700119    15.3362205140
Ni      6.1346426161     3.5508505239    15.3401416952
Ni      7.3625330181     5.6784279340    15.3395242275
Ni      8.5915701699     7.8062468637    15.3354849978
Ni      7.3627070876     1.4224398614    15.3370387851
Ni      8.5913286878     3.5492678034    15.3408173342
Ni      9.8201850892     5.6778143966    15.3377748313
Ni     11.0486432903     7.8070022870    15.3347461742
Ni      9.8200953687     1.4222882767    15.3366655971
Ni     11.0486075170     3.5492992344    15.3407266613
Ni     12.2774144290     5.6772885475    15.3359640395
Ni     13.5061541408     7.8063455598    15.3319300907
Ni      1.2154088949     0.7132130003    17.3914496980
Ni      2.4224328924     2.8426194144    17.3885096019
Ni      3.6619086980     4.9923745507    17.3846049521
Ni      4.9041138325     7.1035630815    17.3879027080
Ni      3.6645834881     0.6930764514    17.3834682433
Ni      4.9021632167     2.8412223341    17.4462177230
Ni      6.1249851956     4.9898936653    17.3732097084
Ni      7.3484004595     7.1222075002    17.3672703215
Ni      6.1452135765     0.6918992428    17.3839649068
Ni      7.3772912420     2.8244798573    17.3716348574
Ni      8.5950505678     5.0085460166    17.3600319047
Ni      9.8322848565     7.1193021677    17.3655330510
Ni      8.5949482883     0.7128267934    17.3917191342
Ni      9.8327054877     2.8195862023    17.3690737362
Ni     11.0683511242     4.9685169124    17.3727070342
Ni     12.2769434454     7.0980722367    17.3861675053
O       9.1634978602     3.6704488910    21.6564006715
O       8.6295015704     4.9992216874    19.3713097768
O       8.6580296116     5.0281854182    24.1338172524
C       8.6884769182     5.0301481943    21.7339446408
C       9.1602426279     5.7668874005    20.4806201233
C       9.1607670225     5.7330884791    22.9967430425
H       7.5946080497     4.9547989759    21.7112603103
H      10.2633723013     5.7864265519    20.4121299562
H       8.7669413052     6.7966274959    20.3845346679
H       8.8114450016     6.7918900105    22.9889053568
H      10.2707548227     5.7325208428    22.9860988391
H      10.1357257331     3.7283050868    21.6937280303
H       9.0110113040     4.0924351553    19.4072871379
H       9.0083106537     5.4995486118    24.9045120713
O       4.9191638076     2.8394771689    19.2238215287
H       4.9158027393     2.8371341978    20.1715698591
