38
Step 1 | ATOMIC_POSITIONS (angstrom) | Cartesian Angstrom
Ni      0.0000000000     0.0000000000    10.0000000190
Ni      1.2286496540     2.1280836260    10.0000000190
Ni      2.4572993460     4.2561673160    10.0000000190
Ni      2.4572993090     0.0000000000    10.0000000190
Ni      3.6859489630     2.1280836260    10.0000000190
Ni      4.9145986540     4.2561673160    10.0000000190
Ni      4.9145986910     0.0000000000    10.0000000190
Ni      6.1432483460     2.1280836260    10.0000000190
Ni      7.3718980370     4.2561673160    10.0000000190
Ni      1.6381995390     1.4187224170    12.0063764260
Ni      2.8668492300     3.5468061070    12.0063764260
Ni      4.0954988850     5.6748897330    12.0063764260
Ni      4.0954988480     1.4187224170    12.0063764260
Ni      5.3241485390     3.5468061070    12.0063764260
Ni      6.5527981940     5.6748897330    12.0063764260
Ni      6.5527982300     1.4187224170    12.0063764260
Ni      7.7814479220     3.5468061070    12.0063764260
Ni      9.0100975760     5.6748897330    12.0063764260
Ni      2.0488183116     0.7084321230    14.0122966827
Ni      3.2755332892     2.8389683570    14.0097159038
Ni      4.5059970262     4.9642861316    14.0122534761
Ni      4.5050068230     0.7094124179    14.0123206207
Ni      5.7339763697     2.8360630688    14.0122920434
Ni      6.9629880188     4.9640897258    14.0126906921
Ni      6.9632722809     0.7080920302    14.0126955695
Ni      8.1916020844     2.8360102977    14.0122468824
Ni      9.4204092148     4.9642063139    14.0128983376
Ni      0.0030892737    -0.0050790392    16.0291933257
Ni      1.2271171463     2.1229383736    16.0276762819
Ni      2.4583365573     4.2543402215    16.0272973171
Ni      2.4579752893    -0.0097639437    16.0278593339
Ni      3.6915227309     2.1146693005    15.7774335658
Ni      4.9198313981     4.2549747697    16.0276867548
Ni      4.9199139990    -0.0092381579    16.0279493950
Ni      6.1514356550     2.1225986098    16.0278698310
Ni      7.3747591495     4.2509578145    16.0291926879
O       3.6855429371     2.1499046539    17.6220287680
H       3.6805832507     2.1531012510    18.3282927288
38
Step 2 | ATOMIC_POSITIONS (angstrom) | Cartesian Angstrom
Ni      0.0000000000     0.0000000000    10.0000000190
Ni      1.2286496540     2.1280836260    10.0000000190
Ni      2.4572993460     4.2561673160    10.0000000190
Ni      2.4572993090     0.0000000000    10.0000000190
Ni      3.6859489630     2.1280836260    10.0000000190
Ni      4.9145986540     4.2561673160    10.0000000190
Ni      4.9145986910     0.0000000000    10.0000000190
Ni      6.1432483460     2.1280836260    10.0000000190
Ni      7.3718980370     4.2561673160    10.0000000190
Ni      1.6381995390     1.4187224170    12.0063764260
Ni      2.8668492300     3.5468061070    12.0063764260
Ni      4.0954988850     5.6748897330    12.0063764260
Ni      4.0954988480     1.4187224170    12.0063764260
Ni      5.3241485390     3.5468061070    12.0063764260
Ni      6.5527981940     5.6748897330    12.0063764260
Ni      6.5527982300     1.4187224170    12.0063764260
Ni      7.7814479220     3.5468061070    12.0063764260
Ni      9.0100975760     5.6748897330    12.0063764260
Ni      2.0512000591     0.7048776837    14.0121956365
Ni      3.2667298161     2.8543985902    13.9721798698
Ni      4.5089428449     4.9604094061    14.0126557872
Ni      4.5068940096     0.7061163691    14.0092039947
Ni      5.7358713934     2.8322323145    14.0121944575
Ni      6.9649123267     4.9599283935    14.0137731911
Ni      6.9658974971     0.7043592743    14.0137918069
Ni      8.1934815972     2.8315459437    14.0126275236
Ni      9.4226351261     4.9603525584    14.0147864233
Ni      0.0108951440    -0.0180164047    16.0536054755
Ni      1.2264544385     2.1103428185    16.0502123579
Ni      2.4623918316     4.2472713827    16.0494548548
Ni      2.4614233727    -0.0313853845    16.0506718053
Ni      3.7105581661     2.0767074410    15.5205041225
Ni      4.9310080908     4.2492370284    16.0502953856
Ni      4.9318018802    -0.0298791639    16.0505523578
Ni      6.1684351076     2.1087605813    16.0507388491
Ni      7.3820660501     4.2377365376    16.0536042352
O       3.6879282285     2.1544455511    17.5677385324
H       3.6772620895     2.1552467176    18.7251559416
38
Step 3 | ATOMIC_POSITIONS (angstrom) | Cartesian Angstrom
Ni      0.0000000000     0.0000000000    10.0000000190
Ni      1.2286496540     2.1280836260    10.0000000190
Ni      2.4572993460     4.2561673160    10.0000000190
Ni      2.4572993090     0.0000000000    10.0000000190
Ni      3.6859489630     2.1280836260    10.0000000190
Ni      4.9145986540     4.2561673160    10.0000000190
Ni      4.9145986910     0.0000000000    10.0000000190
Ni      6.1432483460     2.1280836260    10.0000000190
Ni      7.3718980370     4.2561673160    10.0000000190
Ni      1.6381995390     1.4187224170    12.0063764260
Ni      2.8668492300     3.5468061070    12.0063764260
Ni      4.0954988850     5.6748897330    12.0063764260
Ni      4.0954988480     1.4187224170    12.0063764260
Ni      5.3241485390     3.5468061070    12.0063764260
Ni      6.5527981940     5.6748897330    12.0063764260
Ni      6.5527982300     1.4187224170    12.0063764260
Ni      7.7814479220     3.5468061070    12.0063764260
Ni      9.0100975760     5.6748897330    12.0063764260
Ni      2.0519725449     0.6987938899    14.0157141438
Ni      3.2314862890     2.9163617772    13.8460340254
Ni      4.5124905702     4.9560719256    14.0179333344
Ni      4.5197930074     0.6838424568    13.9935828734
Ni      5.7406837746     2.8284934452    14.0158087206
Ni      6.9674446413     4.9550713552    14.0190956895
Ni      6.9688201537     0.6997753734    14.0191402872
Ni      8.1954505569     2.8263403087    14.0178604968
Ni      9.4247661769     4.9566376886    14.0205980901
Ni      0.0167587199    -0.0280442241    16.0687799264
Ni      1.2313594749     2.1009659439    16.0672806278
Ni      2.4681525584     4.2372733432    16.0673967444
Ni      2.4663578287    -0.0432277876    16.0667899442
Ni      3.7449090101     2.0162123955    15.6949312221
Ni      4.9364826226     4.2400376292    16.0675525537
Ni      4.9385168837    -0.0415275531    16.0651694743
Ni      6.1758989886     2.0985390483    16.0670143414
Ni      7.3878091712     4.2276482704    16.0687701603
O       3.6871745032     2.1570917156    17.6000223568
H       3.6776919483     2.1545628397    18.7021943173
38
Step 4 | ATOMIC_POSITIONS (angstrom) | Cartesian Angstrom
Ni      0.0000000000     0.0000000000    10.0000000190
Ni      1.2286496540     2.1280836260    10.0000000190
Ni      2.4572993460     4.2561673160    10.0000000190
Ni      2.4572993090     0.0000000000    10.0000000190
Ni      3.6859489630     2.1280836260    10.0000000190
Ni      4.9145986540     4.2561673160    10.0000000190
Ni      4.9145986910     0.0000000000    10.0000000190
Ni      6.1432483460     2.1280836260    10.0000000190
Ni      7.3718980370     4.2561673160    10.0000000190
Ni      1.6381995390     1.4187224170    12.0063764260
Ni      2.8668492300     3.5468061070    12.0063764260
Ni      4.0954988850     5.6748897330    12.0063764260
Ni      4.0954988480     1.4187224170    12.0063764260
Ni      5.3241485390     3.5468061070    12.0063764260
Ni      6.5527981940     5.6748897330    12.0063764260
Ni      6.5527982300     1.4187224170    12.0063764260
Ni      7.7814479220     3.5468061070    12.0063764260
Ni      9.0100975760     5.6748897330    12.0063764260
Ni      2.0576831005     0.6942625948    14.0257117988
Ni      3.2465351865     2.8906121007    13.8909785239
Ni      4.5194807146     4.9519844254    14.0286457945
Ni      4.5271026436     0.6712545515    13.9901415039
Ni      5.7417441069     2.8212574312    14.0258868021
Ni      6.9705369675     4.9477371379    14.0279787847
Ni      6.9735639780     0.6934638486    14.0280685141
Ni      8.1955337610     2.8182856750    14.0284957711
Ni      9.4253175593     4.9557182059    14.0324960730
Ni      0.0243188751    -0.0409177192    16.0858253383
Ni      1.2394510930     2.0892446277    16.0852806450
Ni      2.4774082095     4.2212304862    16.0843307616
Ni      2.4715342932    -0.0591289258    16.0841846748
Ni      3.7505828041     2.0066325585    15.8180652647
Ni      4.9422853581     4.2268080284    16.0857946713
Ni      4.9480925612    -0.0581118923    16.0797343761
Ni      6.1864976968     2.0860458856    16.0845623896
Ni      7.3951131682     4.2146264661    16.0858226189
O       3.6847166281     2.1628121116    17.6180190476
H       3.6785420461     2.1531259078    18.6358266935
38
Step 5 | ATOMIC_POSITIONS (angstrom) | Cartesian Angstrom
Ni      0.0000000000     0.0000000000    10.0000000190
Ni      1.2286496540     2.1280836260    10.0000000190
Ni      2.4572993460     4.2561673160    10.0000000190
Ni      2.4572993090     0.0000000000    10.0000000190
Ni      3.6859489630     2.1280836260    10.0000000190
Ni      4.9145986540     4.2561673160    10.0000000190
Ni      4.9145986910     0.0000000000    10.0000000190
Ni      6.1432483460     2.1280836260    10.0000000190
Ni      7.3718980370     4.2561673160    10.0000000190
Ni      1.6381995390     1.4187224170    12.0063764260
Ni      2.8668492300     3.5468061070    12.0063764260
Ni      4.0954988850     5.6748897330    12.0063764260
Ni      4.0954988480     1.4187224170    12.0063764260
Ni      5.3241485390     3.5468061070    12.0063764260
Ni      6.5527981940     5.6748897330    12.0063764260
Ni      6.5527982300     1.4187224170    12.0063764260
Ni      7.7814479220     3.5468061070    12.0063764260
Ni      9.0100975760     5.6748897330    12.0063764260
Ni      2.0683784891     0.6867075727    14.0430101172
Ni      3.2678712301     2.8539810629    13.9533251930
Ni      4.5296687682     4.9439250778    14.0451903560
Ni      4.5338888445     0.6594527595    14.0010707220
Ni      5.7430501860     2.8082369377    14.0432557584
Ni      6.9756596249     4.9350507664    14.0428400548
Ni      6.9819346200     0.6827492757    14.0430081858
Ni      8.1975336983     2.8055326371    14.0448639795
Ni      9.4293862517     4.9486858079    14.0515439206
Ni      0.0373259817    -0.0631455394    16.1137498036
Ni      1.2514248085     2.0684167727    16.1135571603
Ni      2.4922099579     4.1954453011    16.1107479893
Ni      2.4800256597    -0.0882056392    16.1109091616
Ni      3.7641621777     1.9821188737    15.9511467759
Ni      4.9538277380     4.2055052459    16.1144549801
Ni      4.9647893784    -0.0871667217    16.1000993579
Ni      6.2066447144     2.0640329677    16.1115356225
Ni      7.4077466720     4.1921736005    16.1137360752
O       3.6786741915     2.1783398464    17.6496126484
H       3.6798212163     2.1496072140    18.5762343086
38
Step 6 | ATOMIC_POSITIONS (angstrom) | Cartesian Angstrom
Ni      0.0000000000     0.0000000000    10.0000000190
Ni      1.2286496540     2.1280836260    10.0000000190
Ni      2.4572993460     4.2561673160    10.0000000190
Ni      2.4572993090     0.0000000000    10.0000000190
Ni      3.6859489630     2.1280836260    10.0000000190
Ni      4.9145986540     4.2561673160    10.0000000190
Ni      4.9145986910     0.0000000000    10.0000000190
Ni      6.1432483460     2.1280836260    10.0000000190
Ni      7.3718980370     4.2561673160    10.0000000190
Ni      1.6381995390     1.4187224170    12.0063764260
Ni      2.8668492300     3.5468061070    12.0063764260
Ni      4.0954988850     5.6748897330    12.0063764260
Ni      4.0954988480     1.4187224170    12.0063764260
Ni      5.3241485390     3.5468061070    12.0063764260
Ni      6.5527981940     5.6748897330    12.0063764260
Ni      6.5527982300     1.4187224170    12.0063764260
Ni      7.7814479220     3.5468061070    12.0063764260
Ni      9.0100975760     5.6748897330    12.0063764260
Ni      2.0786775673     0.6789306049    14.0592485913
Ni      3.2830452284     2.8279709633    13.9970317650
Ni      4.5384525569     4.9348144491    14.0600425648
Ni      4.5393196341     0.6499747237    14.0158083606
Ni      5.7447978527     2.7954610287    14.0595502887
Ni      6.9809208938     4.9223562461    14.0569908080
Ni      6.9902588779     0.6719150477    14.0572374565
Ni      8.2011533973     2.7934758098    14.0595118420
Ni      9.4353252744     4.9384355058    14.0684096123
Ni      0.0505094156    -0.0857787814    16.1404664635
Ni      1.2628648436     2.0463945090    16.1397093858
Ni      2.5066707043     4.1701651631    16.1357307195
Ni      2.4889481625    -0.1181972645    16.1353584114
Ni      3.7823193438     1.9474560501    15.9999628540
Ni      4.9666591149     4.1841264705    16.1409843598
Ni      4.9818985444    -0.1170131483    16.1187709109
Ni      6.2275218911     2.0411614857    16.1361920689
Ni      7.4206114194     4.1693320311    16.1404350803
O       3.6686708236     2.2058615113    17.6845045554
H       3.6817880830     2.1418480788    18.5950966866
