38
Step 1 | ATOMIC_POSITIONS (angstrom) | Cartesian Angstrom
Ni      0.0000000000     0.0000000000    10.0000000190
Ni      1.2286496540     2.1280836260    10.0000000190
Ni      2.4572993460     4.2561673160    10.0000000190
Ni      2.4572993090     0.0000000000    10.0000000190
Ni      3.6859489630     2.1280836260    10.0000000190
Ni      4.9145986540     4.2561673160    10.0000000190
Ni      4.9145986910     0.0000000000    10.0000000190
Ni      6.1432483460     2.1280836260    10.0000000190
Ni      7.3718980370     4.2561673160    10.0000000190
Ni      1.6381995390     1.4187224170    12.0063764260
Ni      2.8668492300     3.5468061070    12.0063764260
Ni      4.0954988850     5.6748897330    12.0063764260
Ni      4.0954988480     1.4187224170    12.0063764260
Ni      5.3241485390     3.5468061070    12.0063764260
Ni      6.5527981940     5.6748897330    12.0063764260
Ni      6.5527982300     1.4187224170    12.0063764260
Ni      7.7814479220     3.5468061070    12.0063764260
Ni      9.0100975760     5.6748897330    12.0063764260
Ni      2.0488183116     0.7084321230    14.0122966827
Ni      3.2755332892     2.8389683570    14.0097159038
Ni      4.5059970262     4.9642861316    14.0122534761
Ni      4.5050068230     0.7094124179    14.0123206207
Ni      5.7339763697     2.8360630688    14.0122920434
Ni      6.9629880188     4.9640897258    14.0126906921
Ni      6.9632722809     0.7080920302    14.0126955695
Ni      8.1916020844     2.8360102977    14.0122468824
Ni      9.4204092148     4.9642063139    14.0128983376
Ni      0.0030892737    -0.0050790392    16.0291933257
Ni      1.2271171463     2.1229383736    16.0276762819
Ni      2.4583365573     4.2543402215    16.0272973171
Ni      2.4579752893    -0.0097639437    16.0278593339
Ni      3.6915227309     2.1146693005    15.7774335658
Ni      4.9198313981     4.2549747697    16.0276867548
Ni      4.9199139990    -0.0092381579    16.0279493950
Ni      6.1514356550     2.1225986098    16.0278698310
Ni      7.3747591495     4.2509578145    16.0291926879
O       3.6855429371     2.1499046539    17.6220287680
H       3.6805832507     2.1531012510    18.3282927288
38
Step 2 | ATOMIC_POSITIONS (angstrom) | Cartesian Angstrom
Ni      0.0000000000     0.0000000000    10.0000000190
Ni      1.2286496540     2.1280836260    10.0000000190
Ni      2.4572993460     4.2561673160    10.0000000190
Ni      2.4572993090     0.0000000000    10.0000000190
Ni      3.6859489630     2.1280836260    10.0000000190
Ni      4.9145986540     4.2561673160    10.0000000190
Ni      4.9145986910     0.0000000000    10.0000000190
Ni      6.1432483460     2.1280836260    10.0000000190
Ni      7.3718980370     4.2561673160    10.0000000190
Ni      1.6381995390     1.4187224170    12.0063764260
Ni      2.8668492300     3.5468061070    12.0063764260
Ni      4.0954988850     5.6748897330    12.0063764260
Ni      4.0954988480     1.4187224170    12.0063764260
Ni      5.3241485390     3.5468061070    12.0063764260
Ni      6.5527981940     5.6748897330    12.0063764260
Ni      6.5527982300     1.4187224170    12.0063764260
Ni      7.7814479220     3.5468061070    12.0063764260
Ni      9.0100975760     5.6748897330    12.0063764260
Ni      2.0512000591     0.7048776837    14.0121956365
Ni      3.2667298161     2.8543985902    13.9721798698
Ni      4.5089428449     4.9604094061    14.0126557872
Ni      4.5068940096     0.7061163691    14.0092039947
Ni      5.7358713934     2.8322323145    14.0121944575
Ni      6.9649123267     4.9599283935    14.0137731911
Ni      6.9658974971     0.7043592743    14.0137918069
Ni      8.1934815972     2.8315459437    14.0126275236
Ni      9.4226351261     4.9603525584    14.0147864233
Ni      0.0108951440    -0.0180164047    16.0536054755
Ni      1.2264544385     2.1103428185    16.0502123579
Ni      2.4623918316     4.2472713827    16.0494548548
Ni      2.4614233727    -0.0313853845    16.0506718053
Ni      3.7105581661     2.0767074410    15.5205041225
Ni      4.9310080908     4.2492370284    16.0502953856
Ni      4.9318018802    -0.0298791639    16.0505523578
Ni      6.1684351076     2.1087605813    16.0507388491
Ni      7.3820660501     4.2377365376    16.0536042352
O       3.6879282285     2.1544455511    17.5677385324
H       3.6772620895     2.1552467176    18.7251559416
38
Step 3 | ATOMIC_POSITIONS (angstrom) | Cartesian Angstrom
Ni      0.0000000000     0.0000000000    10.0000000190
Ni      1.2286496540     2.1280836260    10.0000000190
Ni      2.4572993460     4.2561673160    10.0000000190
Ni      2.4572993090     0.0000000000    10.0000000190
Ni      3.6859489630     2.1280836260    10.0000000190
Ni      4.9145986540     4.2561673160    10.0000000190
Ni      4.9145986910     0.0000000000    10.0000000190
Ni      6.1432483460     2.1280836260    10.0000000190
Ni      7.3718980370     4.2561673160    10.0000000190
Ni      1.6381995390     1.4187224170    12.0063764260
Ni      2.8668492300     3.5468061070    12.0063764260
Ni      4.0954988850     5.6748897330    12.0063764260
Ni      4.0954988480     1.4187224170    12.0063764260
Ni      5.3241485390     3.5468061070    12.0063764260
Ni      6.5527981940     5.6748897330    12.0063764260
Ni      6.5527982300     1.4187224170    12.0063764260
Ni      7.7814479220     3.5468061070    12.0063764260
Ni      9.0100975760     5.6748897330    12.0063764260
Ni      2.0519725449     0.6987938899    14.0157141438
Ni      3.2314862890     2.9163617772    13.8460340254
Ni      4.5124905702     4.9560719256    14.0179333344
Ni      4.5197930074     0.6838424568    13.9935828734
Ni      5.7406837746     2.8284934452    14.0158087206
Ni      6.9674446413     4.9550713552    14.0190956895
Ni      6.9688201537     0.6997753734    14.0191402872
Ni      8.1954505569     2.8263403087    14.0178604968
Ni      9.4247661769     4.9566376886    14.0205980901
Ni      0.0167587199    -0.0280442241    16.0687799264
Ni      1.2313594749     2.1009659439    16.0672806278
Ni      2.4681525584     4.2372733432    16.0673967444
Ni      2.4663578287    -0.0432277876    16.0667899442
Ni      3.7449090101     2.0162123955    15.6949312221
Ni      4.9364826226     4.2400376292    16.0675525537
Ni      4.9385168837    -0.0415275531    16.0651694743
Ni      6.1758989886     2.0985390483    16.0670143414
Ni      7.3878091712     4.2276482704    16.0687701603
O       3.6871745032     2.1570917156    17.6000223568
H       3.6776919483     2.1545628397    18.7021943173
38
Step 4 | ATOMIC_POSITIONS (angstrom) | Cartesian Angstrom
Ni      0.0000000000     0.0000000000    10.0000000190
Ni      1.2286496540     2.1280836260    10.0000000190
Ni      2.4572993460     4.2561673160    10.0000000190
Ni      2.4572993090     0.0000000000    10.0000000190
Ni      3.6859489630     2.1280836260    10.0000000190
Ni      4.9145986540     4.2561673160    10.0000000190
Ni      4.9145986910     0.0000000000    10.0000000190
Ni      6.1432483460     2.1280836260    10.0000000190
Ni      7.3718980370     4.2561673160    10.0000000190
Ni      1.6381995390     1.4187224170    12.0063764260
Ni      2.8668492300     3.5468061070    12.0063764260
Ni      4.0954988850     5.6748897330    12.0063764260
Ni      4.0954988480     1.4187224170    12.0063764260
Ni      5.3241485390     3.5468061070    12.0063764260
Ni      6.5527981940     5.6748897330    12.0063764260
Ni      6.5527982300     1.4187224170    12.0063764260
Ni      7.7814479220     3.5468061070    12.0063764260
Ni      9.0100975760     5.6748897330    12.0063764260
Ni      2.0576831005     0.6942625948    14.0257117988
Ni      3.2465351865     2.8906121007    13.8909785239
Ni      4.5194807146     4.9519844254    14.0286457945
Ni      4.5271026436     0.6712545515    13.9901415039
Ni      5.7417441069     2.8212574312    14.0258868021
Ni      6.9705369675     4.9477371379    14.0279787847
Ni      6.9735639780     0.6934638486    14.0280685141
Ni      8.1955337610     2.8182856750    14.0284957711
Ni      9.4253175593     4.9557182059    14.0324960730
Ni      0.0243188751    -0.0409177192    16.0858253383
Ni      1.2394510930     2.0892446277    16.0852806450
Ni      2.4774082095     4.2212304862    16.0843307616
Ni      2.4715342932    -0.0591289258    16.0841846748
Ni      3.7505828041     2.0066325585    15.8180652647
Ni      4.9422853581     4.2268080284    16.0857946713
Ni      4.9480925612    -0.0581118923    16.0797343761
Ni      6.1864976968     2.0860458856    16.0845623896
Ni      7.3951131682     4.2146264661    16.0858226189
O       3.6847166281     2.1628121116    17.6180190476
H       3.6785420461     2.1531259078    18.6358266935
38
Step 5 | ATOMIC_POSITIONS (angstrom) | Cartesian Angstrom
Ni      0.0000000000     0.0000000000    10.0000000190
Ni      1.2286496540     2.1280836260    10.0000000190
Ni      2.4572993460     4.2561673160    10.0000000190
Ni      2.4572993090     0.0000000000    10.0000000190
Ni      3.6859489630     2.1280836260    10.0000000190
Ni      4.9145986540     4.2561673160    10.0000000190
Ni      4.9145986910     0.0000000000    10.0000000190
Ni      6.1432483460     2.1280836260    10.0000000190
Ni      7.3718980370     4.2561673160    10.0000000190
Ni      1.6381995390     1.4187224170    12.0063764260
Ni      2.8668492300     3.5468061070    12.0063764260
Ni      4.0954988850     5.6748897330    12.0063764260
Ni      4.0954988480     1.4187224170    12.0063764260
Ni      5.3241485390     3.5468061070    12.0063764260
Ni      6.5527981940     5.6748897330    12.0063764260
Ni      6.5527982300     1.4187224170    12.0063764260
Ni      7.7814479220     3.5468061070    12.0063764260
Ni      9.0100975760     5.6748897330    12.0063764260
Ni      2.0683784891     0.6867075727    14.0430101172
Ni      3.2678712301     2.8539810629    13.9533251930
Ni      4.5296687682     4.9439250778    14.0451903560
Ni      4.5338888445     0.6594527595    14.0010707220
Ni      5.7430501860     2.8082369377    14.0432557584
Ni      6.9756596249     4.9350507664    14.0428400548
Ni      6.9819346200     0.6827492757    14.0430081858
Ni      8.1975336983     2.8055326371    14.0448639795
Ni      9.4293862517     4.9486858079    14.0515439206
Ni      0.0373259817    -0.0631455394    16.1137498036
Ni      1.2514248085     2.0684167727    16.1135571603
Ni      2.4922099579     4.1954453011    16.1107479893
Ni      2.4800256597    -0.0882056392    16.1109091616
Ni      3.7641621777     1.9821188737    15.9511467759
Ni      4.9538277380     4.2055052459    16.1144549801
Ni      4.9647893784    -0.0871667217    16.1000993579
Ni      6.2066447144     2.0640329677    16.1115356225
Ni      7.4077466720     4.1921736005    16.1137360752
O       3.6786741915     2.1783398464    17.6496126484
H       3.6798212163     2.1496072140    18.5762343086
38
Step 6 | ATOMIC_POSITIONS (angstrom) | Cartesian Angstrom
Ni      0.0000000000     0.0000000000    10.0000000190
Ni      1.2286496540     2.1280836260    10.0000000190
Ni      2.4572993460     4.2561673160    10.0000000190
Ni      2.4572993090     0.0000000000    10.0000000190
Ni      3.6859489630     2.1280836260    10.0000000190
Ni      4.9145986540     4.2561673160    10.0000000190
Ni      4.9145986910     0.0000000000    10.0000000190
Ni      6.1432483460     2.1280836260    10.0000000190
Ni      7.3718980370     4.2561673160    10.0000000190
Ni      1.6381995390     1.4187224170    12.0063764260
Ni      2.8668492300     3.5468061070    12.0063764260
Ni      4.0954988850     5.6748897330    12.0063764260
Ni      4.0954988480     1.4187224170    12.0063764260
Ni      5.3241485390     3.5468061070    12.0063764260
Ni      6.5527981940     5.6748897330    12.0063764260
Ni      6.5527982300     1.4187224170    12.0063764260
Ni      7.7814479220     3.5468061070    12.0063764260
Ni      9.0100975760     5.6748897330    12.0063764260
Ni      2.0786775673     0.6789306049    14.0592485913
Ni      3.2830452284     2.8279709633    13.9970317650
Ni      4.5384525569     4.9348144491    14.0600425648
Ni      4.5393196341     0.6499747237    14.0158083606
Ni      5.7447978527     2.7954610287    14.0595502887
Ni      6.9809208938     4.9223562461    14.0569908080
Ni      6.9902588779     0.6719150477    14.0572374565
Ni      8.2011533973     2.7934758098    14.0595118420
Ni      9.4353252744     4.9384355058    14.0684096123
Ni      0.0505094156    -0.0857787814    16.1404664635
Ni      1.2628648436     2.0463945090    16.1397093858
Ni      2.5066707043     4.1701651631    16.1357307195
Ni      2.4889481625    -0.1181972645    16.1353584114
Ni      3.7823193438     1.9474560501    15.9999628540
Ni      4.9666591149     4.1841264705    16.1409843598
Ni      4.9818985444    -0.1170131483    16.1187709109
Ni      6.2275218911     2.0411614857    16.1361920689
Ni      7.4206114194     4.1693320311    16.1404350803
O       3.6686708236     2.2058615113    17.6845045554
H       3.6817880830     2.1418480788    18.5950966866
38
Step 7 | ATOMIC_POSITIONS (angstrom) | Cartesian Angstrom
Ni      0.0000000000     0.0000000000    10.0000000190
Ni      1.2286496540     2.1280836260    10.0000000190
Ni      2.4572993460     4.2561673160    10.0000000190
Ni      2.4572993090    -0.0000000000    10.0000000190
Ni      3.6859489630     2.1280836260    10.0000000190
Ni      4.9145986540     4.2561673160    10.0000000190
Ni      4.9145986910    -0.0000000000    10.0000000190
Ni      6.1432483460     2.1280836260    10.0000000190
Ni      7.3718980370     4.2561673160    10.0000000190
Ni      1.6381995390     1.4187224170    12.0063764260
Ni      2.8668492300     3.5468061070    12.0063764260
Ni      4.0954988850     5.6748897330    12.0063764260
Ni      4.0954988480     1.4187224170    12.0063764260
Ni      5.3241485390     3.5468061070    12.0063764260
Ni      6.5527981940     5.6748897330    12.0063764260
Ni      6.5527982300     1.4187224170    12.0063764260
Ni      7.7814479220     3.5468061070    12.0063764260
Ni      9.0100975760     5.6748897330    12.0063764260
Ni      2.0908754840     0.6689887860    14.0785782653
Ni      3.2991133105     2.8004546288    14.0425572784
Ni      4.5487091229     4.9229981485    14.0777668468
Ni      4.5461221393     0.6381236512    14.0335568972
Ni      5.7475208907     2.7799694781    14.0789572048
Ni      6.9876033470     4.9066752551    14.0740446447
Ni      7.0004543065     0.6583817102    14.0743957823
Ni      8.2064077108     2.7788256150    14.0769534910
Ni      9.4433880183     4.9245377857    14.0881484269
Ni      0.0668751990    -0.1140304769    16.1720268199
Ni      1.2778584083     2.0185023260    16.1705657363
Ni      2.5249018341     4.1382402522    16.1658555235
Ni      2.5006799024    -0.1549189563    16.1640481548
Ni      3.8062026465     1.9011860766    16.0449613388
Ni      4.9826158226     4.1565860999    16.1723594343
Ni      5.0030211058    -0.1539033254    16.1409071093
Ni      6.2526543658     2.0124282071    16.1651181310
Ni      7.4366784265     4.1408655211    16.1719684204
O       3.6527898154     2.2496517856    17.7266516677
H       3.6858571612     2.1269834513    18.6345865252
38
Step 8 | ATOMIC_POSITIONS (angstrom) | Cartesian Angstrom
Ni      0.0000000000     0.0000000000    10.0000000190
Ni      1.2286496540     2.1280836260    10.0000000190
Ni      2.4572993460     4.2561673160    10.0000000190
Ni      2.4572993090    -0.0000000000    10.0000000190
Ni      3.6859489630     2.1280836260    10.0000000190
Ni      4.9145986540     4.2561673160    10.0000000190
Ni      4.9145986910    -0.0000000000    10.0000000190
Ni      6.1432483460     2.1280836260    10.0000000190
Ni      7.3718980370     4.2561673160    10.0000000190
Ni      1.6381995390     1.4187224170    12.0063764260
Ni      2.8668492300     3.5468061070    12.0063764260
Ni      4.0954988850     5.6748897330    12.0063764260
Ni      4.0954988480     1.4187224170    12.0063764260
Ni      5.3241485390     3.5468061070    12.0063764260
Ni      6.5527981940     5.6748897330    12.0063764260
Ni      6.5527982300     1.4187224170    12.0063764260
Ni      7.7814479220     3.5468061070    12.0063764260
Ni      9.0100975760     5.6748897330    12.0063764260
Ni      2.1078922641     0.6538280374    14.1058479906
Ni      3.3204307426     2.7639621180    14.1027578460
Ni      4.5630758925     4.9051133430    14.1030518755
Ni      4.5563719246     0.6203508169    14.0587416033
Ni      5.7524493232     2.7577166952    14.1063359496
Ni      6.9976521928     4.8837890366    14.0982777999
Ni      7.0151750682     0.6383886702    14.0987916394
Ni      8.2149030023     2.7576579184    14.1017694302
Ni      9.4559168244     4.9030011681    14.1157863288
Ni      0.0909016800    -0.1556903035    16.2154962786
Ni      1.3013758129     1.9769153126    16.2133085073
Ni      2.5522255237     4.0903152853    16.2087341649
Ni      2.5188795931    -0.2076999764    16.2034959751
Ni      3.8413328087     1.8325998229    16.1136506141
Ni      5.0057147672     4.1144176804    16.2159953949
Ni      5.0337099966    -0.2075356227    16.1714999760
Ni      6.2879864384     1.9698978189    16.2048664145
Ni      7.4603573968     4.0989077496    16.2154026159
O       3.6248538369     2.3264053908    17.7854040320
H       3.6945267217     2.0973890453    18.6887204189
38
Step 9 | ATOMIC_POSITIONS (angstrom) | Cartesian Angstrom
Ni      0.0000000000     0.0000000000    10.0000000190
Ni      1.2286496540     2.1280836260    10.0000000190
Ni      2.4572993460     4.2561673160    10.0000000190
Ni      2.4572993090    -0.0000000000    10.0000000190
Ni      3.6859489630     2.1280836260    10.0000000190
Ni      4.9145986540     4.2561673160    10.0000000190
Ni      4.9145986910    -0.0000000000    10.0000000190
Ni      6.1432483460     2.1280836260    10.0000000190
Ni      7.3718980370     4.2561673160    10.0000000190
Ni      1.6381995390     1.4187224170    12.0063764260
Ni      2.8668492300     3.5468061070    12.0063764260
Ni      4.0954988850     5.6748897330    12.0063764260
Ni      4.0954988480     1.4187224170    12.0063764260
Ni      5.3241485390     3.5468061070    12.0063764260
Ni      6.5527981940     5.6748897330    12.0063764260
Ni      6.5527982300     1.4187224170    12.0063764260
Ni      7.7814479220     3.5468061070    12.0063764260
Ni      9.0100975760     5.6748897330    12.0063764260
Ni      2.1316284033     0.6303617016    14.1443938618
Ni      3.3492012436     2.7145628958    14.1855227318
Ni      4.5832419877     4.8779240802    14.1392485880
Ni      4.5716161842     0.5938920136    14.0959334635
Ni      5.7614094399     2.7255691932    14.1449963567
Ni      7.0129310232     4.8503776101    14.1326694998
Ni      7.0364218259     0.6087154076    14.1334482572
Ni      8.2286648252     2.7269645710    14.1371561995
Ni      9.4754003152     4.8694866901    14.1546742581
Ni      0.1264315089    -0.2174702221    16.2752509872
Ni      1.3385585231     1.9144752208    16.2724876017
Ni      2.5931386112     4.0181926064    16.2704047704
Ni      2.5473402709    -0.2836203981    16.2576525963
Ni      3.8910943503     1.7354439403    16.2234753211
Ni      5.0393270937     4.0493171551    16.2768340415
Ni      5.0784257239    -0.2858098238    16.2139399610
Ni      6.3374278605     1.9066058317    16.2593774923
Ni      7.4954598440     4.0366708042    16.2750832176
O       3.5804366479     2.4482072200    17.8675255802
H       3.7091556871     2.0485567247    18.7533875878
38
Step 10 | ATOMIC_POSITIONS (angstrom) | Cartesian Angstrom
Ni      0.0000000000     0.0000000000    10.0000000190
Ni      1.2286496540     2.1280836260    10.0000000190
Ni      2.4572993460     4.2561673160    10.0000000190
Ni      2.4572993090    -0.0000000000    10.0000000190
Ni      3.6859489630     2.1280836260    10.0000000190
Ni      4.9145986540     4.2561673160    10.0000000190
Ni      4.9145986910    -0.0000000000    10.0000000190
Ni      6.1432483460     2.1280836260    10.0000000190
Ni      7.3718980370     4.2561673160    10.0000000190
Ni      1.6381995390     1.4187224170    12.0063764260
Ni      2.8668492300     3.5468061070    12.0063764260
Ni      4.0954988850     5.6748897330    12.0063764260
Ni      4.0954988480     1.4187224170    12.0063764260
Ni      5.3241485390     3.5468061070    12.0063764260
Ni      6.5527981940     5.6748897330    12.0063764260
Ni      6.5527982300     1.4187224170    12.0063764260
Ni      7.7814479220     3.5468061070    12.0063764260
Ni      9.0100975760     5.6748897330    12.0063764260
Ni      2.1521052768     0.6039522448    14.1790153255
Ni      3.3715878603     2.6760983416    14.2545689417
Ni      4.6008904629     4.8486202337    14.1728704762
Ni      4.5866378664     0.5677984484    14.1353185290
Ni      5.7746025097     2.6948098259    14.1795855267
Ni      7.0293717224     4.8177431580    14.1640245299
Ni      7.0564802112     0.5784369250    14.1650951506
Ni      8.2454633119     2.6974588533    14.1696851866
Ni      9.4976353996     4.8314418421    14.1891948939
Ni      0.1623663522    -0.2800637379    16.3242586709
Ni      1.3811018358     1.8489623616    16.3220038126
Ni      2.6344749946     3.9439161885    16.3282442740
Ni      2.5795136171    -0.3553583057    16.3017822640
Ni      3.9336703557     1.6545851018    16.3373955957
Ni      5.0724587093     3.9774461577    16.3289852672
Ni      5.1223136380    -0.3626699276    16.2498004885
Ni      6.3808093762     1.8418015310    16.3035622375
Ni      7.5309012363     3.9733138829    16.3240257097
O       3.5420882412     2.5545411414    17.9412059949
H       3.7178459439     2.0157199952    18.7924493194
38
Step 11 | ATOMIC_POSITIONS (angstrom) | Cartesian Angstrom
Ni      0.0000000000     0.0000000000    10.0000000190
Ni      1.2286496540     2.1280836260    10.0000000190
Ni      2.4572993460     4.2561673160    10.0000000190
Ni      2.4572993090    -0.0000000000    10.0000000190
Ni      3.6859489630     2.1280836260    10.0000000190
Ni      4.9145986540     4.2561673160    10.0000000190
Ni      4.9145986910    -0.0000000000    10.0000000190
Ni      6.1432483460     2.1280836260    10.0000000190
Ni      7.3718980370     4.2561673160    10.0000000190
Ni      1.6381995390     1.4187224170    12.0063764260
Ni      2.8668492300     3.5468061070    12.0063764260
Ni      4.0954988850     5.6748897330    12.0063764260
Ni      4.0954988480     1.4187224170    12.0063764260
Ni      5.3241485390     3.5468061070    12.0063764260
Ni      6.5527981940     5.6748897330    12.0063764260
Ni      6.5527982300     1.4187224170    12.0063764260
Ni      7.7814479220     3.5468061070    12.0063764260
Ni      9.0100975760     5.6748897330    12.0063764260
Ni      2.1529965444     0.5960812047    14.1812873353
Ni      3.3701544420     2.6784407087    14.2540123902
Ni      4.6021571169     4.8410197157    14.1764885826
Ni      4.5892551489     0.5631560720    14.1442589136
Ni      5.7811355507     2.6901877446    14.1817353468
Ni      7.0337493318     4.8124454687    14.1666295519
Ni      7.0589913301     0.5720548558    14.1677666225
Ni      8.2514473524     2.6927437749    14.1727617052
Ni      9.5041998452     4.8203612000    14.1912531457
Ni      0.1699690460    -0.2930679709    16.3231353510
Ni      1.3935146894     1.8331430267    16.3217738405
Ni      2.6421345583     3.9282402443    16.3358911179
Ni      2.5893645073    -0.3654662596    16.3003203192
Ni      3.9354071566     1.6539925469    16.3539261052
Ni      5.0789050970     3.9577431037    16.3304296993
Ni      5.1294365410    -0.3753312057    16.2502747457
Ni      6.3836811188     1.8276491802    16.3019063065
Ni      7.5380285482     3.9597041140    16.3228921986
O       3.5432343211     2.5550392909    17.9472684707
H       3.7117315836     2.0294937604    18.7842915908
38
Step 12 | ATOMIC_POSITIONS (angstrom) | Cartesian Angstrom
Ni      0.0000000000     0.0000000000    10.0000000190
Ni      1.2286496540     2.1280836260    10.0000000190
Ni      2.4572993460     4.2561673160    10.0000000190
Ni      2.4572993090    -0.0000000000    10.0000000190
Ni      3.6859489630     2.1280836260    10.0000000190
Ni      4.9145986540     4.2561673160    10.0000000190
Ni      4.9145986910    -0.0000000000    10.0000000190
Ni      6.1432483460     2.1280836260    10.0000000190
Ni      7.3718980370     4.2561673160    10.0000000190
Ni      1.6381995390     1.4187224170    12.0063764260
Ni      2.8668492300     3.5468061070    12.0063764260
Ni      4.0954988850     5.6748897330    12.0063764260
Ni      4.0954988480     1.4187224170    12.0063764260
Ni      5.3241485390     3.5468061070    12.0063764260
Ni      6.5527981940     5.6748897330    12.0063764260
Ni      6.5527982300     1.4187224170    12.0063764260
Ni      7.7814479220     3.5468061070    12.0063764260
Ni      9.0100975760     5.6748897330    12.0063764260
Ni      2.1546171039     0.5875163513    14.1836964046
Ni      3.3701858997     2.6782558119    14.2552287506
Ni      4.6042992413     4.8326493860    14.1806144598
Ni      4.5920725242     0.5581947450    14.1537676660
Ni      5.7878926795     2.6846094837    14.1840319767
Ni      7.0387267090     4.8064140903    14.1694148249
Ni      7.0618558448     0.5647863423    14.1705949917
Ni      8.2576662053     2.6869289180    14.1762240771
Ni      9.5109531945     4.8089941522    14.1940242585
Ni      0.1789394734    -0.3083164687    16.3227877025
Ni      1.4063449937     1.8149772183    16.3221657801
Ni      2.6506813244     3.9108439051    16.3451334659
Ni      2.6004300381    -0.3781641833    16.2996314844
Ni      3.9386547148     1.6506433112    16.3702398705
Ni      5.0869873082     3.9364738084    16.3326289338
Ni      5.1374485932    -0.3896891945    16.2517627376
Ni      6.3882179164     1.8110964842    16.3010103455
Ni      7.5462719192     3.9437616360    16.3225238872
O       3.5424469049     2.5620517514    17.9543931618
H       3.7067209612     2.0391450207    18.7793458224
38
Step 13 | ATOMIC_POSITIONS (angstrom) | Cartesian Angstrom
Ni      0.0000000000     0.0000000000    10.0000000190
Ni      1.2286496540     2.1280836260    10.0000000190
Ni      2.4572993460     4.2561673160    10.0000000190
Ni      2.4572993090    -0.0000000000    10.0000000190
Ni      3.6859489630     2.1280836260    10.0000000190
Ni      4.9145986540     4.2561673160    10.0000000190
Ni      4.9145986910    -0.0000000000    10.0000000190
Ni      6.1432483460     2.1280836260    10.0000000190
Ni      7.3718980370     4.2561673160    10.0000000190
Ni      1.6381995390     1.4187224170    12.0063764260
Ni      2.8668492300     3.5468061070    12.0063764260
Ni      4.0954988850     5.6748897330    12.0063764260
Ni      4.0954988480     1.4187224170    12.0063764260
Ni      5.3241485390     3.5468061070    12.0063764260
Ni      6.5527981940     5.6748897330    12.0063764260
Ni      6.5527982300     1.4187224170    12.0063764260
Ni      7.7814479220     3.5468061070    12.0063764260
Ni      9.0100975760     5.6748897330    12.0063764260
Ni      2.1567633245     0.5744279488    14.1854293147
Ni      3.3705457731     2.6774048290    14.2545336480
Ni      4.6077244868     4.8200040621    14.1856081242
Ni      4.5959800011     0.5513556703    14.1672060716
Ni      5.7983389325     2.6763954333    14.1856169924
Ni      7.0465185302     4.7978058419    14.1720155074
Ni      7.0656653973     0.5538091593    14.1732209614
Ni      8.2669715738     2.6780280682    14.1800663258
Ni      9.5206865791     4.7926953630    14.1972008574
Ni      0.1928093755    -0.3318074008    16.3196140829
Ni      1.4248755517     1.7868619829    16.3199913388
Ni      2.6628938495     3.8853490898    16.3580966440
Ni      2.6178428545    -0.3972567283    16.2962831746
Ni      3.9429955499     1.6470939092    16.3890049708
Ni      5.0999625949     3.9047448197    16.3334239270
Ni      5.1487063397    -0.4101357155    16.2529630164
Ni      6.3947666858     1.7854565627    16.2972994319
Ni      7.5587609947     3.9191310236    16.3193097366
O       3.5417290609     2.5740627097    17.9620934800
H       3.6990759829     2.0522374325    18.7723528467
38
Step 14 | ATOMIC_POSITIONS (angstrom) | Cartesian Angstrom
Ni      0.0000000000     0.0000000000    10.0000000190
Ni      1.2286496540     2.1280836260    10.0000000190
Ni      2.4572993460     4.2561673160    10.0000000190
Ni      2.4572993090    -0.0000000000    10.0000000190
Ni      3.6859489630     2.1280836260    10.0000000190
Ni      4.9145986540     4.2561673160    10.0000000190
Ni      4.9145986910    -0.0000000000    10.0000000190
Ni      6.1432483460     2.1280836260    10.0000000190
Ni      7.3718980370     4.2561673160    10.0000000190
Ni      1.6381995390     1.4187224170    12.0063764260
Ni      2.8668492300     3.5468061070    12.0063764260
Ni      4.0954988850     5.6748897330    12.0063764260
Ni      4.0954988480     1.4187224170    12.0063764260
Ni      5.3241485390     3.5468061070    12.0063764260
Ni      6.5527981940     5.6748897330    12.0063764260
Ni      6.5527982300     1.4187224170    12.0063764260
Ni      7.7814479220     3.5468061070    12.0063764260
Ni      9.0100975760     5.6748897330    12.0063764260
Ni      2.1599172404     0.5544917176    14.1857688616
Ni      3.3720321711     2.6744253725    14.2510122252
Ni      4.6134972756     4.8009932661    14.1915600543
Ni      4.6015236467     0.5416924451    14.1861132859
Ni      5.8142596413     2.6640300904    14.1858104542
Ni      7.0586293976     4.7852093374    14.1739659777
Ni      7.0709849374     0.5371366587    14.1751493999
Ni      8.2806732411     2.6641887980    14.1840945501
Ni      9.5345863279     4.7694811944    14.2011336525
Ni      0.2142073087    -0.3680354879    16.3122904531
Ni      1.4514625756     1.7435645650    16.3139404628
Ni      2.6804502115     3.8478410627    16.3769008584
Ni      2.6449131703    -0.4264630934    16.2890897544
Ni      3.9494937363     1.6421178144    16.4111041452
Ni      5.1207119327     3.8577004052    16.3321373182
Ni      5.1649206397    -0.4400072168    16.2541640502
Ni      6.4047957352     1.7458089836    16.2895181967