38
Step 1 | ATOMIC_POSITIONS (angstrom) | Cartesian Angstrom
Ni      0.0000000000     0.0000000000    10.0000000190
Ni      1.2286496540     2.1280836260    10.0000000190
Ni      2.4572993460     4.2561673160    10.0000000190
Ni      2.4572993090     0.0000000000    10.0000000190
Ni      3.6859489630     2.1280836260    10.0000000190
Ni      4.9145986540     4.2561673160    10.0000000190
Ni      4.9145986910     0.0000000000    10.0000000190
Ni      6.1432483460     2.1280836260    10.0000000190
Ni      7.3718980370     4.2561673160    10.0000000190
Ni      1.6381995390     1.4187224170    12.0063764260
Ni      2.8668492300     3.5468061070    12.0063764260
Ni      4.0954988850     5.6748897330    12.0063764260
Ni      4.0954988480     1.4187224170    12.0063764260
Ni      5.3241485390     3.5468061070    12.0063764260
Ni      6.5527981940     5.6748897330    12.0063764260
Ni      6.5527982300     1.4187224170    12.0063764260
Ni      7.7814479220     3.5468061070    12.0063764260
Ni      9.0100975760     5.6748897330    12.0063764260
Ni      2.0488183116     0.7084321230    14.0122966827
Ni      3.2755332892     2.8389683570    14.0097159038
Ni      4.5059970262     4.9642861316    14.0122534761
Ni      4.5050068230     0.7094124179    14.0123206207
Ni      5.7339763697     2.8360630688    14.0122920434
Ni      6.9629880188     4.9640897258    14.0126906921
Ni      6.9632722809     0.7080920302    14.0126955695
Ni      8.1916020844     2.8360102977    14.0122468824
Ni      9.4204092148     4.9642063139    14.0128983376
Ni      0.0030892737    -0.0050790392    16.0291933257
Ni      1.2271171463     2.1229383736    16.0276762819
Ni      2.4583365573     4.2543402215    16.0272973171
Ni      2.4579752893    -0.0097639437    16.0278593339
Ni      3.6915227309     2.1146693005    15.7774335658
Ni      4.9198313981     4.2549747697    16.0276867548
Ni      4.9199139990    -0.0092381579    16.0279493950
Ni      6.1514356550     2.1225986098    16.0278698310
Ni      7.3747591495     4.2509578145    16.0291926879
O       3.6855429371     2.1499046539    17.6220287680
H       3.6805832507     2.1531012510    18.3282927288
