80
Step 1 | ATOMIC_POSITIONS (angstrom) | Cartesian Angstrom
Ni      1.2286497520     0.7093615510    11.2500000000
Ni      2.4572990100     2.8374462050    11.2500000000
Ni      3.6859482670     4.9655308580    11.2500000000
Ni      4.9145975240     7.0936155120    11.2500000000
Ni      3.6859497520     0.7093615510    11.2500000000
Ni      4.9145990100     2.8374462050    11.2500000000
Ni      6.1432482670     4.9655308580    11.2500000000
Ni      7.3718975240     7.0936155120    11.2500000000
Ni      6.1432497520     0.7093615510    11.2500000000
Ni      7.3718990100     2.8374462050    11.2500000000
Ni      8.6005482670     4.9655308580    11.2500000000
Ni      9.8291975240     7.0936155120    11.2500000000
Ni      8.6005497520     0.7093615510    11.2500000000
Ni      9.8291990100     2.8374462050    11.2500000000
Ni     11.0578482670     4.9655308580    11.2500000000
Ni     12.2864975240     7.0936155120    11.2500000000
Ni     14.7391156440     8.5053429940    13.3011714150
Ni     11.0531329440     2.1206495290    13.3008022990
Ni     12.2817169740     4.2489790340    13.3006009370
Ni     13.5101985340     6.3773433500    13.3009431250
Ni      7.3672568660     8.5047181050    13.3011773700
Ni      3.6813642390     2.1207834060    13.3007249920
Ni      4.9098915810     4.2493198240    13.3009122650
Ni      6.1382079690     6.3774560510    13.3011135670
Ni      9.8241033230     8.5046823230    13.3010832760
Ni      6.1383369810     2.1207818050    13.3007715320
Ni      7.3668809570     4.2490234570    13.3008058440
Ni      8.5953896190     6.3767159330    13.3009510360
Ni     12.2816608160     8.5051500050    13.3006064560
Ni      8.5958456850     2.1206091640    13.3010363910
Ni      9.8244550650     4.2487038260    13.3007275540
Ni     11.0528529680     6.3769409810    13.3006612510
Cu      2.4478273930     1.4024593490    15.3768195280
Cu      3.6763308060     3.5307008760    15.3768060770
Cu      4.9041378630     5.6597275330    15.3773446700
Cu      6.1330260750     7.7878909920    15.3784795760
Cu      4.9046987940     1.4026027490    15.3777978380
Cu      6.1325026870     3.5313494180    15.3777258640
Cu      7.3610720820     5.6598451510    15.3779275450
Cu      8.5906751570     7.7868955290    15.3785352680
Cu      7.3621786350     1.4037478130    15.3762149870
Cu      8.5904727220     3.5321453650    15.3780682330
Cu      9.8190628610     5.6596863340    15.3769316570
Cu     11.0489114770     7.7874997910    15.3777155250
Cu      9.8196454140     1.4041813300    15.3774701120
Cu     11.0479045230     3.5315147300    15.3771972950
Cu     12.2765483610     5.6595853030    15.3771297580
Cu     13.5054403740     7.7883030910    15.3772812510
Cu      1.2140125070     0.6836802980    17.5697066840
Cu      2.4431554840     2.8116125730    17.5665701770
Cu      3.6705110990     4.9384343220    17.5687388930
Cu      4.8988742140     7.0688538720    17.5715927900
Cu      3.6716454970     0.6829118360    17.5713988440
Cu      4.8981418590     2.8112416660    17.5722076350
Cu      6.1274353450     4.9410331950    17.5708266730
Cu      7.3554752240     7.0698227980    17.5713298580
Cu      6.1297077270     0.6833063410    17.5689100860
Cu      7.3567237630     2.8135682210    17.5698798540
Cu      8.5851063570     4.9421568870    17.5702369000
Cu      9.8152975500     7.0699596350    17.5700617890
Cu      8.5865082000     0.6855772250    17.5667967620
Cu      9.8144914730     2.8135456230    17.5749497460
Cu     11.0427692100     4.9416447890    17.5690865390
Cu     12.2728600100     7.0692517500    17.5719745900
O       4.8369206072     2.8917136673    21.6770907466
O       6.1697736904     3.5098072199    19.3194532897
O       6.1359502876     3.4953473032    24.1246555704
C       6.1384863866     3.4870166752    21.7146293800
C       6.8992439941     3.0832400344    20.4745907991
C       6.8717770758     3.0761985593    22.9763721122
H       5.9582225955     4.5891531161    21.7097455560
H       7.0073100819     1.9861419310    20.4020962834
H       7.8800756449     3.5432174077    20.3996999080
H       7.8782163252     3.5095278804    23.0079385338
H       6.9568618903     1.9701467159    23.0080868525
H       4.9802842022     1.9213427387    21.6864789278
H       5.2419934807     3.0684130257    19.3804466805
H       6.6404440133     3.1942895411    24.8978072591
O       2.4337816021     1.3949071954    19.2010932343
H       2.4336562124     1.3972139631    20.1904639698
80
Step 2 | ATOMIC_POSITIONS (angstrom) | Cartesian Angstrom
Ni      1.2286497520     0.7093615510    11.2500000000
Ni      2.4572990100     2.8374462050    11.2500000000
Ni      3.6859482670     4.9655308580    11.2500000000
Ni      4.9145975240     7.0936155120    11.2500000000
Ni      3.6859497520     0.7093615510    11.2500000000
Ni      4.9145990100     2.8374462050    11.2500000000
Ni      6.1432482670     4.9655308580    11.2500000000
Ni      7.3718975240     7.0936155120    11.2500000000
Ni      6.1432497520     0.7093615510    11.2500000000
Ni      7.3718990100     2.8374462050    11.2500000000
Ni      8.6005482670     4.9655308580    11.2500000000
Ni      9.8291975240     7.0936155120    11.2500000000
Ni      8.6005497520     0.7093615510    11.2500000000
Ni      9.8291990100     2.8374462050    11.2500000000
Ni     11.0578482670     4.9655308580    11.2500000000
Ni     12.2864975240     7.0936155120    11.2500000000
Ni     14.7391156440     8.5053429940    13.3011714150
Ni     11.0531329440     2.1206495290    13.3008022990
Ni     12.2817169740     4.2489790340    13.3006009370
Ni     13.5101985340     6.3773433500    13.3009431250
Ni      7.3672568660     8.5047181050    13.3011773700
Ni      3.6813642390     2.1207834060    13.3007249920
Ni      4.9098915810     4.2493198240    13.3009122650
Ni      6.1382079690     6.3774560510    13.3011135670
Ni      9.8241033230     8.5046823230    13.3010832760
Ni      6.1383369810     2.1207818050    13.3007715320
Ni      7.3668809570     4.2490234570    13.3008058440
Ni      8.5953896190     6.3767159330    13.3009510360
Ni     12.2816608160     8.5051500050    13.3006064560
Ni      8.5958456850     2.1206091640    13.3010363910
Ni      9.8244550650     4.2487038260    13.3007275540
Ni     11.0528529680     6.3769409810    13.3006612510
Cu      2.4478273930     1.4024593490    15.3768195280
Cu      3.6763308060     3.5307008760    15.3768060770
Cu      4.9041378630     5.6597275330    15.3773446700
Cu      6.1330260750     7.7878909920    15.3784795760
Cu      4.9046987940     1.4026027490    15.3777978380
Cu      6.1325026870     3.5313494180    15.3777258640
Cu      7.3610720820     5.6598451510    15.3779275450
Cu      8.5906751570     7.7868955290    15.3785352680
Cu      7.3621786350     1.4037478130    15.3762149870
Cu      8.5904727220     3.5321453650    15.3780682330
Cu      9.8190628610     5.6596863340    15.3769316570
Cu     11.0489114770     7.7874997910    15.3777155250
Cu      9.8196454140     1.4041813300    15.3774701120
Cu     11.0479045230     3.5315147300    15.3771972950
Cu     12.2765483610     5.6595853030    15.3771297580
Cu     13.5054403740     7.7883030910    15.3772812510
Cu      1.2140125070     0.6836802980    17.5697066840
Cu      2.4431554840     2.8116125730    17.5665701770
Cu      3.6705110990     4.9384343220    17.5687388930
Cu      4.8988742140     7.0688538720    17.5715927900
Cu      3.6716454970     0.6829118360    17.5713988440
Cu      4.8981418590     2.8112416660    17.5722076350
Cu      6.1274353450     4.9410331950    17.5708266730
Cu      7.3554752240     7.0698227980    17.5713298580
Cu      6.1297077270     0.6833063410    17.5689100860
Cu      7.3567237630     2.8135682210    17.5698798540
Cu      8.5851063570     4.9421568870    17.5702369000
Cu      9.8152975500     7.0699596350    17.5700617890
Cu      8.5865082000     0.6855772250    17.5667967620
Cu      9.8144914730     2.8135456230    17.5749497460
Cu     11.0427692100     4.9416447890    17.5690865390
Cu     12.2728600100     7.0692517500    17.5719745900
O       4.8264036778     2.8871751496    21.6689211759
O       6.1647819734     3.5213949491    19.3416881478
O       6.1307323200     3.5020599411    24.1289058565
C       6.1345092621     3.4855998503    21.7278849562
C       6.9111565334     3.0782837224    20.4965314222
C       6.8731272977     3.0737645427    22.9874328318
H       5.9601760343     4.5789368092    21.7104968494
H       7.0128855827     1.9835868515    20.4074331308
H       7.8889979682     3.5468904367    20.3969890468
H       7.8888876601     3.5107973675    23.0001627932
H       6.9623120126     1.9668106061    22.9982195575
H       4.9758941212     1.9248669684    21.6886386977
H       5.2384675411     3.0753810072    19.3977398000
H       6.6369616626     3.1967217993    24.8995858269
O       2.4329088143     1.3927405478    19.1835474061
H       2.4328089274     1.3986665044    20.1679002584
