80
Step 1 | ATOMIC_POSITIONS (angstrom) | Cartesian Angstrom
Ni      1.2286497524     0.7093615512    11.2500000000
Ni      2.4572990095     2.8374462048    11.2500000000
Ni      3.6859482667     4.9655308584    11.2500000000
Ni      4.9145975239     7.0936155120    11.2500000000
Ni      3.6859497524     0.7093615512    11.2500000000
Ni      4.9145990095     2.8374462048    11.2500000000
Ni      6.1432482667     4.9655308584    11.2500000000
Ni      7.3718975239     7.0936155120    11.2500000000
Ni      6.1432497524     0.7093615512    11.2500000000
Ni      7.3718990095     2.8374462048    11.2500000000
Ni      8.6005482667     4.9655308584    11.2500000000
Ni      9.8291975239     7.0936155120    11.2500000000
Ni      8.6005497524     0.7093615512    11.2500000000
Ni      9.8291990095     2.8374462048    11.2500000000
Ni     11.0578482667     4.9655308584    11.2500000000
Ni     12.2864975239     7.0936155120    11.2500000000
Ni      0.0000788190     0.0003748398    13.2525575394
Ni      1.2280814025     2.1285301203    13.2532293310
Ni      2.4569187956     4.2559167395    13.2530093342
Ni     13.5151373363     6.3841522723    13.2531354123
Ni      2.4564046219    -0.0005655465    13.2540883601
Ni      3.6859467713     2.1292898876    13.2532549638
Ni      4.9150141682     4.2558945139    13.2530284895
Ni      6.1437843324     6.3840392545    13.2535466857
Ni      4.9154883896    -0.0005482177    13.2541166748
Ni      6.1438501619     2.1286112747    13.2533553386
Ni      7.3714058633     4.2561960221    13.2523980211
Ni      8.6004862584     6.3837474691    13.2528496706
Ni      7.3718061352     0.0003452994    13.2525927412
Ni      8.6005384629     2.1281081623    13.2535184578
Ni      9.8296973747     4.2561858054    13.2524848726
Ni     11.0573769407     6.3840597760    13.2533407736
Cu      2.4575442619     1.4185758491    15.2618714703
Cu      3.6859480756     3.5497493662    15.2644168985
Cu      4.9135516521     5.6752964428    15.2597505192
Cu      6.1405295605     7.8016387678    15.2639253428
Cu      4.9143506410     1.4185545284    15.2618303991
Cu      6.1430730241     3.5467783400    15.2623876886
Cu      7.3727021256     5.6747702864    15.2635357278
Cu      8.6005492819     7.8029411856    15.2620280702
Cu      7.3715919678     1.4181007878    15.2615261228
Cu      8.6005671286     3.5479726089    15.2628398244
Cu      9.8286857467     5.6749126624    15.2629048067
Cu     11.0604357702     7.8015149570    15.2638988750
Cu      9.8294462234     1.4180835055    15.2614303247
Cu     11.0579874911     3.5468646748    15.2619472773
Cu     12.2873818230     5.6753364877    15.2597316046
Cu     13.5152117802     7.8021142238    15.2603583432
Cu      1.2299579678     0.7091627453    17.3363070483
Cu      2.4573454665     2.8367786284    17.3365701467
Cu      3.6859047209     4.9401664065    17.3334955274
Cu      4.9368321916     7.1061862116    17.3333102136
Cu      3.6859984144     0.7088998122    17.3362581245
Cu      4.9140994134     2.8366020864    17.3361139636
Cu      6.1460217669     4.9614448341    17.3332302506
Cu      7.3703302001     7.0985909848    17.3332297281
Cu      6.1418408423     0.7089796735    17.3364108521
Cu      7.3705014322     2.8341128901    17.3351521098
Cu      8.5998789040     4.9706622019    17.3221785742
Cu      9.8307772805     7.0988481734    17.3326051680
Cu      8.6006099527     0.7172495230    17.3353927924
Cu      9.8315461269     2.8332159274    17.3339392636
Cu     11.0558107079     4.9611190067    17.3325886292
Cu     12.2640190211     7.1061205986    17.3333970795
O       9.1309033900     3.6123226381    21.7352208510
O       8.6400614013     4.9710208168    19.3771708232
O       8.6432380424     4.9588550318    24.1829392615
C       8.6531452970     4.9611384393    21.7719484874
C       9.1174467737     5.6794235246    20.5167507492
C       9.1243074602     5.6544204210    23.0336392796
H       7.5380781611     4.8768925814    21.7672701214
H      10.2236238083     5.6954684687    20.4609341050
H       8.7473629992     6.7007642651    20.4577512758
H       8.7808648556     6.6954957739    23.0657101244
H      10.2341337902     5.6433899020    23.0659491197
H      10.1101635366     3.6696077781    21.7441937932
H       8.9865944763     4.0441126720    19.4290921022
H       8.9867585546     5.4346676041    24.9554049676
O      13.5148082262     6.3841251607    18.7072073983
H      13.5154555259     6.3842728478    19.6501740907
80
Step 2 | ATOMIC_POSITIONS (angstrom) | Cartesian Angstrom
Ni      1.2286497524     0.7093615512    11.2500000000
Ni      2.4572990095     2.8374462048    11.2500000000
Ni      3.6859482667     4.9655308584    11.2500000000
Ni      4.9145975239     7.0936155120    11.2500000000
Ni      3.6859497524     0.7093615512    11.2500000000
Ni      4.9145990095     2.8374462048    11.2500000000
Ni      6.1432482667     4.9655308584    11.2500000000
Ni      7.3718975239     7.0936155120    11.2500000000
Ni      6.1432497524     0.7093615512    11.2500000000
Ni      7.3718990095     2.8374462048    11.2500000000
Ni      8.6005482667     4.9655308584    11.2500000000
Ni      9.8291975239     7.0936155120    11.2500000000
Ni      8.6005497524     0.7093615512    11.2500000000
Ni      9.8291990095     2.8374462048    11.2500000000
Ni     11.0578482667     4.9655308584    11.2500000000
Ni     12.2864975239     7.0936155120    11.2500000000
Ni      0.0003694153     0.0011276206    13.2445445623
Ni      1.2269498010     2.1293667375    13.2467112248
Ni      2.4562046580     4.2552675224    13.2460629910
Ni     13.5151322601     6.3840108754    13.2460108433
Ni      2.4545030832    -0.0017268451    13.2495999697
Ni      3.6859150690     2.1317956872    13.2470478631
Ni      4.9158110399     4.2552101560    13.2461503801
Ni      6.1450226587     6.3837176638    13.2478097361
Ni      4.9173260136    -0.0016827520    13.2496963410
Ni      6.1450621445     2.1296661642    13.2471544758
Ni      7.3704826245     4.2562830915    13.2443373576
Ni      8.6003306155     6.3826994995    13.2456521072
Ni      7.3715278795     0.0010344522    13.2446804937
Ni      8.6005287833     2.1282579610    13.2477357244
Ni      9.8306329086     4.2562300216    13.2445514407
Ni     11.0562879148     6.3837608730    13.2471069189
Cu      2.4580650717     1.4183039305    15.2613912750
Cu      3.6859144139     3.5553989067    15.2687110878
Cu      4.9112422052     5.6762696376    15.2556607617
Cu      6.1351002976     7.7990585646    15.2669024353
Cu      4.9137903016     1.4182166255    15.2612662736
Cu      6.1427081862     3.5465776590    15.2629134994
Cu      7.3739674571     5.6748441095    15.2659475587
Cu      8.6005066689     7.8029353447    15.2615571824
Cu      7.3708918567     1.4167576178    15.2601824156
Cu      8.6005961948     3.5499835192    15.2639632126
Cu      9.8280091529     5.6752612435    15.2639776635
Cu     11.0656364625     7.7986959101    15.2668072676
Cu      9.8300349901     1.4166825919    15.2597849848
Cu     11.0583339066     3.5468060346    15.2613917634
Cu     12.2893856456     5.6764031411    15.2555751407
Cu     13.5153406482     7.8001961786    15.2577368295
Cu      1.2337009017     0.7103097545    17.3563941714
Cu      2.4568153012     2.8335387885    17.3572795170
Cu      3.6858718743     4.8936096700    17.3521726916
Cu      4.9774068514     7.1293021300    17.3516218402
Cu      3.6860709972     0.7082820549    17.3562755422
Cu      4.9136982015     2.8330243252    17.3557896050
Cu      6.1517146063     4.9527737646    17.3463287509
Cu      7.3686562073     7.1095076516    17.3463822815
Cu      6.1379556276     0.7098533682    17.3567523131
Cu      7.3677270553     2.8271654702    17.3526066725
Cu      8.5988371690     4.9817974328    17.3122313839
Cu      9.8324183032     7.1101067019    17.3443470174
Cu      8.6007116007     0.7335470572    17.3533761866
Cu      9.8363690159     2.8245387585    17.3487626640
Cu     11.0514212501     4.9517387490    17.3442493530
Cu     12.2229289693     7.1291101467    17.3519039714
O       9.1320922104     3.5943250107    21.7242943439
O       8.6222461648     4.9569255948    19.4042709500
O       8.6313969878     4.9502993223    24.1907490445
C       8.6658083635     4.9573803986    21.7871047022
C       9.1214889362     5.6888274093    20.5310736980
C       9.1243141738     5.6577134867    23.0494929460
H       7.5510589569     4.8783830880    21.7679097305
H      10.2304296942     5.7043320383    20.4704088303
H       8.7425118603     6.7113055340    20.4489966978
H       8.7807466717     6.7124648736    23.0536102444
H      10.2424904522     5.6509890342    23.0501696263
H      10.1056597109     3.6632105255    21.7481899067
H       8.9821313569     4.0306331847    19.4428156822
H       8.9828266606     5.4300862138    24.9581244273
O      13.5142725639     6.3844938308    18.7102346046
H      13.5166016709     6.3849350700    19.6829297027
80
Step 3 | ATOMIC_POSITIONS (angstrom) | Cartesian Angstrom
Ni      1.2286497524     0.7093615512    11.2500000000
Ni      2.4572990095     2.8374462048    11.2500000000
Ni      3.6859482667     4.9655308584    11.2500000000
Ni      4.9145975239     7.0936155120    11.2500000000
Ni      3.6859497524     0.7093615512    11.2500000000
Ni      4.9145990095     2.8374462048    11.2500000000
Ni      6.1432482667     4.9655308584    11.2500000000
Ni      7.3718975239     7.0936155120    11.2500000000
Ni      6.1432497524     0.7093615512    11.2500000000
Ni      7.3718990095     2.8374462048    11.2500000000
Ni      8.6005482667     4.9655308584    11.2500000000
Ni      9.8291975239     7.0936155120    11.2500000000
Ni      8.6005497524     0.7093615512    11.2500000000
Ni      9.8291990095     2.8374462048    11.2500000000
Ni     11.0578482667     4.9655308584    11.2500000000
Ni     12.2864975239     7.0936155120    11.2500000000
Ni      0.0006961320     0.0015211354    13.2384801974
Ni      1.2262393406     2.1298555819    13.2419498736
Ni      2.4559066577     4.2546774380    13.2410092138
Ni     13.5151569412     6.3839941104    13.2399977751
Ni      2.4531843568    -0.0025002250    13.2466998750
Ni      3.6858788438     2.1335751293    13.2429785043
Ni      4.9162169217     4.2545940548    13.2412209542
Ni      6.1460788082     6.3835970604    13.2438063212
Ni      4.9185642741    -0.0024397968    13.2468303956
Ni      6.1458504398     2.1303747234    13.2427388583
Ni      7.3700348285     4.2564469813    13.2388552165
Ni      8.6001744229     6.3818717514    13.2406048546
Ni      7.3712337856     0.0014073280    13.2387338059
Ni      8.6005180174     2.1286304032    13.2437046465
Ni      9.8310607259     4.2563264156    13.2389936293
Ni     11.0553646598     6.3836756152    13.2425838445
Cu      2.4585245597     1.4181878354    15.2622230295
Cu      3.6858422268     3.5585847166    15.2721467138
Cu      4.9092769131     5.6772211673    15.2554256403
Cu      6.1314904647     7.7975982909    15.2687319868
Cu      4.9132775484     1.4180009360    15.2620110380
Cu      6.1423364087     3.5462063818    15.2642344061
Cu      7.3737085496     5.6756959577    15.2673376431
Cu      8.6003901668     7.8031697752    15.2615914590
Cu      7.3702918796     1.4155675191    15.2600398626
Cu      8.6005993080     3.5503929664    15.2648994879
Cu      9.8286389331     5.6762672474    15.2643357125
Cu     11.0691755239     7.7971485826    15.2684982760
Cu      9.8305440272     1.4154075865    15.2591984808
Cu     11.0588077621     3.5464624247    15.2615673005
Cu     12.2912120903     5.6774655807    15.2552013793
Cu     13.5153926909     7.7985289753    15.2590439704
Cu      1.2388625285     0.7150555835    17.3760603415
Cu      2.4549310337     2.8266724048    17.3775987470
Cu      3.6859598914     4.8654354341    17.3758761919
Cu      5.0010409323     7.1433315006    17.3751471555
Cu      3.6860670208     0.7087913002    17.3760096653
Cu      4.9149736095     2.8259401904    17.3751044248
Cu      6.1559790088     4.9460292745    17.3593256070
Cu      7.3717063420     7.1186055475    17.3596022818
Cu      6.1328361690     0.7146852690    17.3766586620
Cu      7.3660409184     2.8224201920    17.3698026659
Cu      8.5987777964     4.9909417896    17.3087920150
Cu      9.8292290161     7.1190702803    17.3561736897
Cu      8.6007287044     0.7451236649    17.3709219333
Cu      9.8397518231     2.8187278294    17.3634371499
Cu     11.0476417472     4.9444412586    17.3557916026
Cu     12.1988394409     7.1430520155    17.3756060826
O       9.1337621399     3.5918398301    21.7168827659
O       8.6094592670     4.9386153021    19.4289773405
O       8.6264042682     4.9520717537    24.1948274920
C       8.6603173333     4.9534370050    21.7964525511
C       9.1295462212     5.6880512375    20.5410621292
C       9.1317020537     5.6580182613    23.0589612949
H       7.5704374557     4.8799596539    21.7704206175
H      10.2322559600     5.7147154638    20.4784374629
H       8.7381932155     6.7188882010    20.4429178741
H       8.7822569537     6.7188441348    23.0440384283
H      10.2422889726     5.6591761544    23.0413290892
H      10.1053610254     3.6518420372    21.7524891174
H       8.9741007433     4.0268962563    19.4596423901
H       8.9772718199     5.4232393490    24.9645720909
O      13.5137160156     6.3850721778    18.7262183626
H      13.5178659261     6.3856730907    19.6906185549
80
Step 4 | ATOMIC_POSITIONS (angstrom) | Cartesian Angstrom
Ni      1.2286497524     0.7093615512    11.2500000000
Ni      2.4572990095     2.8374462048    11.2500000000
Ni      3.6859482667     4.9655308584    11.2500000000
Ni      4.9145975239     7.0936155120    11.2500000000
Ni      3.6859497524     0.7093615512    11.2500000000
Ni      4.9145990095     2.8374462048    11.2500000000
Ni      6.1432482667     4.9655308584    11.2500000000
Ni      7.3718975239     7.0936155120    11.2500000000
Ni      6.1432497524     0.7093615512    11.2500000000
Ni      7.3718990095     2.8374462048    11.2500000000
Ni      8.6005482667     4.9655308584    11.2500000000
Ni      9.8291975239     7.0936155120    11.2500000000
Ni      8.6005497524     0.7093615512    11.2500000000
Ni      9.8291990095     2.8374462048    11.2500000000
Ni     11.0578482667     4.9655308584    11.2500000000
Ni     12.2864975239     7.0936155120    11.2500000000
Ni      0.0009285836     0.0016455032    13.2339744704
Ni      1.2258894874     2.1300525491    13.2385331863
Ni      2.4559427404     4.2541664417    13.2375337742
Ni     13.5152090081     6.3840787959    13.2350593816
Ni      2.4523566621    -0.0028741560    13.2450720540
Ni      3.6858572718     2.1347684821    13.2406080176
Ni      4.9163327867     4.2540447655    13.2379499787
Ni      6.1468918962     6.3835795786    13.2411991845
Ni      4.9193139305    -0.0028038853    13.2451951835
Ni      6.1462809292     2.1308003242    13.2397356934
Ni      7.3699006523     4.2566273798    13.2353864878
Ni      8.6000223100     6.3812452674    13.2371458167
Ni      7.3710287358     0.0015682857    13.2343571812
Ni      8.6004855302     2.1291154880    13.2410195653
Ni      9.8311302363     4.2564301899    13.2352444280
Ni     11.0546671045     6.3837254421    13.2394023794
Cu      2.4590113391     1.4181458237    15.2646131023
Cu      3.6857445246     3.5601771972    15.2762781995
Cu      4.9074047240     5.6781522731    15.2590106084
Cu      6.1288585218     7.7969734617    15.2708863337
Cu      4.9127290430     1.4178214583    15.2642923407
Cu      6.1418930151     3.5456826323    15.2668148464
Cu      7.3721331025     5.6772056416    15.2684158053
Cu      8.6002104854     7.8038082204    15.2623569363
Cu      7.3697643130     1.4143390779    15.2613718818
Cu      8.6005773303     3.5495461216    15.2662522151
Cu      9.8304223312     5.6778468617    15.2644671505
Cu     11.0718477119     7.7965754025    15.2704151461
Cu      9.8309786966     1.4140508936    15.2599185720
Cu     11.0594703208     3.5458685511    15.2627997538
Cu     12.2930771721     5.6785319597    15.2585523899
Cu     13.5153790535     7.7970003508    15.2643435942
Cu      1.2454096721     0.7227786171    17.3979847402
Cu      2.4521127771     2.8165928405    17.4003154781
Cu      3.6861363259     4.8489502619    17.4073664404
Cu      5.0135136470     7.1515565740    17.4065608671
Cu      3.6860137066     0.7104343705    17.3982557167
Cu      4.9174620414     2.8157127092    17.3966883755
Cu      6.1594468004     4.9404022408    17.3739108769
Cu      7.3786876651     7.1270208395    17.3745694318
Cu      6.1264777034     0.7228268811    17.3988330391
Cu      7.3653238770     2.8194997106    17.3889692697
Cu      8.5994799385     4.9990482327    17.3110728610
Cu      9.8220291547     7.1270174516    17.3695532079
Cu      8.6006859711     0.7534895511    17.3904146976
Cu      9.8420302224     2.8151387007    17.3797136721
Cu     11.0441052843     4.9383624407    17.3686747024
Cu     12.1858559310     7.1512210017    17.4072134635
O       9.1330950054     3.5947794974    21.7119783857
O       8.5953929280     4.9286819233    19.4527024145
O       8.6254492020     4.9592650966    24.1957897523
C       8.6712584753     4.9544640874    21.8044871547
C       9.1271062625     5.6880830502    20.5493436240
C       9.1327077739     5.6587246575    23.0611560413
H       7.5794868349     4.8804540596    21.7747132629
H      10.2351305913     5.7262401793    20.4865518697
H       8.7367388098     6.7172029098    20.4383850157
H       8.7863356456     6.7167924340    23.0356100034
H      10.2424336903     5.6678780723    23.0367357019
H      10.1077497879     3.6371200045    21.7580166964
H       8.9670560681     4.0168167304    19.4828959966
H       8.9709683474     5.4155249730    24.9775237065
O      13.5129995972     6.3858562506    18.7280467363
H      13.5195275576     6.3866352569    19.7054115706
80
Step 5 | ATOMIC_POSITIONS (angstrom) | Cartesian Angstrom
Ni      1.2286497524     0.7093615512    11.2500000000
Ni      2.4572990095     2.8374462048    11.2500000000
Ni      3.6859482667     4.9655308584    11.2500000000
Ni      4.9145975239     7.0936155120    11.2500000000
Ni      3.6859497524     0.7093615512    11.2500000000
Ni      4.9145990095     2.8374462048    11.2500000000
Ni      6.1432482667     4.9655308584    11.2500000000
Ni      7.3718975239     7.0936155120    11.2500000000
Ni      6.1432497524     0.7093615512    11.2500000000
Ni      7.3718990095     2.8374462048    11.2500000000
Ni      8.6005482667     4.9655308584    11.2500000000
Ni      9.8291975239     7.0936155120    11.2500000000
Ni      8.6005497524     0.7093615512    11.2500000000
Ni      9.8291990095     2.8374462048    11.2500000000
Ni     11.0578482667     4.9655308584    11.2500000000
Ni     12.2864975239     7.0936155120    11.2500000000
Ni      0.0008195044     0.0012857771    13.2322130834
Ni      1.2260595461     2.1297732916    13.2373854821
Ni      2.4564461006     4.2539564472    13.2369213846
Ni     13.5153441299     6.3843461437    13.2326276466
Ni      2.4522216698    -0.0026169629    13.2455196159
Ni      3.6858470223     2.1350466230    13.2410668870
Ni      4.9160791290     4.2537943253    13.2377071074
Ni      6.1470747919     6.3836726517    13.2409292956
Ni      4.9193240249    -0.0025412231    13.2455733898
Ni      6.1462093710     2.1308131674    13.2391829340
Ni      7.3701263732     4.2568282166    13.2351331348
Ni      8.5998527996     6.3809587436    13.2361611582
Ni      7.3712062219     0.0013709079    13.2327492851
Ni      8.6004184883     2.1295975143    13.2404968325
Ni      9.8307533275     4.2565218676    13.2343657740
Ni     11.0545651467     6.3839120279    13.2384708748
Cu      2.4595531647     1.4181265617    15.2703558510
Cu      3.6856160690     3.5600857660    15.2840950851
Cu      4.9055108656     5.6790264917    15.2693995185
Cu      6.1269808098     7.7974174493    15.2760076679
Cu      4.9120803074     1.4176105725    15.2698974214
Cu      6.1412807443     3.5449739865    15.2724033356
Cu      7.3687524496     5.6796151922    15.2700695062
Cu      8.5999198772     7.8052395768    15.2649204489
Cu      7.3693766379     1.4128765645    15.2659848282
Cu      8.6005099476     3.5471885942    15.2693636079
Cu      9.8337747673     5.6802106084    15.2651014174
Cu     11.0738967906     7.7972767076    15.2751635075
Cu      9.8312963209     1.4123551383    15.2636051597
Cu     11.0605118855     3.5449223288    15.2665417107
Cu     12.2951641534     5.6795609121    15.2685578271
Cu     13.5152930913     7.7956619985    15.2768210315
Cu      1.2534350457     0.7334463655    17.4262421006
Cu      2.4488798366     2.8029752030    17.4297486530
Cu      3.6864312055     4.8431921741    17.4531030337
Cu      5.0152080535     7.1544460620    17.4522311815
Cu      3.6859232559     0.7139098035    17.4275418437
Cu      4.9208271329     2.8020488958    17.4246230160
Cu      6.1621951358     4.9360334530    17.3926887463
Cu      7.3899152489     7.1353462249    17.3939371363
Cu      6.1188336761     0.7344123906    17.4273995399
Cu      7.3664647771     2.8196050834    17.4137279306
Cu      8.6012969692     5.0058468373    17.3224290017
Cu      9.8104886897     7.1345068861    17.3867716695
Cu      8.6005892506     0.7577917419    17.4154311478
Cu      9.8423343906     2.8150933688    17.4007478600
Cu     11.0406915941     4.9336482968    17.3851909770
Cu     12.1834044305     7.1541547166    17.4530962296
O       9.1406652799     3.6017512479    21.7109441687
O       8.5807033887     4.9159094613    19.4760103069
O       8.6271144237     4.9717798930    24.1963221137
C       8.6790028568     4.9597336998    21.8100911423
C       9.1262860143     5.6880822800    20.5554560009
C       9.1382478555     5.6608107715    23.0606598567
H       7.5877622287     4.8809786929    21.7832688926
H      10.2322829146     5.7407941516    20.4950275869
H       8.7353461621     6.7082423163    20.4363427328
H       8.7918260128     6.7087475445    23.0264516723
H      10.2420419792     5.6790831276    23.0382194345
H      10.1078406046     3.6141872118    21.7663125236
H       8.9551388362     4.0066566834    19.5194690886
H       8.9627520611     5.4056815041    24.9978175867
O      13.5121814585     6.3869741726    18.7365542363
H      13.5219205700     6.3881061847    19.7124181934
80
Step 6 | ATOMIC_POSITIONS (angstrom) | Cartesian Angstrom
Ni      1.2286497524     0.7093615512    11.2500000000
Ni      2.4572990095     2.8374462048    11.2500000000
Ni      3.6859482667     4.9655308584    11.2500000000
Ni      4.9145975239     7.0936155120    11.2500000000
Ni      3.6859497524     0.7093615512    11.2500000000
Ni      4.9145990095     2.8374462048    11.2500000000
Ni      6.1432482667     4.9655308584    11.2500000000
Ni      7.3718975239     7.0936155120    11.2500000000
Ni      6.1432497524     0.7093615512    11.2500000000
Ni      7.3718990095     2.8374462048    11.2500000000
Ni      8.6005482667     4.9655308584    11.2500000000
Ni      9.8291975239     7.0936155120    11.2500000000
Ni      8.6005497524     0.7093615512    11.2500000000
Ni      9.8291990095     2.8374462048    11.2500000000
Ni     11.0578482667     4.9655308584    11.2500000000
Ni     12.2864975239     7.0936155120    11.2500000000
Ni      0.0002407126     0.0005244292    13.2354417286
Ni      1.2266948410     2.1291342718    13.2400057115
Ni      2.4571831128     4.2543491349    13.2407599964
Ni     13.5154741787     6.3846489163    13.2359915068
Ni      2.4528143631    -0.0018262806    13.2484272928
Ni      3.6858683046     2.1342472618    13.2449715393
Ni      4.9155599802     4.2541358698    13.2419359226
Ni      6.1461561558     6.3838579458    13.2440558263
Ni      4.9186509442    -0.0017618415    13.2483648183
Ni      6.1456369563     2.1303550541    13.2423084704
Ni      7.3704551508     4.2568747609    13.2390176502
Ni      8.5997855951     6.3813104719    13.2387593326
Ni      7.3718307871     0.0008326264    13.2360518202
Ni      8.6003354598     2.1295781619    13.2431317420
Ni      9.8302662311     4.2565091505    13.2375628390
Ni     11.0554798063     6.3841742305    13.2412170173
Cu      2.4598068259     1.4180950037    15.2779216076
Cu      3.6855600777     3.5588186324    15.2943118380
Cu      4.9044861316     5.6793185738    15.2829443046
Cu      6.1264245110     7.7986298768    15.2841791890
Cu      4.9117339502     1.4174467307    15.2773584933
Cu      6.1408218488     3.5444679564    15.2795220384
Cu      7.3658754956     5.6813684252    15.2729837736
Cu      8.5996934776     7.8068418849    15.2690762857
Cu      7.3693956838     1.4119819174    15.2730202764
Cu      8.6004378423     3.5450753939    15.2741344051
Cu      9.8364281557     5.6818472299    15.2672777110
Cu     11.0746103594     7.7988172080    15.2829642042
Cu      9.8312738789     1.4112206017    15.2698758149
Cu     11.0613820765     3.5441529258    15.2721922516
Cu     12.2964643788     5.6799386210    15.2817033447
Cu     13.5151834154     7.7952057238    15.2917490044
Cu      1.2569930552     0.7388019896    17.4476656679
Cu      2.4482769371     2.7959592404    17.4522503015
Cu      3.6866423725     4.8472890845    17.4905265552
Cu      5.0091564749     7.1524303781    17.4893064410
Cu      3.6859107655     0.7172839243    17.4505112393
Cu      4.9220265064     2.7951434458    17.4459280274
Cu      6.1627061040     4.9356260251    17.4066374066
Cu      7.3964972799     7.1392037725    17.4084058797
Cu      6.1155943489     0.7406155864    17.4490374427
Cu      7.3693028628     2.8231586671    17.4324106670
Cu      8.6031835838     5.0072567524    17.3381556882
Cu      9.8037653265     7.1378310253    17.3994651203
Cu      8.6005385049     0.7556602825    17.4341905056
Cu      9.8400188415     2.8190249209    17.4165924383
Cu     11.0396003425     4.9332147773    17.3973805409
Cu     12.1886648880     7.1523363102    17.4902873250
O       9.1378540026     3.6064540348    21.7137119953
O       8.5735356019     4.9087031082    19.4867369356
O       8.6297150548     4.9817694491    24.1997371048
C       8.6847628624     4.9632450914    21.8123140193
C       9.1240503713     5.6847916357    20.5567823637
C       9.1445996408     5.6625729696    23.0617761281
H       7.5903955426     4.8811175908    21.7926574507
H      10.2277281063     5.7506655208    20.4983578269
H       8.7318808030     6.7011865801    20.4373961647
H       8.7945948682     6.7046732016    23.0206250537
H      10.2459724891     5.6873690542    23.0455171206
H      10.1182501021     3.5958808110    21.7751243319
H       8.9434712829     3.9982222952    19.5542506140
H       8.9563768711     5.3983687946    25.0118681635
O      13.5117020886     6.3876236381    18.7455491725
H      13.5240737729     6.3895067083    19.7174937531
80
Step 7 | ATOMIC_POSITIONS (angstrom) | Cartesian Angstrom
Ni      1.2286497524     0.7093615512    11.2500000000
Ni      2.4572990095     2.8374462048    11.2500000000
Ni      3.6859482667     4.9655308584    11.2500000000
Ni      4.9145975239     7.0936155120    11.2500000000
Ni      3.6859497524     0.7093615512    11.2500000000
Ni      4.9145990095     2.8374462048    11.2500000000
Ni      6.1432482667     4.9655308584    11.2500000000
Ni      7.3718975239     7.0936155120    11.2500000000
Ni      6.1432497524     0.7093615512    11.2500000000
Ni      7.3718990095     2.8374462048    11.2500000000
Ni      8.6005482667     4.9655308584    11.2500000000
Ni      9.8291975239     7.0936155120    11.2500000000
Ni      8.6005497524     0.7093615512    11.2500000000
Ni      9.8291990095     2.8374462048    11.2500000000
Ni     11.0578482667     4.9655308584    11.2500000000
Ni     12.2864975239     7.0936155120    11.2500000000
Ni     -0.0007900673    -0.0006679086    13.2433833481
Ni      1.2276534564     2.1281842340    13.2461085482
Ni      2.4582558322     4.2552393390    13.2490558435
Ni     13.5156297663     6.3850098059    13.2452487621
Ni      2.4536517448    -0.0006645424    13.2539523919
Ni      3.6859194933     2.1329214193    13.2524064053
Ni      4.9147549973     4.2549567736    13.2507310469
Ni      6.1441404585     6.3842171396    13.2506705585
Ni      4.9177344017    -0.0006118615    13.2537192034
Ni      6.1447270746     2.1295713426    13.2489865105
Ni      7.3706893877     4.2567513424    13.2465567232
Ni      8.5997516143     6.3821748768    13.2443871446
Ni      7.3729140318    -0.0000447631    13.2440284031
Ni      8.6002231387     2.1290256968    13.2487436199
Ni      9.8298190641     4.2563388809    13.2442447170
Ni     11.0574539865     6.3846200264    13.2475791505
Cu      2.4598246503     1.4180445114    15.2896348929
Cu      3.6855747857     3.5570918458    15.3103975291
Cu      4.9036647291     5.6793341538    15.3025250362
Cu      6.1261597859     7.8003901936    15.2980849965
Cu      4.9116134650     1.4173058112    15.2889679727
Cu      6.1403969174     3.5439455974    15.2903630763
Cu      7.3634835891     5.6827735623    15.2789668362
Cu      8.5994741169     7.8088580188    15.2763136716
Cu      7.3696796106     1.4113957484    15.2843846319
Cu      8.6003589945     3.5433043581    15.2823767112
Cu      9.8384852730     5.6830903216    15.2723984502
Cu     11.0749961168     7.8009913341    15.2963934317
Cu      9.8310438744     1.4103229547    15.2804228741
Cu     11.0622711774     3.5433218678    15.2814619938
Cu     12.2976445387     5.6800037204    15.3007505719
Cu     13.5150597615     7.7950902420    15.3126027229
Cu      1.2570544206     0.7402253466    17.4705652997
Cu      2.4497649447     2.7940557849    17.4764778376
Cu      3.6868089646     4.8533644066    17.5305887972
Cu      5.0021389287     7.1494274379    17.5283723925
Cu      3.6860072253     0.7208645309    17.4758153542
Cu      4.9215084170     2.7935059995    17.4688179782
Cu      6.1620011654     4.9378464671    17.4211172377
Cu      7.3990671491     7.1410582276    17.4234556022
Cu      6.1158039333     0.7428692542    17.4721483073