80
Step 1 | ATOMIC_POSITIONS (angstrom) | Cartesian Angstrom
NI      1.2286497520     0.7093615510    11.2500000000
NI      2.4572990100     2.8374462050    11.2500000000
NI      3.6859482670     4.9655308580    11.2500000000
NI      4.9145975240     7.0936155120    11.2500000000
NI      3.6859497520     0.7093615510    11.2500000000
NI      4.9145990100     2.8374462050    11.2500000000
NI      6.1432482670     4.9655308580    11.2500000000
NI      7.3718975240     7.0936155120    11.2500000000
NI      6.1432497520     0.7093615510    11.2500000000
NI      7.3718990100     2.8374462050    11.2500000000
NI      8.6005482670     4.9655308580    11.2500000000
NI      9.8291975240     7.0936155120    11.2500000000
NI      8.6005497520     0.7093615510    11.2500000000
NI      9.8291990100     2.8374462050    11.2500000000
NI     11.0578482670     4.9655308580    11.2500000000
NI     12.2864975240     7.0936155120    11.2500000000
NI      0.0004534356     0.0001310493    13.2524918930
NI      1.2282018112     2.1280765966    13.2528802171
NI      2.4571688782     4.2565767977    13.2530049797
NI     13.5151347544     6.3837512682    13.2526515108
NI      2.4570322662    -0.0003581916    13.2530511301
NI      3.6859354125     2.1281208500    13.2526893372
NI      4.9148168884     4.2565813479    13.2530278235
NI      6.1429377195     6.3844400648    13.2539772107
NI      4.9148824624    -0.0003683199    13.2531208758
NI      6.1437496074     2.1281413410    13.2529606738
NI      7.3708896129     4.2554981851    13.2534627664
NI      8.6005137938     6.3853954784    13.2534400058
NI      7.3713998093     0.0001490691    13.2525480395
NI      8.6005230294     2.1279093521    13.2540181000
NI      9.8301595644     4.2555019428    13.2535704602
NI     11.0581950902     6.3844852617    13.2537391754
CU      2.4580284436     1.4192653790    15.2601774054
CU      3.6859113982     3.5459092426    15.2599682610
CU      4.9144934098     5.6746379027    15.2616566045
CU      6.1432585702     7.8031529934    15.2614802993
CU      4.9138479354     1.4192295041    15.2601456252
CU      6.1408364707     3.5453553848    15.2650015191
CU      7.3732266062     5.6743793355    15.2632035768
CU      8.6005336254     7.8053991721    15.2648239646
CU      7.3715125024     1.4185323266    15.2615947092
CU      8.6005880281     3.5483504996    15.2632616594
CU      9.8281651719     5.6744827640    15.2626233341
CU     11.0577373865     7.8029969595    15.2615076197
CU      9.8295600573     1.4184827300    15.2614073474
CU     11.0602148418     3.5454205748    15.2645291613
CU     12.2864199116     5.6746676115    15.2615826201
CU     13.5151950439     7.8030861476    15.2616596641
CU      1.2223393059     0.7056879437    17.3354248696
CU      2.4346833067     2.8505041811    17.3337641452
CU      3.6858302812     4.9728696550    17.3357013590
CU      4.9148803445     7.0935507154    17.3376471250
CU      3.6859736168     0.6834575871    17.3336545348
CU      4.9366822837     2.8501853692    17.3333736242
CU      6.1407830419     4.9652181893    17.3340917380
CU      7.3706092045     7.0964577509    17.3331892239
CU      6.1494654405     0.7055249392    17.3354986250
CU      7.3710055424     2.8352103924    17.3334347892
CU      8.5998494854     4.9707184045    17.3208771117
CU      9.8305871130     7.0968004146    17.3324558711
CU      8.6006419316     0.7098702695    17.3379401959
CU      9.8309101815     2.8343212867    17.3323472010
CU     11.0609968051     4.9648754674    17.3334899728
CU     12.2859778976     7.0933586765    17.3378796700
O       9.1310817670     3.6120448663    21.7351591141
O       8.6401432573     4.9708519831    19.3762256712
O       8.6431554083     4.9588793922    24.1829784551
C       8.6527085511     4.9615598055    21.7718880606
C       9.1182186874     5.6792447103    20.5171863702
C       9.1246388933     5.6542087314    23.0335729796
H       7.5380658192     4.8769161422    21.7672723888
H      10.2234814110     5.6955856252    20.4608447829
H       8.7471870789     6.7006589515    20.4577101869
H       8.7807765064     6.6955270734    23.0657155295
H      10.2340310556     5.6434670900    23.0659076480
H      10.1100141983     3.6699440956    21.7442693206
H       8.9866059412     4.0441790254    19.4290393710
H       8.9867839243     5.4346418318    24.9553872163
O       3.6859276455     2.1279781116    18.7066947032
H       3.6863546561     2.1281330272    19.6497553415
80
Step 2 | ATOMIC_POSITIONS (angstrom) | Cartesian Angstrom
NI      1.2286497520     0.7093615510    11.2500000000
NI      2.4572990100     2.8374462050    11.2500000000
NI      3.6859482670     4.9655308580    11.2500000000
NI      4.9145975240     7.0936155120    11.2500000000
NI      3.6859497520     0.7093615510    11.2500000000
NI      4.9145990100     2.8374462050    11.2500000000
NI      6.1432482670     4.9655308580    11.2500000000
NI      7.3718975240     7.0936155120    11.2500000000
NI      6.1432497520     0.7093615510    11.2500000000
NI      7.3718990100     2.8374462050    11.2500000000
NI      8.6005482670     4.9655308580    11.2500000000
NI      9.8291975240     7.0936155120    11.2500000000
NI      8.6005497520     0.7093615510    11.2500000000
NI      9.8291990100     2.8374462050    11.2500000000
NI     11.0578482670     4.9655308580    11.2500000000
NI     12.2864975240     7.0936155120    11.2500000000
NI      0.0013018344     0.0004014388    13.2442840401
NI      1.2272543672     2.1282069357    13.2455327724
NI      2.4567835430     4.2573487653    13.2459380557
NI     13.5151081315     6.3827515335    13.2448351234
NI      2.4565762789    -0.0011264095    13.2461544846
NI      3.6859048492     2.1282351182    13.2445935440
NI      4.9154036448     4.2573592520    13.2460533918
NI      6.1423492773     6.3847354779    13.2491195258
NI      4.9153652642    -0.0011630630    13.2463702967
NI      6.1448151663     2.1284261841    13.2458319284
NI      7.3687266424     4.2540414860    13.2477659283
NI      8.6004311606     6.3877920327    13.2476277799
NI      7.3704483712     0.0004650266    13.2444875741
NI      8.6004621418     2.1276318177    13.2492263768
NI      9.8322141208     4.2540457878    13.2480405621
NI     11.0588755072     6.3848868292    13.2483033932
CU      2.4597676311     1.4205519021    15.2570244467
CU      3.6858071232     3.5437929126    15.2563462723
CU      4.9143403939     5.6741888498    15.2605673948
CU      6.1431667766     7.8034150640    15.2599484847
CU      4.9120543715     1.4204136470    15.2568970524
CU      6.1360341113     3.5424621882    15.2703211755
CU      7.3754394002     5.6735508127    15.2648430207
CU      8.6004736674     7.8102827426    15.2696514394
CU      7.3708679219     1.4181148490    15.2603084178
CU      8.6006584396     3.5510953378    15.2651851551
CU      9.8265677414     5.6738617109    15.2630201580
CU     11.0576705545     7.8029521693    15.2600012764
CU      9.8301456779     1.4179384289    15.2596298628
CU     11.0649625567     3.5426451678    15.2686918149
CU     12.2862098355     5.6743083438    15.2602951325
CU     13.5152737100     7.8033116548    15.2607645192
CU      1.2089430352     0.6978298986    17.3536602781
CU      2.3929123402     2.8745883815    17.3533843275
CU      3.6856398005     4.9885104186    17.3545691038
CU      4.9152482854     7.0935288222    17.3610177198
CU      3.6859868552     0.6356984904    17.3530271882
CU      4.9773391275     2.8736207915    17.3520387962
CU      6.1363069462     4.9661800942    17.3494083180
CU      7.3666272256     7.1013097242    17.3464035075
CU      6.1627384968     0.6974209614    17.3539136486
CU      7.3711777989     2.8305534685    17.3471922023
CU      8.5987182354     4.9819875673    17.3080338105
CU      9.8347559499     7.1021879076    17.3439856552
CU      8.6008075407     0.7106829001    17.3620153214
CU      9.8324774828     2.8279192820    17.3437365531
CU     11.0666463607     4.9651041851    17.3474495497
CU     12.2850959210     7.0929380183    17.3617736420
O       9.1321527431     3.5935852010    21.7240470456
O       8.6227366682     4.9565684315    19.4021397806
O       8.6310486999     4.9502374822    24.1908783757
C       8.6651476158     4.9579851875    21.7870998218
C       9.1227915837     5.6885974237    20.5318055291
C       9.1248337242     5.6574540831    23.0495988745
H       7.5509857053     4.8785198559    21.7679314309
H      10.2305584346     5.7047432377    20.4702504324
H       8.7420834470     6.7107683782    20.4488120708
H       8.7805952298     6.7124808675    23.0535409609
H      10.2424760529     5.6512679104    23.0499117491
H      10.1054331477     3.6642625378    21.7485142736
H       8.9821503317     4.0305918262    19.4427406078
H       8.9828894151     5.4299785607    24.9581721203
O       3.6858048132     2.1277072502    18.7093452567
H       3.6873895009     2.1282877799    19.6828144086
80
Step 3 | ATOMIC_POSITIONS (angstrom) | Cartesian Angstrom
NI      1.2286497520     0.7093615510    11.2500000000
NI      2.4572990100     2.8374462050    11.2500000000
NI      3.6859482670     4.9655308580    11.2500000000
NI      4.9145975240     7.0936155120    11.2500000000
NI      3.6859497520     0.7093615510    11.2500000000
NI      4.9145990100     2.8374462050    11.2500000000
NI      6.1432482670     4.9655308580    11.2500000000
NI      7.3718975240     7.0936155120    11.2500000000
NI      6.1432497520     0.7093615510    11.2500000000
NI      7.3718990100     2.8374462050    11.2500000000
NI      8.6005482670     4.9655308580    11.2500000000
NI      9.8291975240     7.0936155120    11.2500000000
NI      8.6005497520     0.7093615510    11.2500000000
NI      9.8291990100     2.8374462050    11.2500000000
NI     11.0578482670     4.9655308580    11.2500000000
NI     12.2864975240     7.0936155120    11.2500000000
NI      0.0016358543     0.0004974311    13.2385577696
NI      1.2266540886     2.1284956899    13.2405260440
NI      2.4563138658     4.2577056375    13.2411768699
NI     13.5151120670     6.3823152749    13.2395120817
NI      2.4565548907    -0.0017159684    13.2415713678
NI      3.6859028484     2.1282689771    13.2385230683
NI      4.9160582472     4.2577103479    13.2414468710
NI      6.1421796485     6.3847836733    13.2460548566
NI      4.9153883056    -0.0017584181    13.2418723470
NI      6.1454967016     2.1288626696    13.2410842102
NI      7.3673780767     4.2531591596    13.2446469286
NI      8.6003355088     6.3892922597    13.2442075703
NI      7.3700343864     0.0006375355    13.2389303238
NI      8.6003968922     2.1276132409    13.2462088895
NI      9.8334469339     4.2531391553    13.2448822623
NI     11.0591288099     6.3850390036    13.2446984906
CU      2.4613208721     1.4215761066    15.2579787564
CU      3.6856987336     3.5419780535    15.2569687694
CU      4.9143307062     5.6740409409    15.2608226962
CU      6.1429136406     7.8034501527    15.2596702802
CU      4.9104578841     1.4213214907    15.2577176841
CU      6.1333421255     3.5408535454    15.2737993802
CU      7.3755407649     5.6736753399    15.2653503454
CU      8.6003569335     7.8132262297    15.2724157682
CU      7.3707083666     1.4177620242    15.2602569871
CU      8.6006846559     3.5517611033    15.2663856917
CU      9.8268259442     5.6740773400    15.2626607450
CU     11.0579241639     7.8028686326    15.2596511279
CU      9.8302399836     1.4174382600    15.2590242412
CU     11.0677073479     3.5410596207    15.2710514900
CU     12.2860499856     5.6742796547    15.2602944150
CU     13.5152814401     7.8034109958    15.2616081491
CU      1.1995426156     0.6922860842    17.3701949339
CU      2.3707489759     2.8872659367    17.3769840287
CU      3.6856146305     4.9995956458    17.3716720570
CU      4.9148224685     7.0938385820    17.3823857863
CU      3.6859400593     0.6105717863    17.3763555466
CU      4.9988640242     2.8859032424    17.3746601435
CU      6.1353535653     4.9708675128    17.3637305250
CU      7.3609660100     7.1014558700    17.3588156129
CU      6.1722346086     0.6919379271    17.3706157621
CU      7.3762798608     2.8277134713    17.3598976650
CU      8.5985849126     4.9904124038    17.3028437066
CU      9.8405060701     7.1023236493    17.3548378230
CU      8.6008481671     0.7104851079    17.3841270845
CU      9.8285397503     2.8240508791    17.3543171387
CU     11.0678363564     4.9693756885    17.3604883269
CU     12.2851147521     7.0929694573    17.3836235034
O       9.1336888627     3.5918927411    21.7171166426
O       8.6118209630     4.9394996230    19.4248450541
O       8.6265402727     4.9522953873    24.1945892900
C       8.6594363727     4.9538064187    21.7955510098
C       9.1301076126     5.6872895907    20.5402623567
C       9.1318308136     5.6576960644    23.0583540422
H       7.5692445018     4.8801689931    21.7703266303
H      10.2326035203     5.7147324247    20.4776754602
H       8.7379033598     6.7173493990    20.4430652135
H       8.7820716323     6.7179652003    23.0446292901
H      10.2421432732     5.6590858448    23.0417313344
H      10.1050886353     3.6540370091    21.7527680227
H       8.9745438068     4.0272645476    19.4584097655
H       8.9776407375     5.4233685566    24.9643625921
O       3.6856659260     2.1274542055    18.7244023436
H       3.6884617956     2.1284755302    19.6891562339
80
Step 4 | ATOMIC_POSITIONS (angstrom) | Cartesian Angstrom
NI      1.2286497520     0.7093615510    11.2500000000
NI      2.4572990100     2.8374462050    11.2500000000
NI      3.6859482670     4.9655308580    11.2500000000
NI      4.9145975240     7.0936155120    11.2500000000
NI      3.6859497520     0.7093615510    11.2500000000
NI      4.9145990100     2.8374462050    11.2500000000
NI      6.1432482670     4.9655308580    11.2500000000
NI      7.3718975240     7.0936155120    11.2500000000
NI      6.1432497520     0.7093615510    11.2500000000
NI      7.3718990100     2.8374462050    11.2500000000
NI      8.6005482670     4.9655308580    11.2500000000
NI      9.8291975240     7.0936155120    11.2500000000
NI      8.6005497520     0.7093615510    11.2500000000
NI      9.8291990100     2.8374462050    11.2500000000
NI     11.0578482670     4.9655308580    11.2500000000
NI     12.2864975240     7.0936155120    11.2500000000
NI      0.0016045644     0.0004263942    13.2334665308
NI      1.2262594638     2.1288789846    13.2363280395
NI      2.4558422652     4.2578737930    13.2372256161
NI     13.5151380379     6.3821799232    13.2349229961
NI      2.4567349657    -0.0021700475    13.2378889285
NI      3.6859086793     2.1283387314    13.2329505497
NI      4.9167369902     4.2578604511    13.2377724714
NI      6.1421199700     6.3846748070    13.2436126960
NI      4.9151771198    -0.0022261709    13.2382413176
NI      6.1459713352     2.1294312822    13.2372822575
NI      7.3663556966     4.2525237583    13.2428178547
NI      8.6002164307     6.3903755297    13.2418225942
NI      7.3699879504     0.0006898906    13.2340698679
NI      8.6003168560     2.1276997648    13.2438366453
NI      9.8343297938     4.2524559005    13.2427922561
NI     11.0592827411     6.3850460865    13.2415918830
CU      2.4630405055     1.4226657132    15.2631125673
CU      3.6855574959     3.5400141530    15.2617501327
CU      4.9141858686     5.6740379500    15.2626964206
CU      6.1423297034     7.8035217594    15.2607664156
CU      4.9086711345     1.4222524275    15.2626671848
CU      6.1312763038     3.5396682437    15.2780711329
CU      7.3741182465     5.6745197541    15.2653843106
CU      8.6001638685     7.8157931077    15.2756211492
CU      7.3707790977     1.4172303185    15.2616700453
CU      8.6006849227     3.5511688050    15.2676224631
CU      9.8285051550     5.6749448491    15.2617873089
CU     11.0586260122     7.8029353447    15.2605547438
CU      9.8300931065     1.4166848152    15.2596347355
CU     11.0699507670     3.5398090846    15.2738700071
CU     12.2861272921     5.6744506549    15.2617545793
CU     13.5152366616     7.8033786088    15.2646200526
CU      1.1905436424     0.6871360851    17.3910739515
CU      2.3562543139     2.8954133716    17.4122582302
CU      3.6856748086     5.0102108961    17.3932651882
CU      4.9133092226     7.0946583329    17.4097520036
CU      3.6858729601     0.5945679432    17.4112582961
CU      5.0129287634     2.8936978799    17.4085762047
CU      6.1369335177     4.9795235940    17.3821648547
CU      7.3526329734     7.0981740670    17.3748391926
CU      6.1815078170     0.6871007135    17.3917226317
CU      7.3862811335     2.8257401324    17.3759657293
CU      8.5991379991     4.9990786696    17.3026788661
CU      9.8488896934     7.0986706570    17.3688341001
CU      8.6008062559     0.7091015215    17.4125448822
CU      9.8195730746     2.8212389094    17.3675660011
CU     11.0658828278     4.9777773793    17.3771918855
CU     12.2861643144     7.0935061198    17.4116245970
O       9.1329608726     3.5950151791    21.7116346107
O       8.5979868756     4.9286494915    19.4498268058
O       8.6252851792     4.9598425640    24.1957298685
C       8.6702700965     4.9542495969    21.8039223644
C       9.1280472672     5.6867716464    20.5484293728
C       9.1331300871     5.6583036100    23.0609548516
H       7.5794141644     4.8809347145    21.7748141903
H      10.2359168305     5.7273356916    20.4863918097
H       8.7359102356     6.7156576387    20.4378473258
H       8.7862876067     6.7160814239    23.0354668512
H      10.2423101488     5.6685575413    23.0364689585
H      10.1073979565     3.6390825428    21.7589334600
H       8.9669885747     4.0165638828    19.4827463759
H       8.9709262441     5.4149599453    24.9780250007
O       3.6854366589     2.1271411077    18.7274634097
H       3.6900361974     2.1287596295    19.7038490677
80
Step 5 | ATOMIC_POSITIONS (angstrom) | Cartesian Angstrom
NI      1.2286497520     0.7093615510    11.2500000000
NI      2.4572990100     2.8374462050    11.2500000000
NI      3.6859482670     4.9655308580    11.2500000000
NI      4.9145975240     7.0936155120    11.2500000000
NI      3.6859497520     0.7093615510    11.2500000000
NI      4.9145990100     2.8374462050    11.2500000000
NI      6.1432482670     4.9655308580    11.2500000000
NI      7.3718975240     7.0936155120    11.2500000000
NI      6.1432497520     0.7093615510    11.2500000000
NI      7.3718990100     2.8374462050    11.2500000000
NI      8.6005482670     4.9655308580    11.2500000000
NI      9.8291975240     7.0936155120    11.2500000000
NI      8.6005497520     0.7093615510    11.2500000000
NI      9.8291990100     2.8374462050    11.2500000000
NI     11.0578482670     4.9655308580    11.2500000000
NI     12.2864975240     7.0936155120    11.2500000000
NI      0.0010399004     0.0001155404    13.2310220375
NI      1.2264502795     2.1291212685    13.2350380334
NI      2.4556734149     4.2576103032    13.2361809332
NI     13.5152264138     6.3825503395    13.2331097027
NI      2.4571488762    -0.0020932057    13.2371312917
NI      3.6859433838     2.1284001168    13.2305758456
NI      4.9171468382     4.2575574204    13.2371914598
NI      6.1421533138     6.3844473396    13.2429168343
NI      4.9146681233    -0.0021612194    13.2374565776
NI      6.1458476696     2.1299133832    13.2365903928
NI      7.3661720712     4.2524235255    13.2437395540
NI      8.6000744536     6.3905364182    13.2418168495
NI      7.3705002721     0.0006067251    13.2319091511
NI      8.6001979583     2.1278423978    13.2432546392
NI      9.8343271675     4.2522855790    13.2430957360
NI     11.0593203331     6.3849439750    13.2401539977
CU      2.4645123956     1.4235769335    15.2755755738
CU      3.6854109397     3.5382964052    15.2739293384
CU      4.9135766972     5.6741829159    15.2681171677
CU      6.1412187130     7.8039650073    15.2649798300
CU      4.9070892845     1.4229785071    15.2748894658
CU      6.1301554263     3.5390984718    15.2855072273
CU      7.3708227650     5.6762918452    15.2653819342
CU      8.5998954573     7.8178171093    15.2815026106
CU      7.3710255568     1.4163637376    15.2663561317
CU      8.6006150515     3.5491050631    15.2693547911
CU      9.8318227616     5.6766298729    15.2608136812
CU     11.0599981289     7.8035877065    15.2643849887
CU      9.8297793861     1.4154629199    15.2631934055
CU     11.0714654134     3.5390278867    15.2794687983
CU     12.2868707044     5.6748208178    15.2665564482
CU     13.5151253142     7.8031197215    15.2720969870
CU      1.1835997606     0.6837932122    17.4172409004
CU      2.3520397740     2.8974885749    17.4624057469
CU      3.6858115035     5.0181364528    17.4203696256
CU      4.9097551556     7.0964549222    17.4451682135
CU      3.6858660562     0.5909595721    17.4608462697
CU      5.0170227712     2.8954142430    17.4567741456
CU      6.1420124348     4.9917965011    17.4057011546
CU      7.3423192277     7.0912105428    17.3952284897
CU      6.1889231943     0.6844038174    17.4182138525
CU      7.4009661719     2.8261040181    17.3959813802
CU      8.6007139334     5.0066244536    17.3113784463
CU      9.8591811826     7.0909604585    17.3865285057
CU      8.6006597303     0.7055642903    17.4495112832
CU      9.8055519143     2.8212187905    17.3839476826
CU     11.0596313456     4.9900311580    17.3983641511
CU     12.2892282611     7.0950575521    17.4478806708
O       9.1406672136     3.6015699015    21.7100740508
O       8.5837764925     4.9149912921    19.4737628097
O       8.6265450691     4.9724448357    24.1965287397
C       8.6783527746     4.9595297944    21.8096363314
C       9.1280141912     5.6868563719    20.5548024897
C       9.1389012667     5.6603919862    23.0605139974
H       7.5883010194     4.8817019707    21.7834613621
H      10.2332377991     5.7429498078    20.4955155955
H       8.7339137460     6.7063843011    20.4349318540
H       8.7918120400     6.7083324172    23.0254665103
H      10.2420262517     5.6804733877    23.0372608044
H      10.1072897198     3.6161155524    21.7679806814
H       8.9547333559     4.0054035160    19.5201581785
H       8.9623652746     5.4044181477    24.9989100690
O       3.6852490140     2.1268850364    18.7372944534
H       3.6923319006     2.1291681243    19.7114087459
80
Step 6 | ATOMIC_POSITIONS (angstrom) | Cartesian Angstrom
NI      1.2286497520     0.7093615510    11.2500000000
NI      2.4572990100     2.8374462050    11.2500000000
NI      3.6859482670     4.9655308580    11.2500000000
NI      4.9145975240     7.0936155120    11.2500000000
NI      3.6859497520     0.7093615510    11.2500000000
NI      4.9145990100     2.8374462050    11.2500000000
NI      6.1432482670     4.9655308580    11.2500000000
NI      7.3718975240     7.0936155120    11.2500000000
NI      6.1432497520     0.7093615510    11.2500000000
NI      7.3718990100     2.8374462050    11.2500000000
NI      8.6005482670     4.9655308580    11.2500000000
NI      9.8291975240     7.0936155120    11.2500000000
NI      8.6005497520     0.7093615510    11.2500000000
NI      9.8291990100     2.8374462050    11.2500000000
NI     11.0578482670     4.9655308580    11.2500000000
NI     12.2864975240     7.0936155120    11.2500000000
NI      0.0002885256    -0.0002675604    13.2335805361
NI      1.2272559030     2.1289606956    13.2385655186
NI      2.4560979988     4.2570152888    13.2398261432
NI     13.5153402758     6.3831576388    13.2360600768
NI      2.4574645743    -0.0013449394    13.2408680724
NI      3.6859804419     2.1284563309    13.2347376524
NI      4.9168674093     4.2569243990    13.2412461480
NI      6.1419792643     6.3843775796    13.2448253212
NI      4.9142250895    -0.0014182625    13.2410866051
NI      6.1450595892     2.1299228340    13.2406210779
NI      7.3668047100     4.2528055993    13.2472420929
NI      8.5999873604     6.3898323371    13.2445365394
NI      7.3712698845     0.0004513594    13.2346243406
NI      8.6001013518     2.1277553472    13.2452728990
NI      9.8335554718     4.2526104774    13.2459272586
NI     11.0594895299     6.3849300304    13.2416836153
CU      2.4647624067     1.4237816816    15.2902165854
CU      3.6853794634     3.5378642059    15.2885278640
CU      4.9126090182     5.6743672503    15.2755669756
CU      6.1400525724     7.8047749299    15.2713630137
CU      4.9067350870     1.4231108460    15.2893745648
CU      6.1301381873     3.5392073232    15.2947577359
CU      7.3681662550     5.6777410005    15.2667728399
CU      8.5997210718     7.8186469228    15.2895507876
CU      7.3712312448     1.4155558838    15.2731498263
CU      8.6005051676     3.5474246602    15.2716599346
CU      9.8342642231     5.6779431617    15.2615224941
CU     11.0613773003     7.8047177215    15.2703708201
CU      9.8295827174     1.4143310993    15.2691191367
CU     11.0718608805     3.5389005508    15.2874269899
CU     12.2881076146     5.6751353193    15.2734806828
CU     13.5150320180     7.8027497213    15.2815979272
CU      1.1827266250     0.6846650198    17.4355262991
CU      2.3556534257     2.8951721563    17.5008667566
CU      3.6858446176     5.0184174374    17.4393806724
CU      4.9059712907     7.0983316302    17.4714560787
CU      3.6860077386     0.5964036514    17.4987284036
CU      5.0134015788     2.8927399474    17.4935689714
CU      6.1465984067     4.9983472226    17.4224637235
CU      7.3375159431     7.0869720111    17.4095436551
CU      6.1901136449     0.6857777527    17.4367706340
CU      7.4089606166     2.8289863345    17.4096498925
CU      8.6023139624     5.0086303831    17.3247540417
CU      9.8639405778     7.0862867060    17.3987831049
CU      8.6005354931     0.7019260923    17.4771754307
CU      9.7975856933     2.8243415327    17.3949783354
CU     11.0540441833     4.9966879032    17.4132527654
CU     12.2927419785     7.0968588088    17.4748372729
O       9.1375603507     3.6055178026    21.7125473783
O       8.5776270933     4.9080263226    19.4839883961
O       8.6287940165     4.9818503648    24.1998729890
C       8.6843526666     4.9630159874    21.8116916490
C       9.1258933498     5.6839484953    20.5562008150
C       9.1448930967     5.6622818736    23.0617472572
H       7.5907619693     4.8819728089    21.7924225528
H      10.2292210606     5.7529682541    20.4990452706
H       8.7301528818     6.6993155840    20.4353742447
H       8.7943559762     6.7047374607    23.0193791221
H      10.2461692825     5.6887046708    23.0440310117
H      10.1176825936     3.5987095845    21.7771056872
H       8.9435660944     3.9963103909    19.5538847036
H       8.9561677500     5.3970704756    25.0124686923
O       3.6852985165     2.1269839487    18.7470124958
H       3.6943601378     2.1295269059    19.7178912972
80
Step 7 | ATOMIC_POSITIONS (angstrom) | Cartesian Angstrom
NI      1.2286497520     0.7093615510    11.2500000000
NI      2.4572990100     2.8374462050    11.2500000000
NI      3.6859482670     4.9655308580    11.2500000000
NI      4.9145975240     7.0936155120    11.2500000000
NI      3.6859497520     0.7093615510    11.2500000000
NI      4.9145990100     2.8374462050    11.2500000000
NI      6.1432482670     4.9655308580    11.2500000000
NI      7.3718975240     7.0936155120    11.2500000000
NI      6.1432497520     0.7093615510    11.2500000000
NI      7.3718990100     2.8374462050    11.2500000000
NI      8.6005482670     4.9655308580    11.2500000000
NI      9.8291975240     7.0936155120    11.2500000000
NI      8.6005497520     0.7093615510    11.2500000000
NI      9.8291990100     2.8374462050    11.2500000000
NI     11.0578482670     4.9655308580    11.2500000000
NI     12.2864975240     7.0936155120    11.2500000000
NI     -0.0006770300    -0.0007732188    13.2406367004
NI      1.2287553465     2.1285063704    13.2469440744
NI      2.4570911104     4.2560179427    13.2482881604
NI     13.5154879535     6.3839175896    13.2434413667
NI      2.4578006958     0.0000988027    13.2492801299
NI      3.6860180853     2.1285540498    13.2456575184
NI      4.9159923738     4.2558770133    13.2502029372
NI      6.1413593657     6.3845294823    13.2493458608
NI      4.9137125720     0.0000167119    13.2493016044
NI      6.1435552630     2.1296275030    13.2495972811
NI      7.3676808258     4.2533536687    13.2534798582
NI      8.5999114124     6.3888822685    13.2499081956
NI      7.3722949867     0.0002345373    13.2417861622
NI      8.5999909650     2.1272861475    13.2499110968
NI      9.8325364197     4.2530909559    13.2512811160
NI     11.0600607819     6.3851139002    13.2459543166
CU      2.4643740202     1.4236887880    15.3116448601
CU      3.6854339411     3.5379988369    15.3100546735
CU      4.9111685225     5.6746768766    15.2876720184
CU      6.1384659426     7.8060237046    15.2821484292
CU      4.9069909036     1.4230165736    15.3106508874
CU      6.1303637506     3.5395679579    15.3097507514
CU      7.3658363094     5.6791593314    15.2710816304
CU      8.5995798973     7.8193562030    15.3031981292
CU      7.3715389053     1.4145924342    15.2844366783
CU      8.6003530333     3.5461584837    15.2761558858
CU      9.8362406793     5.6791766812    15.2649692843
CU     11.0631663314     7.8064242593    15.2805979360
CU      9.8293560354     1.4129732839    15.2794492170
CU     11.0720738024     3.5389837448    15.3010109491
CU     12.2899386146     5.6755337236    15.2849368938
CU     13.5149363335     7.8022238181    15.2965519450
CU      1.1851302626     0.6885780497    17.4550524213
CU      2.3600468881     2.8925307989    17.5427767226
CU      3.6857454620     5.0140344250    17.4597637928
CU      4.9015392253     7.1005400539    17.5013254682
CU      3.6863250387     0.6031980232    17.5397226316
CU      5.0088184265     2.8895004858    17.5333802269
CU      6.1508872757     5.0013736639    17.4405916998
CU      7.3360196709     7.0853260751    17.4247160521
CU      6.1879528435     0.6901067443    17.4566313107