80
Step 1 | ATOMIC_POSITIONS (angstrom) | Cartesian Angstrom
Ni      1.2286856411     0.7093205132    11.2496618556
Ni      2.4572337403     2.8370526001    11.2498515219
Ni      3.6857477250     4.9655042038    11.2497006461
Ni      4.9144112488     7.0935478601    11.2497753724
Ni      3.6856215716     0.7094256954    11.2498248278
Ni      4.9144342259     2.8373462263    11.2495252303
Ni      6.1432794012     4.9654360786    11.2497716407
Ni      7.3716245052     7.0934056875    11.2494684991
Ni      6.1431457724     0.7090221710    11.2497073145
Ni      7.3719083591     2.8374941499    11.2498391792
Ni      8.6002368312     4.9652523972    11.2496994569
Ni      9.8293322124     7.0936125504    11.2497093046
Ni      8.6005099525     0.7090370141    11.2497528875
Ni      9.8290315675     2.8372264582    11.2495368304
Ni     11.0580108187     4.9655324772    11.2496768006
Ni     12.2864089682     7.0934754130    11.2505574691
Ni     14.7389903473     8.5053591840    13.3010354592
Ni     11.0526567054     2.1210631876    13.3007693636
Ni     12.2816598108     4.2490105722    13.3004442021
Ni     13.5106408682     6.3771153993    13.3006032049
Ni      7.3673448121     8.5041270504    13.3010607477
Ni      3.6819186479     2.1210682059    13.3003794921
Ni      4.9092811084     4.2490984060    13.3019065380
Ni      6.1379710136     6.3780073007    13.3020254324
Ni      9.8242555821     8.5047097597    13.3009538563
Ni      6.1379487497     2.1202675794    13.3016154734
Ni      7.3669073753     4.2489242153    13.3002191222
Ni      8.5957715863     6.3773666376    13.3018598853
Ni     12.2817211496     8.5057586816    13.3004089121
Ni      8.5961610869     2.1201687694    13.3017658028
Ni      9.8250844189     4.2486549013    13.3016775881
Ni     11.0523664685     6.3766071844    13.3007134106
Cu      2.4479478493     1.4026972711    15.3769381706
Cu      3.6748661222     3.5295469758    15.3778875836
Cu      4.9046376313     5.6597168800    15.3767524410
Cu      6.1333619533     7.7894578712    15.3796779035
Cu      4.9030461509     1.4021246481    15.3789605053
Cu      6.1334242803     3.5319189816    15.3776361198
Cu      7.3609880630     5.6591578269    15.3782870134
Cu      8.5904914250     7.7885824006    15.3795580319
Cu      7.3623696039     1.4048265142    15.3764148942
Cu      8.5898772364     3.5323711795    15.3782429120
Cu      9.8180802741     5.6590921310    15.3771616052
Cu     11.0494235767     7.7873353272    15.3784309385
Cu      9.8212458274     1.4038851997    15.3786859909
Cu     11.0491633990     3.5303569372    15.3781714832
Cu     12.2768741749     5.6602656246    15.3779980755
Cu     13.5048374969     7.7876958897    15.3778586819
Cu      1.2081529054     0.6806293996    17.5805878255
Cu      2.4427416420     2.8183140058    17.5772550538
Cu      3.6710043507     4.9396880036    17.5686366216
Cu      4.8978956321     7.0685270399    17.5707754573
Cu      3.6771728422     0.6798368162    17.5818793567
Cu      4.9005294545     2.8124109822    17.5703851710
Cu      6.1118718873     4.9532673755    17.5507022463
Cu      7.3558436531     7.0683405582    17.5684778767
Cu      6.1308592518     0.6836728931    17.5686038973
Cu      7.3584839853     2.7975152138    17.5543235852
Cu      8.5943977056     4.9485297182    17.5615413683
Cu      9.8162228310     7.0690675234    17.5693033976
Cu      8.5853937843     0.6850580675    17.5661340497
Cu      9.8144934305     2.8136653932    17.5701845861
Cu     11.0426934537     4.9428830098    17.5683754662
Cu     12.2729364768     7.0692538435    17.5701436465
O       6.0925463505     3.6274392019    21.6770059138
O       7.4171108536     4.2356675533    19.3222074819
O       7.3909167223     4.2306448553    24.1246228009
C       7.3932147109     4.2220558392    21.7143391454
C       8.1550214519     3.8192592860    20.4746966302
C       8.1266894393     3.8115579685    22.9763517322
H       7.2131824845     5.3244874011    21.7097764376
H       8.2623021519     2.7215798002    20.4020463898
H       9.1351741857     4.2783695165    20.3998855916
H       9.1331472084     4.2448536827    23.0079644198
H       8.2117260329     2.7054226600    23.0080833911
H       6.2345656026     2.6565766491    21.6865330949
H       6.4995059088     3.8042873996    19.3739123682
H       7.8953436086     3.9295790924    24.8978061493
O       2.4341390339     1.3963293667    19.2002170568
H       2.4345298591     1.3963789527    20.1903701257
80
Step 2 | ATOMIC_POSITIONS (angstrom) | Cartesian Angstrom
Ni      1.2288173247     0.7091661044    11.2488092159
Ni      2.4570907640     2.8361776179    11.2494399373
Ni      3.6852646876     4.9653853815    11.2489886373
Ni      4.9140000084     7.0933168133    11.2492317757
Ni      3.6849436931     0.7094481079    11.2493809654
Ni      4.9141434588     2.8370645111    11.2484743959
Ni      6.1433260627     4.9651841272    11.2493397651
Ni      7.3711424078     7.0928424867    11.2483245556
Ni      6.1428319498     0.7082595765    11.2490289744
Ni      7.3718597529     2.8375051171    11.2495307993
Ni      8.5996346817     4.9647040004    11.2490848650
Ni      9.8295628713     7.0935377376    11.2490750547
Ni      8.6002896864     0.7083261161    11.2491545692
Ni      9.8285585866     2.8368444341    11.2485166374
Ni     11.0582575583     4.9655803454    11.2489507835
Ni     12.2860537595     7.0931086691    11.2518327974
Ni     14.7387007184     8.5053759078    13.3010061827
Ni     11.0517080153     2.1219536158    13.3008060109
Ni     12.2814914566     4.2491911066    13.3002614368
Ni     13.5114321428     6.3766444582    13.2999401977
Ni      7.3676493214     8.5028626131    13.3008861956
Ni      3.6831206248     2.1215855362    13.2996736050
Ni      4.9079557373     4.2485355593    13.3041469451
Ni      6.1376188862     6.3791961730    13.3040801603
Ni      9.8246326738     8.5046912318    13.3007834123
Ni      6.1370583262     2.1191215222    13.3035411237
Ni      7.3670341024     4.2487684575    13.2989047726
Ni      8.5966192916     6.3787894181    13.3039044275
Ni     12.2817500577     8.5069786398    13.3001066650
Ni      8.5968160237     2.1192911884    13.3034431469
Ni      9.8264076642     4.2486397466    13.3038143335
Ni     11.0513174545     6.3759368901    13.3009735265
Cu      2.4482622756     1.4031901911    15.3782553475
Cu      3.6716323158     3.5270395765    15.3807881331
Cu      4.9051528363     5.6599957792    15.3745026431
Cu      6.1341346426     7.7930645951    15.3827881493
Cu      4.8994327104     1.4010396110    15.3819785532
Cu      6.1350334616     3.5329173375    15.3768300133
Cu      7.3609842941     5.6581099439    15.3786147021
Cu      8.5901382440     7.7923588473    15.3822119182
Cu      7.3627593075     1.4065986453    15.3761470883
Cu      8.5889647798     3.5328242482    15.3782219220
Cu      9.8161506959     5.6579282381    15.3774046980
Cu     11.0503959347     7.7870770991    15.3799229826
Cu      9.8248133672     1.4031007651    15.3817892068
Cu     11.0520146668     3.5279118735    15.3807141528
Cu     12.2775240603     5.6615826478    15.3798636724
Cu     13.5035955848     7.7865197737    15.3790204772
Cu      1.1950680601     0.6736768206    17.6063491362
Cu      2.4420239452     2.8333556265    17.6024843048
Cu      3.6707193621     4.9426739141    17.5684243756
Cu      4.8947366657     7.0691424809    17.5688085322
Cu      3.6895411628     0.6730592743    17.6065811543
Cu      4.9066714007     2.8156531840    17.5663528196
Cu      6.0808548584     4.9768988746    17.5060510104
Cu      7.3567583865     7.0649403907    17.5614810342
Cu      6.1329796511     0.6833172183    17.5678426171
Cu      7.3616408487     2.7670134004    17.5209887665
Cu      8.6115550087     4.9603487620    17.5434811643
Cu      9.8190581441     7.0677849719    17.5673353147
Cu      8.5833450202     0.6826528065    17.5645203773
Cu      9.8141648821     2.8143012488    17.5586008431
Cu     11.0433573993     4.9459751111    17.5665303020
Cu     12.2730776407     7.0693007390    17.5657975025
O       6.0758487662     3.6223292413    21.6640140269
O       7.4092443370     4.2427449876    19.3568424556
O       7.3823160030     4.2414297616    24.1318662002
C       7.3883369887     4.2152678875    21.7352858455
C       8.1718581852     3.8112404448    20.5103628763
C       8.1292274043     3.8098785147    22.9933177710
H       7.2160601419     5.3102964127    21.7108612339
H       8.2719752739     2.7172469109    20.4112976435
H       9.1490263448     4.2845660744    20.3941238002
H       9.1503396526     4.2468551044    22.9956868599
H       8.2201905267     2.6989200054    22.9921135218
H       6.2268445468     2.6615263574    21.6900093570
H       6.4866132661     3.8089838892    19.3897217336
H       7.8898542520     3.9334016194    24.9002625892
O       2.4340744535     1.3965012213    19.1704222866
H       2.4353047204     1.3966236188    20.1549810252
