80
Step 1 | ATOMIC_POSITIONS (angstrom) | Cartesian Angstrom
Ni      1.2286856411     0.7093205132    11.2496618556
Ni      2.4572337403     2.8370526001    11.2498515219
Ni      3.6857477250     4.9655042038    11.2497006461
Ni      4.9144112488     7.0935478601    11.2497753724
Ni      3.6856215716     0.7094256954    11.2498248278
Ni      4.9144342259     2.8373462263    11.2495252303
Ni      6.1432794012     4.9654360786    11.2497716407
Ni      7.3716245052     7.0934056875    11.2494684991
Ni      6.1431457724     0.7090221710    11.2497073145
Ni      7.3719083591     2.8374941499    11.2498391792
Ni      8.6002368312     4.9652523972    11.2496994569
Ni      9.8293322124     7.0936125504    11.2497093046
Ni      8.6005099525     0.7090370141    11.2497528875
Ni      9.8290315675     2.8372264582    11.2495368304
Ni     11.0580108187     4.9655324772    11.2496768006
Ni     12.2864089682     7.0934754130    11.2505574691
Ni     14.7389903473     8.5053591840    13.3010354592
Ni     11.0526567054     2.1210631876    13.3007693636
Ni     12.2816598108     4.2490105722    13.3004442021
Ni     13.5106408682     6.3771153993    13.3006032049
Ni      7.3673448121     8.5041270504    13.3010607477
Ni      3.6819186479     2.1210682059    13.3003794921
Ni      4.9092811084     4.2490984060    13.3019065380
Ni      6.1379710136     6.3780073007    13.3020254324
Ni      9.8242555821     8.5047097597    13.3009538563
Ni      6.1379487497     2.1202675794    13.3016154734
Ni      7.3669073753     4.2489242153    13.3002191222
Ni      8.5957715863     6.3773666376    13.3018598853
Ni     12.2817211496     8.5057586816    13.3004089121
Ni      8.5961610869     2.1201687694    13.3017658028
Ni      9.8250844189     4.2486549013    13.3016775881
Ni     11.0523664685     6.3766071844    13.3007134106
Cu      2.4479478493     1.4026972711    15.3769381706
Cu      3.6748661222     3.5295469758    15.3778875836
Cu      4.9046376313     5.6597168800    15.3767524410
Cu      6.1333619533     7.7894578712    15.3796779035
Cu      4.9030461509     1.4021246481    15.3789605053
Cu      6.1334242803     3.5319189816    15.3776361198
Cu      7.3609880630     5.6591578269    15.3782870134
Cu      8.5904914250     7.7885824006    15.3795580319
Cu      7.3623696039     1.4048265142    15.3764148942
Cu      8.5898772364     3.5323711795    15.3782429120
Cu      9.8180802741     5.6590921310    15.3771616052
Cu     11.0494235767     7.7873353272    15.3784309385
Cu      9.8212458274     1.4038851997    15.3786859909
Cu     11.0491633990     3.5303569372    15.3781714832
Cu     12.2768741749     5.6602656246    15.3779980755
Cu     13.5048374969     7.7876958897    15.3778586819
Cu      1.2081529054     0.6806293996    17.5805878255
Cu      2.4427416420     2.8183140058    17.5772550538
Cu      3.6710043507     4.9396880036    17.5686366216
Cu      4.8978956321     7.0685270399    17.5707754573
Cu      3.6771728422     0.6798368162    17.5818793567
Cu      4.9005294545     2.8124109822    17.5703851710
Cu      6.1118718873     4.9532673755    17.5507022463
Cu      7.3558436531     7.0683405582    17.5684778767
Cu      6.1308592518     0.6836728931    17.5686038973
Cu      7.3584839853     2.7975152138    17.5543235852
Cu      8.5943977056     4.9485297182    17.5615413683
Cu      9.8162228310     7.0690675234    17.5693033976
Cu      8.5853937843     0.6850580675    17.5661340497
Cu      9.8144934305     2.8136653932    17.5701845861
Cu     11.0426934537     4.9428830098    17.5683754662
Cu     12.2729364768     7.0692538435    17.5701436465
O       6.0925463505     3.6274392019    21.6770059138
O       7.4171108536     4.2356675533    19.3222074819
O       7.3909167223     4.2306448553    24.1246228009
C       7.3932147109     4.2220558392    21.7143391454
C       8.1550214519     3.8192592860    20.4746966302
C       8.1266894393     3.8115579685    22.9763517322
H       7.2131824845     5.3244874011    21.7097764376
H       8.2623021519     2.7215798002    20.4020463898
H       9.1351741857     4.2783695165    20.3998855916
H       9.1331472084     4.2448536827    23.0079644198
H       8.2117260329     2.7054226600    23.0080833911
H       6.2345656026     2.6565766491    21.6865330949
H       6.4995059088     3.8042873996    19.3739123682
H       7.8953436086     3.9295790924    24.8978061493
O       2.4341390339     1.3963293667    19.2002170568
H       2.4345298591     1.3963789527    20.1903701257
80
Step 2 | ATOMIC_POSITIONS (angstrom) | Cartesian Angstrom
Ni      1.2288173247     0.7091661044    11.2488092159
Ni      2.4570907640     2.8361776179    11.2494399373
Ni      3.6852646876     4.9653853815    11.2489886373
Ni      4.9140000084     7.0933168133    11.2492317757
Ni      3.6849436931     0.7094481079    11.2493809654
Ni      4.9141434588     2.8370645111    11.2484743959
Ni      6.1433260627     4.9651841272    11.2493397651
Ni      7.3711424078     7.0928424867    11.2483245556
Ni      6.1428319498     0.7082595765    11.2490289744
Ni      7.3718597529     2.8375051171    11.2495307993
Ni      8.5996346817     4.9647040004    11.2490848650
Ni      9.8295628713     7.0935377376    11.2490750547
Ni      8.6002896864     0.7083261161    11.2491545692
Ni      9.8285585866     2.8368444341    11.2485166374
Ni     11.0582575583     4.9655803454    11.2489507835
Ni     12.2860537595     7.0931086691    11.2518327974
Ni     14.7387007184     8.5053759078    13.3010061827
Ni     11.0517080153     2.1219536158    13.3008060109
Ni     12.2814914566     4.2491911066    13.3002614368
Ni     13.5114321428     6.3766444582    13.2999401977
Ni      7.3676493214     8.5028626131    13.3008861956
Ni      3.6831206248     2.1215855362    13.2996736050
Ni      4.9079557373     4.2485355593    13.3041469451
Ni      6.1376188862     6.3791961730    13.3040801603
Ni      9.8246326738     8.5046912318    13.3007834123
Ni      6.1370583262     2.1191215222    13.3035411237
Ni      7.3670341024     4.2487684575    13.2989047726
Ni      8.5966192916     6.3787894181    13.3039044275
Ni     12.2817500577     8.5069786398    13.3001066650
Ni      8.5968160237     2.1192911884    13.3034431469
Ni      9.8264076642     4.2486397466    13.3038143335
Ni     11.0513174545     6.3759368901    13.3009735265
Cu      2.4482622756     1.4031901911    15.3782553475
Cu      3.6716323158     3.5270395765    15.3807881331
Cu      4.9051528363     5.6599957792    15.3745026431
Cu      6.1341346426     7.7930645951    15.3827881493
Cu      4.8994327104     1.4010396110    15.3819785532
Cu      6.1350334616     3.5329173375    15.3768300133
Cu      7.3609842941     5.6581099439    15.3786147021
Cu      8.5901382440     7.7923588473    15.3822119182
Cu      7.3627593075     1.4065986453    15.3761470883
Cu      8.5889647798     3.5328242482    15.3782219220
Cu      9.8161506959     5.6579282381    15.3774046980
Cu     11.0503959347     7.7870770991    15.3799229826
Cu      9.8248133672     1.4031007651    15.3817892068
Cu     11.0520146668     3.5279118735    15.3807141528
Cu     12.2775240603     5.6615826478    15.3798636724
Cu     13.5035955848     7.7865197737    15.3790204772
Cu      1.1950680601     0.6736768206    17.6063491362
Cu      2.4420239452     2.8333556265    17.6024843048
Cu      3.6707193621     4.9426739141    17.5684243756
Cu      4.8947366657     7.0691424809    17.5688085322
Cu      3.6895411628     0.6730592743    17.6065811543
Cu      4.9066714007     2.8156531840    17.5663528196
Cu      6.0808548584     4.9768988746    17.5060510104
Cu      7.3567583865     7.0649403907    17.5614810342
Cu      6.1329796511     0.6833172183    17.5678426171
Cu      7.3616408487     2.7670134004    17.5209887665
Cu      8.6115550087     4.9603487620    17.5434811643
Cu      9.8190581441     7.0677849719    17.5673353147
Cu      8.5833450202     0.6826528065    17.5645203773
Cu      9.8141648821     2.8143012488    17.5586008431
Cu     11.0433573993     4.9459751111    17.5665303020
Cu     12.2730776407     7.0693007390    17.5657975025
O       6.0758487662     3.6223292413    21.6640140269
O       7.4092443370     4.2427449876    19.3568424556
O       7.3823160030     4.2414297616    24.1318662002
C       7.3883369887     4.2152678875    21.7352858455
C       8.1718581852     3.8112404448    20.5103628763
C       8.1292274043     3.8098785147    22.9933177710
H       7.2160601419     5.3102964127    21.7108612339
H       8.2719752739     2.7172469109    20.4112976435
H       9.1490263448     4.2845660744    20.3941238002
H       9.1503396526     4.2468551044    22.9956868599
H       8.2201905267     2.6989200054    22.9921135218
H       6.2268445468     2.6615263574    21.6900093570
H       6.4866132661     3.8089838892    19.3897217336
H       7.8898542520     3.9334016194    24.9002625892
O       2.4340744535     1.3965012213    19.1704222866
H       2.4353047204     1.3966236188    20.1549810252
80
Step 3 | ATOMIC_POSITIONS (angstrom) | Cartesian Angstrom
Ni      1.2288650952     0.7089264478    11.2479481225
Ni      2.4568343099     2.8352363127    11.2489766194
Ni      3.6848437432     4.9651031236    11.2483022063
Ni      4.9135764818     7.0929665175    11.2487222361
Ni      3.6841864258     0.7093176184    11.2488549388
Ni      4.9139603753     2.8368043447    11.2475248974
Ni      6.1431706665     4.9648603506    11.2491858284
Ni      7.3706726257     7.0920733568    11.2473168016
Ni      6.1424715931     0.7075360926    11.2483422510
Ni      7.3717043127     2.8372891388    11.2494108712
Ni      8.5991230494     4.9641649105    11.2486565842
Ni      9.8296059681     7.0932952968    11.2484869939
Ni      8.6000115892     0.7075830523    11.2485867814
Ni      9.8279660096     2.8364534631    11.2476746895
Ni     11.0583268169     4.9654763332    11.2482917489
Ni     12.2856264763     7.0926620188    11.2533051421
Ni     14.7384474604     8.5054326676    13.3013191770
Ni     11.0509434394     2.1226389205    13.3009149372
Ni     12.2813524547     4.2494494706    13.3003429932
Ni     13.5119158296     6.3762959808    13.2991983429
Ni      7.3678834795     8.5018823966    13.3008370434
Ni      3.6840719309     2.1219737112    13.2991467546
Ni      4.9066195278     4.2478637541    13.3061867901
Ni      6.1374427222     6.3803934460    13.3059578051
Ni      9.8250889102     8.5046199943    13.3008478958
Ni      6.1361401394     2.1180279865    13.3054326757
Ni      7.3672123587     4.2486987202    13.2974306368
Ni      8.5973545361     6.3801492097    13.3059615827
Ni     12.2817852001     8.5079061600    13.2998934616
Ni      8.5975838864     2.1184855053    13.3050362848
Ni      9.8276469231     4.2485489939    13.3059034056
Ni     11.0505295796     6.3754028158    13.3013874507
Cu      2.4485983134     1.4036532074    15.3817440626
Cu      3.6683894330     3.5246270110    15.3845942748
Cu      4.9040342346     5.6611200092    15.3690577987
Cu      6.1348839526     7.7970617343    15.3866890223
Cu      4.8958617116     1.3999627995    15.3858644864
Cu      6.1355556967     3.5332310374    15.3740101526
Cu      7.3614541006     5.6581991254    15.3771039355
Cu      8.5898269876     7.7963367402    15.3856996667
Cu      7.3631115088     1.4068168968    15.3735273440
Cu      8.5890311739     3.5331426356    15.3767085184
Cu      9.8149791666     5.6571734835    15.3765505673
Cu     11.0510513428     7.7870075486    15.3809810552
Cu      9.8285432707     1.4019522905    15.3854482168
Cu     11.0551237420     3.5255943517    15.3839105490
Cu     12.2779806527     5.6624425239    15.3812687893
Cu     13.5027064254     7.7857931436    15.3795524197
Cu      1.1817800817     0.6664071952    17.6367658671
Cu      2.4418376358     2.8488560842    17.6321510606
Cu      3.6672983686     4.9461910268    17.5685276152
Cu      4.8892684406     7.0728022812    17.5667211326
Cu      3.7022638576     0.6664784874    17.6355295846
Cu      4.9139482514     2.8198849776    17.5611961956
Cu      6.0566879901     4.9954861371    17.4583508469
Cu      7.3578641254     7.0612659450    17.5529914210
Cu      6.1342333089     0.6804541732    17.5671885966
Cu      7.3644458266     2.7453769737    17.4873587198
Cu      8.6220822811     4.9677967026    17.5269309764
Cu      9.8234881935     7.0679083263    17.5649391446
Cu      8.5821284262     0.6776221464    17.5627850734
Cu      9.8129876736     2.8157609999    17.5445653226
Cu     11.0456167680     4.9497907905    17.5642735937
Cu     12.2730813134     7.0694610534    17.5609001511
O       6.0695969864     3.6278701261    21.6533819973
O       7.3947039951     4.2442638612    19.3922803912
O       7.3836820089     4.2471064317    24.1396980898
C       7.3855544026     4.2064136184    21.7559167478
C       8.1771136587     3.8077458317    20.5276053492
C       8.1300590415     3.8089902481    23.0069775463
H       7.2180712439     5.2963443910    21.7146387811
H       8.2863418553     2.7107372677    20.4261213943
H       9.1614242049     4.2893075774    20.3939025372
H       9.1575894064     4.2452349998    22.9842450074
H       8.2296278462     2.6967655085    22.9805294304
H       6.2157390247     2.6555694977    21.6945704862
H       6.4870867485     3.8204887370    19.4116307358
H       7.8805950116     3.9395253754    24.9077742073
O       2.4341595292     1.3967165390    19.1319661197
H       2.4362930916     1.3969232969    20.1147790814
80
Step 4 | ATOMIC_POSITIONS (angstrom) | Cartesian Angstrom
Ni      1.2287785653     0.7085994208    11.2472685036
Ni      2.4565024340     2.8344808956    11.2485258898
Ni      3.6845534268     4.9646653331    11.2477803574
Ni      4.9132328348     7.0925592944    11.2483574480
Ni      3.6835415528     0.7090142899    11.2483446062
Ni      4.9139327066     2.8365886274    11.2469163624
Ni      6.1428203783     4.9645041744    11.2493827030
Ni      7.3703265396     7.0912515060    11.2467211317
Ni      6.1421232915     0.7070351771    11.2478118117
Ni      7.3714396977     2.8368411601    11.2495266573
Ni      8.5988469673     4.9637484982    11.2485397290
Ni      9.8294061933     7.0928903892    11.2481120832
Ni      8.5997122153     0.7069625707    11.2481830326
Ni      9.8273819823     2.8361548275    11.2472372573
Ni     11.0581583214     4.9651897206    11.2478793998
Ni     12.2851925228     7.0922013168    11.2545591262
Ni     14.7383346847     8.5055002571    13.3019956898
Ni     11.0506436926     2.1228957493    13.3012815934
Ni     12.2812825676     4.2496953862    13.3007645550
Ni     13.5118135066     6.3762405801    13.2983697824
Ni      7.3680001015     8.5015230547    13.3011637210
Ni      3.6844570982     2.1220685229    13.2992109594
Ni      4.9055418640     4.2471900067    13.3072490561
Ni      6.1375158786     6.3813833210    13.3069719520
Ni      9.8254726700     8.5045417238    13.3012436464
Ni      6.1353746823     2.1172025919    13.3066463903
Ni      7.3673908587     4.2487286500    13.2960800609
Ni      8.5978279492     6.3811620711    13.3074396756
Ni     12.2817996693     8.5081768854    13.2996919321
Ni      8.5983059633     2.1179351638    13.3060140924
Ni      9.8285451772     4.2484141350    13.3073169400
Ni     11.0502573345     6.3751673852    13.3018002399
Cu      2.4489072389     1.4039851662    15.3871459695
Cu      3.6659695406     3.5229704803    15.3887511159
Cu      4.9008481184     5.6632403333    15.3603557850
Cu      6.1354000533     7.8004639965    15.3907240811
Cu      4.8932571442     1.3991371812    15.3899887240
Cu      6.1346748295     3.5325653142    15.3688788571
Cu      7.3624843175     5.6596650356    15.3732095987
Cu      8.5897026120     7.7996133919    15.3894426517
Cu      7.3633224815     1.4049162424    15.3683816463
Cu      8.5901992012     3.5332664889    15.3733933693
Cu      9.8151154621     5.6571897079    15.3745812817
Cu     11.0511804568     7.7871066150    15.3811696354
Cu      9.8315147508     1.4006367801    15.3889515836
Cu     11.0578369176     3.5240226510    15.3871694380
Cu     12.2779879441     5.6626364961    15.3816844861
Cu     13.5023805178     7.7857824672    15.3790814523
Cu      1.1705840606     0.6601107035    17.6649969392
Cu      2.4423250368     2.8622030165    17.6594865690
Cu      3.6615992832     4.9496382582    17.5690275103
Cu      4.8827343980     7.0784460170    17.5649986443
Cu      3.7132922517     0.6612463499    17.6620681410
Cu      4.9206412458     2.8242009412    17.5555541569
Cu      6.0455001741     5.0045671060    17.4180826631
Cu      7.3588447444     7.0581454098    17.5445959924
Cu      6.1345179170     0.6758971015    17.5668066314
Cu      7.3663084362     2.7378244303    17.4605732328
Cu      8.6234146248     4.9691225343    17.5153588223
Cu      9.8282888631     7.0690961942    17.5625445485
Cu      8.5817300971     0.6714980801    17.5612827796
Cu      9.8111708162     2.8177739263    17.5307858451
Cu     11.0484253827     4.9535095188    17.5620200151
Cu     12.2728154793     7.0697122366    17.5564946835
O       6.0730162689     3.6173803384    21.6501105186
O       7.3891229361     4.2486844569    19.4151660812
O       7.3882267013     4.2503362067    24.1421403760
C       7.3878772555     4.2040798057    21.7654900347
C       8.1781011704     3.8047623230    20.5317052594
C       8.1306626351     3.8045237790    23.0145894918
H       7.2197180669     5.2853689873    21.7213171494
H       8.3016931652     2.7075651205    20.4429865443
H       9.1640254487     4.2900526633    20.3990165215
H       9.1555480581     4.2417258795    22.9762283489
H       8.2380189687     2.6988893844    22.9769449258
H       6.1997553709     2.6609988244    21.6987023103
H       6.4874321204     3.8301001560    19.4376555278
H       7.8742480717     3.9438301337    24.9249995320
O       2.4345117908     1.3969595889    19.0988725287
H       2.4373004739     1.3972187525    20.0733896267
80
Step 5 | ATOMIC_POSITIONS (angstrom) | Cartesian Angstrom
Ni      1.2285168249     0.7081554131    11.2467933472
Ni      2.4560891485     2.8338512208    11.2481112275
Ni      3.6843606911     4.9639919794    11.2473747102
Ni      4.9129574835     7.0920982590    11.2481203830
Ni      3.6829800807     0.7085441161    11.2478756146
Ni      4.9140023582     2.8363336046    11.2466342726
Ni      6.1422465602     4.9640589788    11.2499044303
Ni      7.3700561957     7.0903872217    11.2465359791
Ni      6.1417467961     0.7067537384    11.2474249039
Ni      7.3710477850     2.8360981590    11.2498627575
Ni      8.5987641462     4.9633780502    11.2487030239
Ni      9.8289357449     7.0923292358    11.2479568289
Ni      8.5993926337     0.7064521113    11.2479506713
Ni      9.8267898706     2.8358620949    11.2472101387
Ni     11.0577535141     4.9646353529    11.2477179836
Ni     12.2847279428     7.0917083726    11.2555154346
Ni     14.7384359123     8.5056088234    13.3030604861
Ni     11.0508733739     2.1226993762    13.3021423859
Ni     12.2813007718     4.2497967806    13.3015955326
Ni     13.5110024985     6.3765600174    13.2970789317
Ni      7.3680118289     8.5018628055    13.3021292835
Ni      3.6842316322     2.1218345662    13.3001302670
Ni      4.9045762998     4.2463883169    13.3069827099
Ni      6.1378481488     6.3823411160    13.3068324496
Ni      9.8256983530     8.5045360665    13.3020526665
Ni      6.1346448396     2.1165252170    13.3069034385
Ni      7.3675619441     4.2488077564    13.2946430443
Ni      8.5981171105     6.3819817943    13.3082145851
Ni     12.2817948763     8.5077353043    13.2992150083
Ni      8.5990801401     2.1175764846    13.3061596440
Ni      9.8292264317     4.2481893152    13.3079319420
Ni     11.0504879779     6.3752269379    13.3021017239
Cu      2.4492159813     1.4042446686    15.3949510640
Cu      3.6643699377     3.5220782370    15.3936003963
Cu      4.8953356253     5.6665751920    15.3476086573
Cu      6.1356953266     7.8032581643    15.3951778170
Cu      4.8915863180     1.3985473851    15.3946487994
Cu      6.1324392353     3.5308516728    15.3604170930
Cu      7.3641502917     5.6625515800    15.3661100772
Cu      8.5897985930     7.8023368708    15.3936645053
Cu      7.3634250998     1.4008763109    15.3604528854
Cu      8.5923962486     3.5332166231    15.3676070007
Cu      9.8165308952     5.6579752676    15.3716463242
Cu     11.0507974275     7.7873172189    15.3803875097
Cu      9.8337690878     1.3991677563    15.3924509995
Cu     11.0602740143     3.5231250971    15.3906130814
Cu     12.2774482234     5.6622665655    15.3810274747
Cu     13.5025072073     7.7864886947    15.3774334011
Cu      1.1601696190     0.6541965821    17.6917752751
Cu      2.4434559932     2.8749327322    17.6851034135
Cu      3.6546923374     4.9534515127    17.5699066839
Cu      4.8755402261     7.0847656234    17.5634348411
Cu      3.7239830102     0.6567037021    17.6867391663
Cu      4.9269184058     2.8287718953    17.5490760750
Cu      6.0458773929     5.0049158349    17.3838819877
Cu      7.3596015650     7.0555781492    17.5356908190
Cu      6.1345531911     0.6704909878    17.5666102741
Cu      7.3670714678     2.7430610401    17.4395109419
Cu      8.6163371279     4.9649705827    17.5081050630
Cu      9.8330661326     7.0705175059    17.5599096018
Cu      8.5812914492     0.6653596215    17.5598127711
Cu      9.8088845827     2.8202194207    17.5163860677
Cu     11.0508114257     4.9573004581    17.5595245327
Cu     12.2721478732     7.0700638878    17.5523766374
O       6.0805704875     3.6217129061    21.6518666223
O       7.3853292631     4.2534255321    19.4246150294
O       7.3995162859     4.2487068097    24.1507367370
C       7.3929809639     4.1997826641    21.7665885870
C       8.1770372239     3.8017884873    20.5294654670
C       8.1311029161     3.7986435485    23.0157433796
H       7.2200703021     5.2787605959    21.7309597005
H       8.3180568923     2.7076168032    20.4615222558
H       9.1602280800     4.2884333978    20.4092196073
H       9.1481252679     4.2375005463    22.9714066997
H       8.2458547413     2.7015335659    22.9811699797
H       6.1839751468     2.6506732506    21.7045346155
H       6.4916908586     3.8413337051    19.4682944245
H       7.8651226881     3.9499609226    24.9425601905
O       2.4352385751     1.3972759271    19.0650906041
H       2.4384453072     1.3975451678    20.0350070701
80
Step 6 | ATOMIC_POSITIONS (angstrom) | Cartesian Angstrom
Ni      1.2282082523     0.7077195206    11.2469106099
Ni      2.4557585748     2.8336051592    11.2480755096
Ni      3.6842516137     4.9633536128    11.2472570053
Ni      4.9128894322     7.0917912151    11.2481351430
Ni      3.6827441272     0.7080213200    11.2478332412
Ni      4.9140121412     2.8360344740    11.2468415592
Ni      6.1417465675     4.9637443584    11.2504769935
Ni      7.3700356488     7.0899108337    11.2469560252
Ni      6.1414110402     0.7066922165    11.2473920177
Ni      7.3707114968     2.8354038505    11.2502279315
Ni      8.5989171400     4.9632615819    11.2490943702
Ni      9.8283586047     7.0918350172    11.2482150210
Ni      8.5992190835     0.7062191254    11.2480411798
Ni      9.8265159331     2.8356891320    11.2476915330
Ni     11.0572564543     4.9640515294    11.2479975572
Ni     12.2843288224     7.0913439770    11.2555332013
Ni     14.7388955920     8.5057289034    13.3040527584
Ni     11.0516637560     2.1220866835    13.3034583702
Ni     12.2813794382     4.2495271529    13.3025408589
Ni     13.5096114010     6.3772208841    13.2953173151
Ni      7.3679615566     8.5028214472    13.3036694059
Ni      3.6833669861     2.1212773313    13.3019339108
Ni      4.9039721622     4.2457303616    13.3048652985
Ni      6.1383602715     6.3830619299    13.3050176626
Ni      9.8254545030     8.5046215040    13.3029808824
Ni      6.1341224812     2.1161161133    13.3055702183
Ni      7.3676908003     4.2489395780    13.2934121434
Ni      8.5982391524     6.3824284293    13.3075461550
Ni     12.2817102234     8.5066007797    13.2982315316
Ni      8.5997064877     2.1175161203    13.3050146226
Ni      9.8295447893     4.2480296978    13.3071493130
Ni     11.0510254075     6.3755444285    13.3018632128
Cu      2.4494026939     1.4043533373    15.4021473089
Cu      3.6644142822     3.5224873589    15.3970798797
Cu      4.8901542312     5.6696073104    15.3363669541
Cu      6.1356415376     7.8039871833    15.3980518230
Cu      4.8916793768     1.3984302180    15.3978069194
Cu      6.1299437237     3.5288615792    15.3512505917
Cu      7.3657159061     5.6655629041    15.3579549453
Cu      8.5901308992     7.8032860599    15.3963841369
Cu      7.3633855500     1.3967800084    15.3534333125
Cu      8.5944838005     3.5330726424    15.3611206531
Cu      9.8185062637     5.6591839133    15.3692159959
Cu     11.0500173499     7.7874305342    15.3787062080
Cu      9.8342251285     1.3982787103    15.3942381175
Cu     11.0613569002     3.5233252765    15.3925081817
Cu     12.2764071415     5.6616061346    15.3793250583
Cu     13.5029183426     7.7876080066    15.3750683590
Cu      1.1541283393     0.6508803455    17.7040644736
Cu      2.4446967339     2.8825842451    17.6963727637
Cu      3.6514126845     4.9563319627    17.5706481641
Cu      4.8718192636     7.0868512850    17.5624573909
Cu      3.7306685771     0.6543589000    17.6972814301
Cu      4.9294891662     2.8313598115    17.5443546631
Cu      6.0573632078     4.9964469786    17.3716148922
Cu      7.3596149409     7.0550018511    17.5299423884
Cu      6.1352407506     0.6679913892    17.5665606500
Cu      7.3660957650     2.7585730555    17.4340492579
Cu      8.6041332181     4.9575108886    17.5085830508
Cu      9.8348690926     7.0704247375    17.5580112725
Cu      8.5799127639     0.6637272719    17.5588010839
Cu      9.8074766867     2.8217469396    17.5075110915
Cu     11.0502884490     4.9594472896    17.5577058332
Cu     12.2712006695     7.0703796256    17.5503509690
O       6.0864233109     3.6170502262    21.6584164082
O       7.3904849044     4.2554194689    19.4169241666
O       7.4064584580     4.2461999740    24.1516317838
C       7.3979029712     4.1964390683    21.7626485136
C       8.1747700545     3.8037187145    20.5237734833
C       8.1313691904     3.7969612708    23.0148171162
H       7.2202340229     5.2797770089    21.7393860030
H       8.3276606296     2.7085988961    20.4719556913
H       9.1538893662     4.2866234723    20.4196497628
H       9.1414173709     4.2352597028    22.9718565525
H       8.2497689420     2.6991694333    22.9919319185
H       6.1731837287     2.6489149445    21.7089967119
H       6.4928415687     3.8486257327    19.4906900475
H       7.8629770151     3.9516453483    24.9588100587
O       2.4361963264     1.3975986186    19.0473441234
H       2.4393049905     1.3977713547    20.0181852932
80
Step 7 | ATOMIC_POSITIONS (angstrom) | Cartesian Angstrom
Ni      1.2278955996     0.7073157100    11.2474306729
Ni      2.4555259698     2.8334972808    11.2483933065
Ni      3.6840703153     4.9628026495    11.2471496950
Ni      4.9128508688     7.0916170601    11.2481600547
Ni      3.6826534736     0.7075722644    11.2481789603
Ni      4.9138351466     2.8356193674    11.2471416795
Ni      6.1413838790     4.9634789714    11.2507659026
Ni      7.3700876040     7.0897417407    11.2475260634
Ni      6.1410926581     0.7066133338    11.2474514174
Ni      7.3704518017     2.8348449918    11.2503861522
Ni      8.5990568489     4.9631802716    11.2493887646
Ni      9.8278696879     7.0914709759    11.2486175591
Ni      8.5991456050     0.7060475281    11.2482342674
Ni      9.8264621679     2.8354875278    11.2483005704
Ni     11.0568634700     4.9635096539    11.2484443484
Ni     12.2839551324     7.0910475388    11.2547947556
Ni     14.7395444514     8.5058574281    13.3048026137
Ni     11.0526042838     2.1214021985    13.3051723650
Ni     12.2815030620     4.2489445823    13.3034149632
Ni     13.5080444331     6.3779936648    13.2928602042
Ni      7.3679149288     8.5039102536    13.3056834990
Ni      3.6823643506     2.1206707438    13.3043233777
Ni      4.9033276668     4.2451608121    13.3015739573
Ni      6.1387674358     6.3838289055    13.3021458030
Ni      9.8249009904     8.5048361935    13.3038744271
Ni      6.1336189533     2.1155892826    13.3031501406
Ni      7.3677808343     4.2490111964    13.2917910577
Ni      8.5985055034     6.3828891607    13.3060046457
Ni     12.2815762813     8.5053389164    13.2965934041
Ni      8.6002843104     2.1174014732    13.3030473841
Ni      9.8299136744     4.2479490787    13.3056077179
Ni     11.0514701381     6.3758471374    13.3010678595
Cu      2.4495146648     1.4044722742    15.4085706721
Cu      3.6651562901     3.5234796097    15.3995126607
Cu      4.8867865141     5.6716426102    15.3282046571
Cu      6.1354126482     7.8036046218    15.3998117496
Cu      4.8924949232     1.3984842403    15.3998707806
Cu      6.1281299108     3.5273582591    15.3422929707
Cu      7.3667230365     5.6677768100    15.3499782765
Cu      8.5905500746     7.8034673296    15.3979709173
Cu      7.3633224925     1.3941534669    15.3485508068
Cu      8.5957262675     3.5329725236    15.3547691142
Cu      9.8200396077     5.6602030791    15.3677595806
Cu     11.0492923385     7.7873660860    15.3767639294
Cu      9.8338586182     1.3978818475    15.3948721194
Cu     11.0617659789     3.5238530698    15.3932410249
Cu     12.2752274803     5.6612028826    15.3773292825
Cu     13.5031297185     7.7886137515    15.3726266571
Cu      1.1498431463     0.6488281238    17.7075387799
Cu      2.4456813988     2.8880275893    17.6989303877
Cu      3.6523225218     4.9588640288    17.5709756944
Cu      4.8711773796     7.0844498857    17.5614255881
Cu      3.7355910026     0.6528598564    17.6992553347
Cu      4.9295643654     2.8324631734    17.5407418947
Cu      6.0697264658     4.9868888583    17.3694991619
Cu      7.3590937849     7.0555167958    17.5259289226
Cu      6.1372288210     0.6687947210    17.5663819086