80
Step 1 | ATOMIC_POSITIONS (angstrom) | Cartesian Angstrom
Ni      1.2286497524     0.7093615512    11.2500000000
Ni      2.4572990095     2.8374462048    11.2500000000
Ni      3.6859482667     4.9655308584    11.2500000000
Ni      4.9145975239     7.0936155120    11.2500000000
Ni      3.6859497524     0.7093615512    11.2500000000
Ni      4.9145990095     2.8374462048    11.2500000000
Ni      6.1432482667     4.9655308584    11.2500000000
Ni      7.3718975239     7.0936155120    11.2500000000
Ni      6.1432497524     0.7093615512    11.2500000000
Ni      7.3718990095     2.8374462048    11.2500000000
Ni      8.6005482667     4.9655308584    11.2500000000
Ni      9.8291975239     7.0936155120    11.2500000000
Ni      8.6005497524     0.7093615512    11.2500000000
Ni      9.8291990095     2.8374462048    11.2500000000
Ni     11.0578482667     4.9655308584    11.2500000000
Ni     12.2864975239     7.0936155120    11.2500000000
Ni      0.0000788190     0.0003748398    13.2525575394
Ni      1.2280814025     2.1285301203    13.2532293310
Ni      2.4569187956     4.2559167395    13.2530093342
Ni     13.5151373363     6.3841522723    13.2531354123
Ni      2.4564046219    -0.0005655465    13.2540883601
Ni      3.6859467713     2.1292898876    13.2532549638
Ni      4.9150141682     4.2558945139    13.2530284895
Ni      6.1437843324     6.3840392545    13.2535466857
Ni      4.9154883896    -0.0005482177    13.2541166748
Ni      6.1438501619     2.1286112747    13.2533553386
Ni      7.3714058633     4.2561960221    13.2523980211
Ni      8.6004862584     6.3837474691    13.2528496706
Ni      7.3718061352     0.0003452994    13.2525927412
Ni      8.6005384629     2.1281081623    13.2535184578
Ni      9.8296973747     4.2561858054    13.2524848726
Ni     11.0573769407     6.3840597760    13.2533407736
Cu      2.4575442619     1.4185758491    15.2618714703
Cu      3.6859480756     3.5497493662    15.2644168985
Cu      4.9135516521     5.6752964428    15.2597505192
Cu      6.1405295605     7.8016387678    15.2639253428
Cu      4.9143506410     1.4185545284    15.2618303991
Cu      6.1430730241     3.5467783400    15.2623876886
Cu      7.3727021256     5.6747702864    15.2635357278
Cu      8.6005492819     7.8029411856    15.2620280702
Cu      7.3715919678     1.4181007878    15.2615261228
Cu      8.6005671286     3.5479726089    15.2628398244
Cu      9.8286857467     5.6749126624    15.2629048067
Cu     11.0604357702     7.8015149570    15.2638988750
Cu      9.8294462234     1.4180835055    15.2614303247
Cu     11.0579874911     3.5468646748    15.2619472773
Cu     12.2873818230     5.6753364877    15.2597316046
Cu     13.5152117802     7.8021142238    15.2603583432
Cu      1.2299579678     0.7091627453    17.3363070483
Cu      2.4573454665     2.8367786284    17.3365701467
Cu      3.6859047209     4.9401664065    17.3334955274
Cu      4.9368321916     7.1061862116    17.3333102136
Cu      3.6859984144     0.7088998122    17.3362581245
Cu      4.9140994134     2.8366020864    17.3361139636
Cu      6.1460217669     4.9614448341    17.3332302506
Cu      7.3703302001     7.0985909848    17.3332297281
Cu      6.1418408423     0.7089796735    17.3364108521
Cu      7.3705014322     2.8341128901    17.3351521098
Cu      8.5998789040     4.9706622019    17.3221785742
Cu      9.8307772805     7.0988481734    17.3326051680
Cu      8.6006099527     0.7172495230    17.3353927924
Cu      9.8315461269     2.8332159274    17.3339392636
Cu     11.0558107079     4.9611190067    17.3325886292
Cu     12.2640190211     7.1061205986    17.3333970795
O       9.1309033900     3.6123226381    21.7352208510
O       8.6400614013     4.9710208168    19.3771708232
O       8.6432380424     4.9588550318    24.1829392615
C       8.6531452970     4.9611384393    21.7719484874
C       9.1174467737     5.6794235246    20.5167507492
C       9.1243074602     5.6544204210    23.0336392796
H       7.5380781611     4.8768925814    21.7672701214
H      10.2236238083     5.6954684687    20.4609341050
H       8.7473629992     6.7007642651    20.4577512758
H       8.7808648556     6.6954957739    23.0657101244
H      10.2341337902     5.6433899020    23.0659491197
H      10.1101635366     3.6696077781    21.7441937932
H       8.9865944763     4.0441126720    19.4290921022
H       8.9867585546     5.4346676041    24.9554049676
O      13.5148082262     6.3841251607    18.7072073983
H      13.5154555259     6.3842728478    19.6501740907
80
Step 2 | ATOMIC_POSITIONS (angstrom) | Cartesian Angstrom
Ni      1.2286497524     0.7093615512    11.2500000000
Ni      2.4572990095     2.8374462048    11.2500000000
Ni      3.6859482667     4.9655308584    11.2500000000
Ni      4.9145975239     7.0936155120    11.2500000000
Ni      3.6859497524     0.7093615512    11.2500000000
Ni      4.9145990095     2.8374462048    11.2500000000
Ni      6.1432482667     4.9655308584    11.2500000000
Ni      7.3718975239     7.0936155120    11.2500000000
Ni      6.1432497524     0.7093615512    11.2500000000
Ni      7.3718990095     2.8374462048    11.2500000000
Ni      8.6005482667     4.9655308584    11.2500000000
Ni      9.8291975239     7.0936155120    11.2500000000
Ni      8.6005497524     0.7093615512    11.2500000000
Ni      9.8291990095     2.8374462048    11.2500000000
Ni     11.0578482667     4.9655308584    11.2500000000
Ni     12.2864975239     7.0936155120    11.2500000000
Ni      0.0003694153     0.0011276206    13.2445445623
Ni      1.2269498010     2.1293667375    13.2467112248
Ni      2.4562046580     4.2552675224    13.2460629910
Ni     13.5151322601     6.3840108754    13.2460108433
Ni      2.4545030832    -0.0017268451    13.2495999697
Ni      3.6859150690     2.1317956872    13.2470478631
Ni      4.9158110399     4.2552101560    13.2461503801
Ni      6.1450226587     6.3837176638    13.2478097361
Ni      4.9173260136    -0.0016827520    13.2496963410
Ni      6.1450621445     2.1296661642    13.2471544758
Ni      7.3704826245     4.2562830915    13.2443373576
Ni      8.6003306155     6.3826994995    13.2456521072
Ni      7.3715278795     0.0010344522    13.2446804937
Ni      8.6005287833     2.1282579610    13.2477357244
Ni      9.8306329086     4.2562300216    13.2445514407
Ni     11.0562879148     6.3837608730    13.2471069189
Cu      2.4580650717     1.4183039305    15.2613912750
Cu      3.6859144139     3.5553989067    15.2687110878
Cu      4.9112422052     5.6762696376    15.2556607617
Cu      6.1351002976     7.7990585646    15.2669024353
Cu      4.9137903016     1.4182166255    15.2612662736
Cu      6.1427081862     3.5465776590    15.2629134994
Cu      7.3739674571     5.6748441095    15.2659475587
Cu      8.6005066689     7.8029353447    15.2615571824
Cu      7.3708918567     1.4167576178    15.2601824156
Cu      8.6005961948     3.5499835192    15.2639632126
Cu      9.8280091529     5.6752612435    15.2639776635
Cu     11.0656364625     7.7986959101    15.2668072676
Cu      9.8300349901     1.4166825919    15.2597849848
Cu     11.0583339066     3.5468060346    15.2613917634
Cu     12.2893856456     5.6764031411    15.2555751407
Cu     13.5153406482     7.8001961786    15.2577368295
Cu      1.2337009017     0.7103097545    17.3563941714
Cu      2.4568153012     2.8335387885    17.3572795170
Cu      3.6858718743     4.8936096700    17.3521726916
Cu      4.9774068514     7.1293021300    17.3516218402
Cu      3.6860709972     0.7082820549    17.3562755422
Cu      4.9136982015     2.8330243252    17.3557896050
Cu      6.1517146063     4.9527737646    17.3463287509
Cu      7.3686562073     7.1095076516    17.3463822815
Cu      6.1379556276     0.7098533682    17.3567523131
Cu      7.3677270553     2.8271654702    17.3526066725
Cu      8.5988371690     4.9817974328    17.3122313839
Cu      9.8324183032     7.1101067019    17.3443470174
Cu      8.6007116007     0.7335470572    17.3533761866
Cu      9.8363690159     2.8245387585    17.3487626640
Cu     11.0514212501     4.9517387490    17.3442493530
Cu     12.2229289693     7.1291101467    17.3519039714
O       9.1320922104     3.5943250107    21.7242943439
O       8.6222461648     4.9569255948    19.4042709500
O       8.6313969878     4.9502993223    24.1907490445
C       8.6658083635     4.9573803986    21.7871047022
C       9.1214889362     5.6888274093    20.5310736980
C       9.1243141738     5.6577134867    23.0494929460
H       7.5510589569     4.8783830880    21.7679097305
H      10.2304296942     5.7043320383    20.4704088303
H       8.7425118603     6.7113055340    20.4489966978
H       8.7807466717     6.7124648736    23.0536102444
H      10.2424904522     5.6509890342    23.0501696263
H      10.1056597109     3.6632105255    21.7481899067
H       8.9821313569     4.0306331847    19.4428156822
H       8.9828266606     5.4300862138    24.9581244273
O      13.5142725639     6.3844938308    18.7102346046
H      13.5166016709     6.3849350700    19.6829297027
80
Step 3 | ATOMIC_POSITIONS (angstrom) | Cartesian Angstrom
Ni      1.2286497524     0.7093615512    11.2500000000
Ni      2.4572990095     2.8374462048    11.2500000000
Ni      3.6859482667     4.9655308584    11.2500000000
Ni      4.9145975239     7.0936155120    11.2500000000
Ni      3.6859497524     0.7093615512    11.2500000000
Ni      4.9145990095     2.8374462048    11.2500000000
Ni      6.1432482667     4.9655308584    11.2500000000
Ni      7.3718975239     7.0936155120    11.2500000000
Ni      6.1432497524     0.7093615512    11.2500000000
Ni      7.3718990095     2.8374462048    11.2500000000
Ni      8.6005482667     4.9655308584    11.2500000000
Ni      9.8291975239     7.0936155120    11.2500000000
Ni      8.6005497524     0.7093615512    11.2500000000
Ni      9.8291990095     2.8374462048    11.2500000000
Ni     11.0578482667     4.9655308584    11.2500000000
Ni     12.2864975239     7.0936155120    11.2500000000
Ni      0.0006961320     0.0015211354    13.2384801974
Ni      1.2262393406     2.1298555819    13.2419498736
Ni      2.4559066577     4.2546774380    13.2410092138
Ni     13.5151569412     6.3839941104    13.2399977751
Ni      2.4531843568    -0.0025002250    13.2466998750
Ni      3.6858788438     2.1335751293    13.2429785043
Ni      4.9162169217     4.2545940548    13.2412209542
Ni      6.1460788082     6.3835970604    13.2438063212
Ni      4.9185642741    -0.0024397968    13.2468303956
Ni      6.1458504398     2.1303747234    13.2427388583
Ni      7.3700348285     4.2564469813    13.2388552165
Ni      8.6001744229     6.3818717514    13.2406048546
Ni      7.3712337856     0.0014073280    13.2387338059
Ni      8.6005180174     2.1286304032    13.2437046465
Ni      9.8310607259     4.2563264156    13.2389936293
Ni     11.0553646598     6.3836756152    13.2425838445
Cu      2.4585245597     1.4181878354    15.2622230295
Cu      3.6858422268     3.5585847166    15.2721467138
Cu      4.9092769131     5.6772211673    15.2554256403
Cu      6.1314904647     7.7975982909    15.2687319868
Cu      4.9132775484     1.4180009360    15.2620110380
Cu      6.1423364087     3.5462063818    15.2642344061
Cu      7.3737085496     5.6756959577    15.2673376431
Cu      8.6003901668     7.8031697752    15.2615914590
Cu      7.3702918796     1.4155675191    15.2600398626
Cu      8.6005993080     3.5503929664    15.2648994879
Cu      9.8286389331     5.6762672474    15.2643357125
Cu     11.0691755239     7.7971485826    15.2684982760
Cu      9.8305440272     1.4154075865    15.2591984808
Cu     11.0588077621     3.5464624247    15.2615673005
Cu     12.2912120903     5.6774655807    15.2552013793
Cu     13.5153926909     7.7985289753    15.2590439704
Cu      1.2388625285     0.7150555835    17.3760603415
Cu      2.4549310337     2.8266724048    17.3775987470
Cu      3.6859598914     4.8654354341    17.3758761919
Cu      5.0010409323     7.1433315006    17.3751471555
Cu      3.6860670208     0.7087913002    17.3760096653
Cu      4.9149736095     2.8259401904    17.3751044248
Cu      6.1559790088     4.9460292745    17.3593256070
Cu      7.3717063420     7.1186055475    17.3596022818
Cu      6.1328361690     0.7146852690    17.3766586620
Cu      7.3660409184     2.8224201920    17.3698026659
Cu      8.5987777964     4.9909417896    17.3087920150
Cu      9.8292290161     7.1190702803    17.3561736897
Cu      8.6007287044     0.7451236649    17.3709219333
Cu      9.8397518231     2.8187278294    17.3634371499
Cu     11.0476417472     4.9444412586    17.3557916026
Cu     12.1988394409     7.1430520155    17.3756060826
O       9.1337621399     3.5918398301    21.7168827659
O       8.6094592670     4.9386153021    19.4289773405
O       8.6264042682     4.9520717537    24.1948274920
C       8.6603173333     4.9534370050    21.7964525511
C       9.1295462212     5.6880512375    20.5410621292
C       9.1317020537     5.6580182613    23.0589612949
H       7.5704374557     4.8799596539    21.7704206175
H      10.2322559600     5.7147154638    20.4784374629
H       8.7381932155     6.7188882010    20.4429178741
H       8.7822569537     6.7188441348    23.0440384283
H      10.2422889726     5.6591761544    23.0413290892
H      10.1053610254     3.6518420372    21.7524891174
H       8.9741007433     4.0268962563    19.4596423901
H       8.9772718199     5.4232393490    24.9645720909
O      13.5137160156     6.3850721778    18.7262183626
H      13.5178659261     6.3856730907    19.6906185549
80
Step 4 | ATOMIC_POSITIONS (angstrom) | Cartesian Angstrom
Ni      1.2286497524     0.7093615512    11.2500000000
Ni      2.4572990095     2.8374462048    11.2500000000
Ni      3.6859482667     4.9655308584    11.2500000000
Ni      4.9145975239     7.0936155120    11.2500000000
Ni      3.6859497524     0.7093615512    11.2500000000
Ni      4.9145990095     2.8374462048    11.2500000000
Ni      6.1432482667     4.9655308584    11.2500000000
Ni      7.3718975239     7.0936155120    11.2500000000
Ni      6.1432497524     0.7093615512    11.2500000000
Ni      7.3718990095     2.8374462048    11.2500000000
Ni      8.6005482667     4.9655308584    11.2500000000
Ni      9.8291975239     7.0936155120    11.2500000000
Ni      8.6005497524     0.7093615512    11.2500000000
Ni      9.8291990095     2.8374462048    11.2500000000
Ni     11.0578482667     4.9655308584    11.2500000000
Ni     12.2864975239     7.0936155120    11.2500000000
Ni      0.0009285836     0.0016455032    13.2339744704
Ni      1.2258894874     2.1300525491    13.2385331863
Ni      2.4559427404     4.2541664417    13.2375337742
Ni     13.5152090081     6.3840787959    13.2350593816
Ni      2.4523566621    -0.0028741560    13.2450720540
Ni      3.6858572718     2.1347684821    13.2406080176
Ni      4.9163327867     4.2540447655    13.2379499787
Ni      6.1468918962     6.3835795786    13.2411991845
Ni      4.9193139305    -0.0028038853    13.2451951835
Ni      6.1462809292     2.1308003242    13.2397356934
Ni      7.3699006523     4.2566273798    13.2353864878
Ni      8.6000223100     6.3812452674    13.2371458167
Ni      7.3710287358     0.0015682857    13.2343571812
Ni      8.6004855302     2.1291154880    13.2410195653
Ni      9.8311302363     4.2564301899    13.2352444280
Ni     11.0546671045     6.3837254421    13.2394023794
Cu      2.4590113391     1.4181458237    15.2646131023
Cu      3.6857445246     3.5601771972    15.2762781995
Cu      4.9074047240     5.6781522731    15.2590106084
Cu      6.1288585218     7.7969734617    15.2708863337
Cu      4.9127290430     1.4178214583    15.2642923407
Cu      6.1418930151     3.5456826323    15.2668148464
Cu      7.3721331025     5.6772056416    15.2684158053
Cu      8.6002104854     7.8038082204    15.2623569363
Cu      7.3697643130     1.4143390779    15.2613718818
Cu      8.6005773303     3.5495461216    15.2662522151
Cu      9.8304223312     5.6778468617    15.2644671505
Cu     11.0718477119     7.7965754025    15.2704151461
Cu      9.8309786966     1.4140508936    15.2599185720
Cu     11.0594703208     3.5458685511    15.2627997538
Cu     12.2930771721     5.6785319597    15.2585523899
Cu     13.5153790535     7.7970003508    15.2643435942
Cu      1.2454096721     0.7227786171    17.3979847402
Cu      2.4521127771     2.8165928405    17.4003154781
Cu      3.6861363259     4.8489502619    17.4073664404
Cu      5.0135136470     7.1515565740    17.4065608671
Cu      3.6860137066     0.7104343705    17.3982557167
Cu      4.9174620414     2.8157127092    17.3966883755
Cu      6.1594468004     4.9404022408    17.3739108769
Cu      7.3786876651     7.1270208395    17.3745694318
Cu      6.1264777034     0.7228268811    17.3988330391
Cu      7.3653238770     2.8194997106    17.3889692697
Cu      8.5994799385     4.9990482327    17.3110728610
Cu      9.8220291547     7.1270174516    17.3695532079
Cu      8.6006859711     0.7534895511    17.3904146976
Cu      9.8420302224     2.8151387007    17.3797136721
Cu     11.0441052843     4.9383624407    17.3686747024
Cu     12.1858559310     7.1512210017    17.4072134635
O       9.1330950054     3.5947794974    21.7119783857
O       8.5953929280     4.9286819233    19.4527024145
O       8.6254492020     4.9592650966    24.1957897523
C       8.6712584753     4.9544640874    21.8044871547
C       9.1271062625     5.6880830502    20.5493436240
C       9.1327077739     5.6587246575    23.0611560413
H       7.5794868349     4.8804540596    21.7747132629
H      10.2351305913     5.7262401793    20.4865518697
H       8.7367388098     6.7172029098    20.4383850157
H       8.7863356456     6.7167924340    23.0356100034
H      10.2424336903     5.6678780723    23.0367357019
H      10.1077497879     3.6371200045    21.7580166964
H       8.9670560681     4.0168167304    19.4828959966
H       8.9709683474     5.4155249730    24.9775237065
O      13.5129995972     6.3858562506    18.7280467363
H      13.5195275576     6.3866352569    19.7054115706
