88
Step 1 | ATOMIC_POSITIONS (angstrom) | Cartesian Angstrom
NI      1.2286390390     0.7093535490     9.0128649340
NI      2.4572760100     2.8374169220     9.0128649340
NI      3.6859498400     4.9655441370     9.0128649340
NI      3.6859144660     0.7093535490     9.0128649340
NI      4.9145514370     2.8374169220     9.0128649340
NI      6.1432252670     4.9655441370     9.0128649340
NI      6.1432636120     0.7093535490     9.0128649340
NI      7.3719005830     2.8374169220     9.0128649340
NI      8.6005744130     4.9655441370     9.0128649340
NI      3.6859496950     6.3842528500    11.0189462060
NI      1.2286512230     2.1280836160    11.0189462060
NI      2.4573004800     4.2561682700    11.0189462060
NI      6.1432495260     6.3842528500    11.0189462060
NI      3.6859510540     2.1280836160    11.0189462060
NI      4.9146003110     4.2561682700    11.0189462060
NI      8.6005495260     6.3842528500    11.0189462060
NI      6.1432510540     2.1280836160    11.0189462060
NI      7.3719003110     4.2561682700    11.0189462060
NI      2.4572772050     1.4187076030    13.0254417880
NI      3.6859510350     3.5468348180    13.0254417880
NI      4.9145880060     5.6748981910    13.0254417880
NI      4.9146263510     1.4187076030    13.0254417880
NI      6.1433001810     3.5468348180    13.0254417880
NI      7.3719371520     5.6748981910    13.0254417880
NI      7.3719017780     1.4187076030    13.0254417880
NI      8.6005756080     3.5468348180    13.0254417880
NI      9.8292125790     5.6748981910    13.0254417880
NI      1.2336691290     0.7124155025    15.0235913438
NI      2.4643627395     2.8412855794    15.0214034903
NI      3.6939974867     4.9670540416    15.0156576402
NI      3.6923401499     0.7131498683    15.0221975371
NI      4.9224784449     2.8422792289    15.0201466021
NI      6.1530712429     4.9687453243    15.0140934468
NI      6.1490711029     0.7151611300    15.0166326643
NI      7.3797235245     2.8438530574    15.0144840326
NI      8.6096199079     4.9705540652    15.0078225833
CU      0.1363454231     0.0781572080    17.0350122027
CU      1.3903744917     2.2474901417    17.0443233274
CU      2.6410808439     0.0803463258    17.0442400585
CU      3.8957716225     2.2497130665    17.0499024108
CU      2.6505877028     4.4111393145    17.0460251680
CU      5.1532513494     4.4178778365    17.0527648295
CU      5.1454594038     0.0899059625    17.0459568687
CU      6.4023466296     2.2546969807    17.0528318285
CU      7.6602000783     4.4226351661    17.0553981826
CU      2.6639707552     1.5375477494    19.1028284862
CU      3.9232687674     3.7070638278    19.1045782184
CU      5.1719692897     1.5437365399    19.1036598541
CU      6.4317345950     3.7134496111    19.1048544316
CU      5.1832055276     5.8698757228    19.1036597835
CU      7.6885689740     5.8807458630    19.1058963916
CU      7.6749620531     1.5533931708    19.1016549358
CU      8.9371216664     3.7183730030    19.1039537649
CU     10.1929274971     5.8849628097    19.1073959327
CU      1.4007312185     0.8100409914    21.1805905066
CU      2.6592754073     2.9748733407    21.1797554982
CU      3.9079581440     0.8180251969    21.1791248804
CU      5.1695947362     2.9823445382    21.1742303270
CU      3.9234638416     5.1405179950    21.1739440545
CU      6.4270755859     5.1508053293    21.1675930389
CU      6.4124373361     0.8295498941    21.1698312842
CU      7.6751181158     2.9903596172    21.1648793828
CU      8.9354910510     5.1577782484    21.1621308071
CU      0.1341947764     0.0601518897    23.2389968639
CU      1.4089744058     2.2574067383    23.2268170851
CU      2.6532337766     4.4177604195    23.2380142056
CU      2.6477788191     0.0760895006    23.2320196243
CU      3.9036273004     2.2592693490    23.2262735302
CU      5.1662534794     4.4292895753    23.2305988901
CU      5.1461944849     0.0851685048    23.2324870685
CU      6.3961375698     2.2722679029    23.2174873098
CU      7.6731289367     4.4373486390    23.2318479501
O       7.5569491894     1.5176166528    24.6214106609
O       3.9408289216     2.2557274088    25.2761198487
H       4.2883648610     1.3325090509    25.3332712697
H       7.5543196171     1.5236815985    25.5516875814
H       5.5269243354     2.9837327181    26.3677653392
H       4.0501997502     3.9881787645    26.3643016549
C       4.4186823188     2.9671045202    26.4183637641
O       4.4327099596     0.8989596595    27.6431270488
H       5.4126395661     0.9579282473    27.6510657449
C       3.9570900555     2.2498850607    27.6777025990
H       2.8396928422     2.1647329692    27.6740326887
C       4.4265057809     2.9425810324    28.9401516428
H       4.0833716322     3.9830930086    28.9726604786
H       5.5367019809     2.9312462974    28.9727203785
O       3.9453780016     2.2463568389    30.0901615225
H       4.2892409405     2.7225819742    30.8621263177
88
Step 2 | ATOMIC_POSITIONS (angstrom) | Cartesian Angstrom
NI      1.2286390390     0.7093535490     9.0128649340
NI      2.4572760100     2.8374169220     9.0128649340
NI      3.6859498400     4.9655441370     9.0128649340
NI      3.6859144660     0.7093535490     9.0128649340
NI      4.9145514370     2.8374169220     9.0128649340
NI      6.1432252670     4.9655441370     9.0128649340
NI      6.1432636120     0.7093535490     9.0128649340
NI      7.3719005830     2.8374169220     9.0128649340
NI      8.6005744130     4.9655441370     9.0128649340
NI      3.6859496950     6.3842528500    11.0189462060
NI      1.2286512230     2.1280836160    11.0189462060
NI      2.4573004800     4.2561682700    11.0189462060
NI      6.1432495260     6.3842528500    11.0189462060
NI      3.6859510540     2.1280836160    11.0189462060
NI      4.9146003110     4.2561682700    11.0189462060
NI      8.6005495260     6.3842528500    11.0189462060
NI      6.1432510540     2.1280836160    11.0189462060
NI      7.3719003110     4.2561682700    11.0189462060
NI      2.4572772050     1.4187076030    13.0254417880
NI      3.6859510350     3.5468348180    13.0254417880
NI      4.9145880060     5.6748981910    13.0254417880
NI      4.9146263510     1.4187076030    13.0254417880
NI      6.1433001810     3.5468348180    13.0254417880
NI      7.3719371520     5.6748981910    13.0254417880
NI      7.3719017780     1.4187076030    13.0254417880
NI      8.6005756080     3.5468348180    13.0254417880
NI      9.8292125790     5.6748981910    13.0254417880
NI      1.2469174095     0.7204957876    15.0049605230
NI      2.4808052000     2.8499084757    14.9999669765
NI      3.7117044738     4.9714405092    14.9857678844
NI      3.7070929128     0.7222731314    15.0026504732
NI      4.9394274712     2.8527273911    14.9984146551
NI      6.1728692700     4.9761436489    14.9844172462
NI      6.1627515535     0.7274102569    14.9889368701
NI      7.3964418378     2.8562770925    14.9855847481
NI      8.6280086007     4.9806768134    14.9706312604
CU      0.1835193058     0.1042512767    17.0329218021
CU      1.4192155376     2.2359215770    17.0541992756
CU      2.6445263848     0.1110317377    17.0542504552
CU      3.8805037161     2.2419175519    17.0681960481
CU      2.6680141693     4.3560410596    17.0576651836
CU      5.1250818979     4.3690311735    17.0741212060
CU      5.1063567176     0.1324073150    17.0575579922
CU      6.3454141028     2.2563345539    17.0741362825
CU      7.5920129899     4.3834661532    17.0785034412
CU      2.7092313954     1.5626844303    19.1041330584
CU      3.9585814246     3.6932880495    19.1095906208
CU      5.1774359451     1.5804146447    19.1057400913
CU      6.4276851060     3.7114407158    19.1091253649
CU      5.2050255775     5.8131014523    19.1072152508
CU      7.6694185285     5.8378309614    19.1135341455
CU      7.6367057247     1.5995869253    19.1003360841
CU      8.8903957946     3.7236775697    19.1072868190
CU     10.1305403109     5.8489124337    19.1145276109
CU      1.4495320327     0.8410865001    21.1986443721
CU      2.6972886478     2.9602212794    21.1980203187
CU      3.9174925091     0.8630312146    21.1969117210
CU      5.1727143284     2.9807670013    21.1834294264
CU      3.9563400225     5.0868676256    21.1840371564
CU      6.4167353342     5.1085099941    21.1667063375
CU      6.3807891912     0.8884296344    21.1726369235
CU      7.6348416194     3.0018687432    21.1590018710
CU      8.8876497822     5.1278233240    21.1540776600
CU      0.1814995549     0.0612726056    23.2502375982
CU      1.4662200243     2.2629699010    23.2188629050
CU      2.6770484463     4.3746902469    23.2440290515
CU      2.6678580844     0.1011297427    23.2265132769
CU      3.9056681064     2.2724088140    23.2141967497
CU      5.1644676408     4.4023990208    23.2246918025
CU      5.1103498735     0.1220062440    23.2254734463
CU      6.3412069311     2.3015083209    23.1951776110
CU      7.6275072078     4.4240828013    23.2265432892
O       7.5618124515     1.5123476886    24.5805473177
O       3.9218801603     2.2331900583    25.2912113962
H       4.2806266508     1.3232751934    25.3405846086
H       7.5580461091     1.5253131392    25.6223619080
H       5.5302647402     2.9937929263    26.3755850279
H       4.0444234939     4.0004190605    26.3541131778
C       4.4290633924     2.9698468293    26.4210708935
O       4.4398986141     0.8837085142    27.6348884927
H       5.4039314866     0.9501518403    27.6552124963
C       3.9548134447     2.2447364988    27.6872787867
H       2.8595634326     2.1671647593    27.6748085339
C       4.4339123617     2.9446626995    28.9563090286
H       4.0828660239     3.9993496585    28.9610288188
H       5.5411108702     2.9394701196    28.9579624342
O       3.9330300056     2.2382572803    30.0954881699
H       4.2856738383     2.7185367690    30.8662746805
88
Step 3 | ATOMIC_POSITIONS (angstrom) | Cartesian Angstrom
NI      1.2286390390     0.7093535490     9.0128649340
NI      2.4572760100     2.8374169220     9.0128649340
NI      3.6859498400     4.9655441370     9.0128649340
NI      3.6859144660     0.7093535490     9.0128649340
NI      4.9145514370     2.8374169220     9.0128649340
NI      6.1432252670     4.9655441370     9.0128649340
NI      6.1432636120     0.7093535490     9.0128649340
NI      7.3719005830     2.8374169220     9.0128649340
NI      8.6005744130     4.9655441370     9.0128649340
NI      3.6859496950     6.3842528500    11.0189462060
NI      1.2286512230     2.1280836160    11.0189462060
NI      2.4573004800     4.2561682700    11.0189462060
NI      6.1432495260     6.3842528500    11.0189462060
NI      3.6859510540     2.1280836160    11.0189462060
NI      4.9146003110     4.2561682700    11.0189462060
NI      8.6005495260     6.3842528500    11.0189462060
NI      6.1432510540     2.1280836160    11.0189462060
NI      7.3719003110     4.2561682700    11.0189462060
NI      2.4572772050     1.4187076030    13.0254417880
NI      3.6859510350     3.5468348180    13.0254417880
NI      4.9145880060     5.6748981910    13.0254417880
NI      4.9146263510     1.4187076030    13.0254417880
NI      6.1433001810     3.5468348180    13.0254417880
NI      7.3719371520     5.6748981910    13.0254417880
NI      7.3719017780     1.4187076030    13.0254417880
NI      8.6005756080     3.5468348180    13.0254417880
NI      9.8292125790     5.6748981910    13.0254417880
NI      1.2520614525     0.7236544148    15.0010894245
NI      2.4854690123     2.8521582145    14.9971441743
NI      3.7159795421     4.9736518140    14.9848891121
NI      3.7112578559     0.7250515504    15.0004003111
NI      4.9431401945     2.8550351537    14.9974386599
NI      6.1762955106     4.9784483766    14.9859415504
NI      6.1669892096     0.7298262672    14.9885915195
NI      7.4003119341     2.8578819429    14.9871606828
NI      8.6315911164     4.9826692581    14.9746906018
CU      0.1828568435     0.1036808084    17.0367583242
CU      1.4178286030     2.2351005458    17.0537971721
CU      2.6430501061     0.1101351591    17.0542522671
CU      3.8773934709     2.2402598440    17.0654533248
CU      2.6639468490     4.3567444115    17.0563294942
CU      5.1207041480     4.3662447717    17.0699982184
CU      5.1047624033     0.1283709672    17.0562861608
CU      6.3407320405     2.2541849708    17.0696211421
CU      7.5863108735     4.3803749295    17.0722938310
CU      2.7098754886     1.5628556062    19.1080245736
CU      3.9573047796     3.6920410745    19.1140579567
CU      5.1755266234     1.5797857595    19.1087682393
CU      6.4240960540     3.7095722345    19.1118682798
CU      5.2003326889     5.8152052127    19.1106664107
CU      7.6642119451     5.8369502683    19.1171473919
CU      7.6363284054     1.5941383845    19.1021844054
CU      8.8870981691     3.7196257788    19.1098241630
CU     10.1257371895     5.8459740274    19.1154483603
CU      1.4514745270     0.8426271316    21.1960313743
CU      2.6979989424     2.9624980719    21.1967953992
CU      3.9192099501     0.8632935971    21.1963686189
CU      5.1721329537     2.9819434270    21.1828974012
CU      3.9538942789     5.0907230877    21.1858086727
CU      6.4148947588     5.1080979994    21.1688821155
CU      6.3834938872     0.8842323993    21.1737257757
CU      7.6339994426     3.0003279486    21.1608880734
CU      8.8851059004     5.1258645844    21.1590869965
CU      0.1855372163     0.0611661424    23.2488087927
CU      1.4669125472     2.2644643975    23.2194502416
CU      2.6754478291     4.3782011723    23.2446200567
CU      2.6718362346     0.1020731691    23.2250390469
CU      3.9070987615     2.2753008968    23.2187655236
CU      5.1644600562     4.4029946006    23.2268481253
CU      5.1114277485     0.1197459023    23.2214519519
CU      6.3431464087     2.3005006361    23.1968712016
CU      7.6237582296     4.4228713026    23.2260197597
O       7.5610532688     1.5167571128    24.6176035164
O       3.9187953544     2.2317910711    25.2988191434
H       4.2781631759     1.3191996988    25.3441986288
H       7.5600601424     1.5246208951    25.5894552906
H       5.5307653949     2.9969300044    26.3758920015
H       4.0442840973     3.9986804329    26.3511447862
C       4.4265623743     2.9677258492    26.4225970590
O       4.4337395697     0.8873403626    27.6338197215
H       5.4097551671     0.9460455253    27.6569484662
C       3.9576558652     2.2440719260    27.6870580547
H       2.8628009647     2.1672528465    27.6757446745
C       4.4334506706     2.9443843877    28.9540996288
H       4.0845310253     3.9970969495    28.9591487328
H       5.5404475321     2.9419948873    28.9572788892
O       3.9348842897     2.2432928230    30.0964921356
H       4.2826270161     2.7146491273    30.8682650219
88
Step 4 | ATOMIC_POSITIONS (angstrom) | Cartesian Angstrom
NI      1.2286390390     0.7093535490     9.0128649340
NI      2.4572760100     2.8374169220     9.0128649340
NI      3.6859498400     4.9655441370     9.0128649340
NI      3.6859144660     0.7093535490     9.0128649340
NI      4.9145514370     2.8374169220     9.0128649340
NI      6.1432252670     4.9655441370     9.0128649340
NI      6.1432636120     0.7093535490     9.0128649340
NI      7.3719005830     2.8374169220     9.0128649340
NI      8.6005744130     4.9655441370     9.0128649340
NI      3.6859496950     6.3842528500    11.0189462060
NI      1.2286512230     2.1280836160    11.0189462060
NI      2.4573004800     4.2561682700    11.0189462060
NI      6.1432495260     6.3842528500    11.0189462060
NI      3.6859510540     2.1280836160    11.0189462060
NI      4.9146003110     4.2561682700    11.0189462060
NI      8.6005495260     6.3842528500    11.0189462060
NI      6.1432510540     2.1280836160    11.0189462060
NI      7.3719003110     4.2561682700    11.0189462060
NI      2.4572772050     1.4187076030    13.0254417880
NI      3.6859510350     3.5468348180    13.0254417880
NI      4.9145880060     5.6748981910    13.0254417880
NI      4.9146263510     1.4187076030    13.0254417880
NI      6.1433001810     3.5468348180    13.0254417880
NI      7.3719371520     5.6748981910    13.0254417880
NI      7.3719017780     1.4187076030    13.0254417880
NI      8.6005756080     3.5468348180    13.0254417880
NI      9.8292125790     5.6748981910    13.0254417880
NI      1.2591129266     0.7279589283    14.9969540490
NI      2.4919660078     2.8555023862    14.9938694400
NI      3.7219850287     4.9770827217    14.9844431234
NI      3.7172626653     0.7287823961    14.9979173707
NI      4.9484783560     2.8583405886    14.9962155902
NI      6.1813285766     4.9819042402    14.9881432800
NI      6.1732239219     0.7330540648    14.9888349170
NI      7.4060341478     2.8602162533    14.9893765258
NI      8.6370051574     4.9857147530    14.9799995850
CU      0.1816924609     0.1027655241    17.0412365409
CU      1.4152401719     2.2341941308    17.0531545935
CU      2.6408264579     0.1081788634    17.0542794454
CU      3.8729315243     2.2378932654    17.0616568360
CU      2.6580296810     4.3575019871    17.0547479007
CU      5.1141494505     4.3631738931    17.0648571669
CU      5.1021920831     0.1226269682    17.0548460922
CU      6.3346741345     2.2503987885    17.0638474027
CU      7.5781982929     4.3759832259    17.0648320301
CU      2.7101783491     1.5627854190    19.1130142248
CU      3.9544979307     3.6909524074    19.1196239164
CU      5.1729782448     1.5777434870    19.1125037178
CU      6.4189095153     3.7067549106    19.1148547904
CU      5.1937382980     5.8174234375    19.1149383092
CU      7.6567925004     5.8355527274    19.1214750755
CU      7.6351165448     1.5869167640    19.1042588700
CU      8.8822387792     3.7138483635    19.1126822519
CU     10.1184071203     5.8415110076    19.1168039720
CU      1.4542652145     0.8448435061    21.1929732353
CU      2.6985706217     2.9660392375    21.1957354501
CU      3.9217669746     0.8633643436    21.1958178588
CU      5.1713612924     2.9832683512    21.1829794991
CU      3.9504247959     5.0959780163    21.1884932458
CU      6.4118728645     5.1081976478    21.1721170677
CU      6.3870266084     0.8786519386    21.1754244377
CU      7.6331123583     2.9974238571    21.1638736098
CU      8.8814065864     5.1230029278    21.1658582602
CU      0.1914134921     0.0638996171    23.2494829945
CU      1.4669045907     2.2659471009    23.2217966620
CU      2.6732333025     4.3833198896    23.2456429709
CU      2.6769732767     0.1036450761    23.2229886671
CU      3.9092166937     2.2791890306    23.2259142163
CU      5.1642323974     4.4043545524    23.2301802172
CU      5.1135790158     0.1170580217    23.2161297734
CU      6.3464309489     2.2979495212    23.2007777943
CU      7.6190226486     4.4210014277    23.2257964162
O       7.5604038161     1.5213142581    24.6288198912
O       3.9133840693     2.2295625786    25.3064886170
H       4.2747267552     1.3119975745    25.3503091471
H       7.5631476956     1.5242295864    25.5788332486
H       5.5315698546     3.0008893355    26.3763738688
H       4.0445074888     3.9937459300    26.3471269048
C       4.4218394005     2.9691431876    26.4252272815
O       4.4358126237     0.8883782111    27.6326275125
H       5.4078510793     0.9397439002    27.6593868648
C       3.9683810218     2.2466554623    27.6888478364
H       2.8619620598     2.1672232938    27.6771321318
C       4.4303583354     2.9454171676    28.9514521563
H       4.0868830885     3.9943503688    28.9559747457
H       5.5418657111     2.9453399561    28.9561328530
O       3.9349051842     2.2464136745    30.0940005645
H       4.2804226881     2.7120685831    30.8748467300
88
Step 5 | ATOMIC_POSITIONS (angstrom) | Cartesian Angstrom
NI      1.2286390390     0.7093535490     9.0128649340
NI      2.4572760100     2.8374169220     9.0128649340
NI      3.6859498400     4.9655441370     9.0128649340
NI      3.6859144660     0.7093535490     9.0128649340
NI      4.9145514370     2.8374169220     9.0128649340
NI      6.1432252670     4.9655441370     9.0128649340
NI      6.1432636120     0.7093535490     9.0128649340
NI      7.3719005830     2.8374169220     9.0128649340
NI      8.6005744130     4.9655441370     9.0128649340
NI      3.6859496950     6.3842528500    11.0189462060
NI      1.2286512230     2.1280836160    11.0189462060
NI      2.4573004800     4.2561682700    11.0189462060
NI      6.1432495260     6.3842528500    11.0189462060
NI      3.6859510540     2.1280836160    11.0189462060
NI      4.9146003110     4.2561682700    11.0189462060
NI      8.6005495260     6.3842528500    11.0189462060
NI      6.1432510540     2.1280836160    11.0189462060
NI      7.3719003110     4.2561682700    11.0189462060
NI      2.4572772050     1.4187076030    13.0254417880
NI      3.6859510350     3.5468348180    13.0254417880
NI      4.9145880060     5.6748981910    13.0254417880
NI      4.9146263510     1.4187076030    13.0254417880
NI      6.1433001810     3.5468348180    13.0254417880
NI      7.3719371520     5.6748981910    13.0254417880
NI      7.3719017780     1.4187076030    13.0254417880
NI      8.6005756080     3.5468348180    13.0254417880
NI      9.8292125790     5.6748981910    13.0254417880
NI      1.2730221226     0.7363972601    14.9899492611
NI      2.5049780710     2.8624606566    14.9876949195
NI      3.7341635387     4.9843481212    14.9835137890
NI      3.7295451563     0.7360579708    14.9932956039
NI      4.9595255115     2.8651367108    14.9932593989
NI      6.1919230245     4.9891451814    14.9914404558
NI      6.1860999685     0.7394412560    14.9892129048
NI      7.4179912390     2.8651722031    14.9926422348
NI      8.6484634190     4.9922220176    14.9886663718
CU      0.1802774435     0.1014875063    17.0488467002
CU      1.4103231191     2.2321230874    17.0521163482
CU      2.6362235617     0.1046242350    17.0546894727
CU      3.8636403676     2.2329686835    17.0551880722
CU      2.6465955811     4.3571699897    17.0524858734
CU      5.1001214020     4.3565302920    17.0565713333
CU      5.0956495581     0.1124290323    17.0528988625
CU      6.3216498156     2.2422854023    17.0542000057
CU      7.5604544927     4.3663059340    17.0527465230
CU      2.7111569623     1.5629259723    19.1217902815
CU      3.9489142856     3.6889514463    19.1294216600
CU      5.1681411918     1.5736597435    19.1189547843
CU      6.4084311319     3.7009218307    19.1196950185
CU      5.1812620757     5.8192379118    19.1226199030
CU      7.6416504870     5.8309891285    19.1292888010
CU      7.6307332097     1.5744906510    19.1075864942
CU      8.8707942721     3.7028216587    19.1175405094
CU     10.1016158714     5.8313636152    19.1197115384
CU      1.4611696248     0.8501042111    21.1884072121
CU      2.7004528977     2.9725484036    21.1955809510
CU      3.9270433383     0.8648068497    21.1958003840
CU      5.1700814254     2.9852924047    21.1849251909
CU      3.9445133318     5.1046348873    21.1944447450
CU      6.4052335333     5.1076155077    21.1784408087
CU      6.3926737501     0.8697820422    21.1789627847
CU      7.6302192487     2.9914902590    21.1697443160
CU      8.8725732059     5.1163907225    21.1780545701
CU      0.2043950843     0.0697869420    23.2518816952
CU      1.4691614974     2.2693118590    23.2261926315
CU      2.6697538835     4.3922881342    23.2483310975
CU      2.6873441249     0.1077770179    23.2188957960
CU      3.9134319505     2.2870844779    23.2399966793
CU      5.1635292423     4.4066891265    23.2370122253
CU      5.1173480225     0.1134114111    23.2062235335
CU      6.3503501597     2.2936437492    23.2078302756
CU      7.6091381447     4.4170366774    23.2259461148
O       7.5595591643     1.5298564678    24.6323028331
O       3.9028112329     2.2197506519    25.3208277035
H       4.2656901991     1.3011456882    25.3637513915
H       7.5699070460     1.5235366243    25.5771016626
H       5.5300416531     3.0092124508    26.3769198046
H       4.0422010407     3.9885978127    26.3390519480
C       4.4212604167     2.9680730775    26.4288450905
O       4.4326644072     0.8899147563    27.6301532348
H       5.4127850354     0.9268415226    27.6648800351
C       3.9753917874     2.2486735338    27.6915899561
H       2.8680913295     2.1676013033    27.6803364502
C       4.4331719726     2.9472311023    28.9500088231
H       4.0899601736     3.9926672252    28.9486876648
H       5.5428666205     2.9526407792    28.9539502875
O       3.9350066318     2.2535943292    30.0953569233
H       4.2739878624     2.7042895747    30.8822197933
88
Step 6 | ATOMIC_POSITIONS (angstrom) | Cartesian Angstrom
NI      1.2286390390     0.7093535490     9.0128649340
NI      2.4572760100     2.8374169220     9.0128649340
NI      3.6859498400     4.9655441370     9.0128649340
NI      3.6859144660     0.7093535490     9.0128649340
NI      4.9145514370     2.8374169220     9.0128649340
NI      6.1432252670     4.9655441370     9.0128649340
NI      6.1432636120     0.7093535490     9.0128649340
NI      7.3719005830     2.8374169220     9.0128649340
NI      8.6005744130     4.9655441370     9.0128649340
NI      3.6859496950     6.3842528500    11.0189462060
NI      1.2286512230     2.1280836160    11.0189462060
NI      2.4573004800     4.2561682700    11.0189462060
NI      6.1432495260     6.3842528500    11.0189462060
NI      3.6859510540     2.1280836160    11.0189462060
NI      4.9146003110     4.2561682700    11.0189462060
NI      8.6005495260     6.3842528500    11.0189462060
NI      6.1432510540     2.1280836160    11.0189462060
NI      7.3719003110     4.2561682700    11.0189462060
NI      2.4572772050     1.4187076030    13.0254417880
NI      3.6859510350     3.5468348180    13.0254417880
NI      4.9145880060     5.6748981910    13.0254417880
NI      4.9146263510     1.4187076030    13.0254417880
NI      6.1433001810     3.5468348180    13.0254417880
NI      7.3719371520     5.6748981910    13.0254417880
NI      7.3719017780     1.4187076030    13.0254417880
NI      8.6005756080     3.5468348180    13.0254417880
NI      9.8292125790     5.6748981910    13.0254417880
NI      1.2887218977     0.7458330032    14.9842789931
NI      2.5197854934     2.8708170519    14.9817589667
NI      3.7481147571     4.9933059811    14.9832836178
NI      3.7439438732     0.7440392032    14.9890846116
NI      4.9724947254     2.8730903761    14.9896992079
NI      6.2044438761     4.9978861085    14.9945682842
NI      6.2013820684     0.7464152764    14.9903353728
NI      7.4322388910     2.8709867682    14.9955855773
NI      8.6621765223     5.0000773745    14.9972004250
CU      0.1780522485     0.0997328741    17.0560624447
CU      1.4039921574     2.2294956061    17.0510430819
CU      2.6302946484     0.1000916294    17.0554862866
CU      3.8526159240     2.2271267961    17.0488964066
CU      2.6330527050     4.3558073618    17.0508750773
CU      5.0832505200     4.3493152387    17.0492860262
CU      5.0870938070     0.1008809903    17.0517414187
CU      6.3066711088     2.2320623959    17.0452123607
CU      7.5397279961     4.3549397059    17.0421527038
CU      2.7111395077     1.5625834830    19.1300574041
CU      3.9412452081     3.6869980933    19.1387588375
CU      5.1623922270     1.5678363331    19.1248951389
CU      6.3958937135     3.6937293399    19.1236748844
CU      5.1666745107     5.8193089489    19.1303738471
CU      7.6238925414     5.8241428444    19.1371363634
CU      7.6237859194     1.5611673721    19.1104420035
CU      8.8560181809     3.6904704412    19.1220571667
CU     10.0807754557     5.8188167432    19.1232488254
CU      1.4695587369     0.8564377567    21.1848590766
CU      2.7026585508     2.9795674428    21.1980546032
CU      3.9330085219     0.8671649080    21.1969427719
CU      5.1687697427     2.9867683903    21.1897853358
CU      3.9379750952     5.1137425311    21.2020197456
CU      6.3969020112     5.1068365340    21.1855510024
CU      6.3981742382     0.8607981473    21.1831390265
CU      7.6261436568     2.9841828245    21.1764877092
CU      8.8615033362     5.1082385295    21.1902796026
CU      0.2199032904     0.0769382913    23.2554569268
CU      1.4735011414     2.2738947145    23.2309444808
CU      2.6663789056     4.4022676322    23.2525317373
CU      2.6991254948     0.1133809261    23.2143288691
CU      3.9181795887     2.2961141900    23.2565981146
CU      5.1624795111     4.4096168375    23.2456189468
CU      5.1221754946     0.1105436817    23.1961508796
CU      6.3527737732     2.2890559351    23.2155238471
CU      7.5984354471     4.4126237310    23.2273157851
O       7.5590174805     1.5400672636    24.6303637313
O       3.8910485914     2.2056322629    25.3360167369
H       4.2534420762     1.2891171839    25.3815531021
H       7.5789262084     1.5224378166    25.5823860232
H       5.5284610347     3.0185942832    26.3764976861
H       4.0377480379     3.9842702292    26.3297034819
C       4.4214993175     2.9659629730    26.4311210825
O       4.4390713410     0.8894544260    27.6281420642
H       5.4102061546     0.9107356943    27.6716785559
C       3.9790546066     2.2500086577    27.6955892894
H       2.8765668637     2.1688046887    27.6846644476
C       4.4384410557     2.9493804562    28.9526729012
H       4.0926657457     3.9937094288    28.9394051878
H       5.5458667955     2.9613936280    28.9520348151
O       3.9322421009     2.2580184872    30.0919018103
H       4.2687024355     2.6983655301    30.8941704356
88
Step 7 | ATOMIC_POSITIONS (angstrom) | Cartesian Angstrom
NI      1.2286390390     0.7093535490     9.0128649340
NI      2.4572760100     2.8374169220     9.0128649340
NI      3.6859498400     4.9655441370     9.0128649340
NI      3.6859144660     0.7093535490     9.0128649340
NI      4.9145514370     2.8374169220     9.0128649340
NI      6.1432252670     4.9655441370     9.0128649340
NI      6.1432636120     0.7093535490     9.0128649340
NI      7.3719005830     2.8374169220     9.0128649340
NI      8.6005744130     4.9655441370     9.0128649340