80
Step 1 | ATOMIC_POSITIONS (angstrom) | Cartesian Angstrom
Ni      1.2286497520     0.7093615510    11.2500000000
Ni      2.4572990100     2.8374462050    11.2500000000
Ni      3.6859482670     4.9655308580    11.2500000000
Ni      4.9145975240     7.0936155120    11.2500000000
Ni      3.6859497520     0.7093615510    11.2500000000
Ni      4.9145990100     2.8374462050    11.2500000000
Ni      6.1432482670     4.9655308580    11.2500000000
Ni      7.3718975240     7.0936155120    11.2500000000
Ni      6.1432497520     0.7093615510    11.2500000000
Ni      7.3718990100     2.8374462050    11.2500000000
Ni      8.6005482670     4.9655308580    11.2500000000
Ni      9.8291975240     7.0936155120    11.2500000000
Ni      8.6005497520     0.7093615510    11.2500000000
Ni      9.8291990100     2.8374462050    11.2500000000
Ni     11.0578482670     4.9655308580    11.2500000000
Ni     12.2864975240     7.0936155120    11.2500000000
Ni      4.9099156437     8.5053429943    13.3011714153
Ni     11.0531329444     2.1206495289    13.3008022987
Ni     12.2817169742     4.2489790338    13.3006009374
Ni     13.5101985337     6.3773433495    13.3009431249
Ni      7.3672568657     8.5047181049    13.3011773704
Ni      3.6813642393     2.1207834059    13.3007249916
Ni      4.9098915811     4.2493198243    13.3009122649
Ni      6.1382079689     6.3774560515    13.3011135672
Ni      9.8241033231     8.5046823230    13.3010832757
Ni      6.1383369811     2.1207818053    13.3007715317
Ni      7.3668809572     4.2490234566    13.3008058444
Ni      8.5953896190     6.3767159329    13.3009510356
Ni     12.2816608155     8.5051500050    13.3006064561
Ni      8.5958456854     2.1206091639    13.3010363913
Ni      9.8244550653     4.2487038258    13.3007275536
Ni     11.0528529681     6.3769409810    13.3006612510
Cu      2.4478273934     1.4024593494    15.3768195279
Cu      3.6763308064     3.5307008763    15.3768060769
Cu      4.9041378635     5.6597275327    15.3773446705
Cu      6.1330260753     7.7878909917    15.3784795762
Cu      4.9046987935     1.4026027494    15.3777978376
Cu      6.1325026874     3.5313494179    15.3777258642
Cu      7.3610720821     5.6598451508    15.3779275454
Cu      8.5906751573     7.7868955285    15.3785352684
Cu      7.3621786350     1.4037478132    15.3762149869
Cu      8.5904727219     3.5321453649    15.3780682333
Cu      9.8190628607     5.6596863340    15.3769316566
Cu     11.0487962789     7.7874997913    15.3777155251
Cu      9.8196454140     1.4041813301    15.3774701118
Cu     11.0479045226     3.5315147301    15.3771972946
Cu     12.2765483612     5.6595853029    15.3771297580
Cu     13.5054403737     7.7883030906    15.3772812510
Cu      1.2140125069     0.6836802978    17.5697066843
Cu      2.4431554841     2.8116125733    17.5665701774
Cu      3.6705110992     4.9384343223    17.5687388932
Cu      4.8988742137     7.0688538724    17.5715927895
Cu      3.6716454968     0.6829118358    17.5713988441
Cu      4.8981418591     2.8112416660    17.5722076345
Cu      6.1274353446     4.9410331950    17.5708266735
Cu      7.3554752239     7.0698227976    17.5713298575
Cu      6.1297077273     0.6833063413    17.5689100863
Cu      7.3567237634     2.8135682210    17.5698798542
Cu      8.5851063566     4.9421568871    17.5702369002
Cu      9.8152975501     7.0699596346    17.5700617894
Cu      8.5865082002     0.6855772246    17.5667967617
Cu      9.8144914731     2.8135456226    17.5749497456
Cu     11.0427692105     4.9416447890    17.5690865385
Cu     12.2728600097     7.0692517504    17.5719745895
O       9.1602677162     3.6879068943    21.6770813880
O       8.6722506406     5.0508985013    19.3962711273
O       8.6727779155     5.0337068677    24.1245241055
C       8.6817499715     5.0347627809    21.7134192647
C       9.1494136054     5.7606337072    20.4695899211
C       9.1546221916     5.7303622868    22.9762836527
H       7.5676268014     4.9521708166    21.7097354782
H      10.2526548347     5.7702850877    20.4017570133
H       8.7772192321     6.7759340536    20.3996070674
H       8.8105718583     6.7705963156    23.0079721257
H      10.2637463904     5.7185608447    23.0080492017
H      10.1401318779     3.7444066112    21.6864240521
H       9.0199565740     4.1093362821    19.3800898543
H       9.0167500561     5.5100235179    24.8977848587
O       4.9160128208     2.8397957148    19.3327420598
H       4.9148452068     2.8371357607    20.1879185336
80
Step 2 | ATOMIC_POSITIONS (angstrom) | Cartesian Angstrom
Ni      1.2286497520     0.7093615510    11.2500000000
Ni      2.4572990100     2.8374462050    11.2500000000
Ni      3.6859482670     4.9655308580    11.2500000000
Ni      4.9145975240     7.0936155120    11.2500000000
Ni      3.6859497520     0.7093615510    11.2500000000
Ni      4.9145990100     2.8374462050    11.2500000000
Ni      6.1432482670     4.9655308580    11.2500000000
Ni      7.3718975240     7.0936155120    11.2500000000
Ni      6.1432497520     0.7093615510    11.2500000000
Ni      7.3718990100     2.8374462050    11.2500000000
Ni      8.6005482670     4.9655308580    11.2500000000
Ni      9.8291975240     7.0936155120    11.2500000000
Ni      8.6005497520     0.7093615510    11.2500000000
Ni      9.8291990100     2.8374462050    11.2500000000
Ni     11.0578482670     4.9655308580    11.2500000000
Ni     12.2864975240     7.0936155120    11.2500000000
Ni      4.9099156437     8.5053429943    13.3011714153
Ni     11.0531329444     2.1206495289    13.3008022987
Ni     12.2817169742     4.2489790338    13.3006009374
Ni     13.5101985337     6.3773433495    13.3009431249
Ni      7.3672568657     8.5047181049    13.3011773704
Ni      3.6813642393     2.1207834059    13.3007249916
Ni      4.9098915811     4.2493198243    13.3009122649
Ni      6.1382079689     6.3774560515    13.3011135672
Ni      9.8241033231     8.5046823230    13.3010832757
Ni      6.1383369811     2.1207818053    13.3007715317
Ni      7.3668809572     4.2490234566    13.3008058444
Ni      8.5953896190     6.3767159329    13.3009510356
Ni     12.2816608155     8.5051500050    13.3006064561
Ni      8.5958456854     2.1206091639    13.3010363913
Ni      9.8244550653     4.2487038258    13.3007275536
Ni     11.0528529681     6.3769409810    13.3006612510
Cu      2.4478273934     1.4024593494    15.3768195279
Cu      3.6763308064     3.5307008763    15.3768060769
Cu      4.9041378635     5.6597275327    15.3773446705
Cu      6.1330260753     7.7878909917    15.3784795762
Cu      4.9046987935     1.4026027494    15.3777978376
Cu      6.1325026874     3.5313494179    15.3777258642
Cu      7.3610720821     5.6598451508    15.3779275454
Cu      8.5906751573     7.7868955285    15.3785352684
Cu      7.3621786350     1.4037478132    15.3762149869
Cu      8.5904727219     3.5321453649    15.3780682333
Cu      9.8190628607     5.6596863340    15.3769316566
Cu     11.0487962789     7.7874997913    15.3777155251
Cu      9.8196454140     1.4041813301    15.3774701118
Cu     11.0479045226     3.5315147301    15.3771972946
Cu     12.2765483612     5.6595853029    15.3771297580
Cu     13.5054403737     7.7883030906    15.3772812510
Cu      1.2140125069     0.6836802978    17.5697066843
Cu      2.4431554841     2.8116125733    17.5665701774
Cu      3.6705110992     4.9384343223    17.5687388932
Cu      4.8988742137     7.0688538724    17.5715927895
Cu      3.6716454968     0.6829118358    17.5713988441
Cu      4.8981418591     2.8112416660    17.5722076345
Cu      6.1274353446     4.9410331950    17.5708266735
Cu      7.3554752239     7.0698227976    17.5713298575
Cu      6.1297077273     0.6833063413    17.5689100863
Cu      7.3567237634     2.8135682210    17.5698798542
Cu      8.5851063566     4.9421568871    17.5702369002
Cu      9.8152975501     7.0699596346    17.5700617894
Cu      8.5865082002     0.6855772246    17.5667967617
Cu      9.8144914731     2.8135456226    17.5749497456
Cu     11.0427692105     4.9416447890    17.5690865385
Cu     12.2728600097     7.0692517504    17.5719745895
O       9.1597580716     3.6782492804    21.6700759321
O       8.6568800231     5.0371995586    19.4640241902
O       8.6666872643     5.0293299799    24.1290782383
C       8.6920069687     5.0346136879    21.7276524929
C       9.1576844351     5.7748397646    20.5000087666
C       9.1529956839     5.7315915540    22.9844213033
H       7.5727006356     4.9530237531    21.7097731724
H      10.2579605635     5.7758054839    20.4067875914
H       8.7746692259     6.7834276927    20.3954884739
H       8.8104458102     6.7798187552    23.0015739107
H      10.2689169184     5.7225022692    22.9994497848
H      10.1383675978     3.7411086210    21.6883431827
H       9.0218537314     4.0943559595    19.3997676107
H       9.0145012195     5.5073199871    24.8986801926
O       4.9174674530     2.8425046338    19.3238582446
H       4.9150935452     2.8364060288    20.2850176922
80
Step 3 | ATOMIC_POSITIONS (angstrom) | Cartesian Angstrom
Ni      1.2286497520     0.7093615510    11.2500000000
Ni      2.4572990100     2.8374462050    11.2500000000
Ni      3.6859482670     4.9655308580    11.2500000000
Ni      4.9145975240     7.0936155120    11.2500000000
Ni      3.6859497520     0.7093615510    11.2500000000
Ni      4.9145990100     2.8374462050    11.2500000000
Ni      6.1432482670     4.9655308580    11.2500000000
Ni      7.3718975240     7.0936155120    11.2500000000
Ni      6.1432497520     0.7093615510    11.2500000000
Ni      7.3718990100     2.8374462050    11.2500000000
Ni      8.6005482670     4.9655308580    11.2500000000
Ni      9.8291975240     7.0936155120    11.2500000000
Ni      8.6005497520     0.7093615510    11.2500000000
Ni      9.8291990100     2.8374462050    11.2500000000
Ni     11.0578482670     4.9655308580    11.2500000000
Ni     12.2864975240     7.0936155120    11.2500000000
Ni      4.9099156437     8.5053429943    13.3011714153
Ni     11.0531329444     2.1206495289    13.3008022987
Ni     12.2817169742     4.2489790338    13.3006009374
Ni     13.5101985337     6.3773433495    13.3009431249
Ni      7.3672568657     8.5047181049    13.3011773704
Ni      3.6813642393     2.1207834059    13.3007249916
Ni      4.9098915811     4.2493198243    13.3009122649
Ni      6.1382079689     6.3774560515    13.3011135672
Ni      9.8241033231     8.5046823230    13.3010832757
Ni      6.1383369811     2.1207818053    13.3007715317
Ni      7.3668809572     4.2490234566    13.3008058444
Ni      8.5953896190     6.3767159329    13.3009510356
Ni     12.2816608155     8.5051500050    13.3006064561
Ni      8.5958456854     2.1206091639    13.3010363913
Ni      9.8244550653     4.2487038258    13.3007275536
Ni     11.0528529681     6.3769409810    13.3006612510
Cu      2.4478273934     1.4024593494    15.3768195279
Cu      3.6763308064     3.5307008763    15.3768060769
Cu      4.9041378635     5.6597275327    15.3773446705
Cu      6.1330260753     7.7878909917    15.3784795762
Cu      4.9046987935     1.4026027494    15.3777978376
Cu      6.1325026874     3.5313494179    15.3777258642
Cu      7.3610720821     5.6598451508    15.3779275454
Cu      8.5906751573     7.7868955285    15.3785352684
Cu      7.3621786350     1.4037478132    15.3762149869
Cu      8.5904727219     3.5321453649    15.3780682333
Cu      9.8190628607     5.6596863340    15.3769316566
Cu     11.0487962789     7.7874997913    15.3777155251
Cu      9.8196454140     1.4041813301    15.3774701118
Cu     11.0479045226     3.5315147301    15.3771972946
Cu     12.2765483612     5.6595853029    15.3771297580
Cu     13.5054403737     7.7883030906    15.3772812510
Cu      1.2140125069     0.6836802978    17.5697066843
Cu      2.4431554841     2.8116125733    17.5665701774
Cu      3.6705110992     4.9384343223    17.5687388932
Cu      4.8988742137     7.0688538724    17.5715927895
Cu      3.6716454968     0.6829118358    17.5713988441
Cu      4.8981418591     2.8112416660    17.5722076345
Cu      6.1274353446     4.9410331950    17.5708266735
Cu      7.3554752239     7.0698227976    17.5713298575
Cu      6.1297077273     0.6833063413    17.5689100863
Cu      7.3567237634     2.8135682210    17.5698798542
Cu      8.5851063566     4.9421568871    17.5702369002
Cu      9.8152975501     7.0699596346    17.5700617894
Cu      8.5865082002     0.6855772246    17.5667967617
Cu      9.8144914731     2.8135456226    17.5749497456
Cu     11.0427692105     4.9416447890    17.5690865385
Cu     12.2728600097     7.0692517504    17.5719745895
O       9.1668902221     3.6776038883    21.6644585033
O       8.6289124138     4.9927099628    19.4723858940
O       8.6627745334     5.0297332401    24.1325276814
C       8.6840993459     5.0370841335    21.7541216703
C       9.1799093937     5.7818601937    20.5392400849
C       9.1606358916     5.7285077219    22.9964056228
H       7.5891871264     4.9555253306    21.7104195710
H      10.2640007309     5.7860919556    20.4157959166
H       8.7709622045     6.7969789465    20.3954472066
H       8.8104798780     6.7854305795    22.9951750732
H      10.2674057708     5.7277378453    22.9934899710
H      10.1337924276     3.7335218499    21.6909550246
H       9.0194100621     4.0976927720    19.4284488773
H       9.0114450786     5.5035382661    24.9028277001
O       4.9188775889     2.8454086360    19.3578806511
H       4.9156202806     2.8356820471    20.3296430817
80
Step 4 | ATOMIC_POSITIONS (angstrom) | Cartesian Angstrom
Ni      1.2286497520     0.7093615510    11.2500000000
Ni      2.4572990100     2.8374462050    11.2500000000
Ni      3.6859482670     4.9655308580    11.2500000000
Ni      4.9145975240     7.0936155120    11.2500000000
Ni      3.6859497520     0.7093615510    11.2500000000
Ni      4.9145990100     2.8374462050    11.2500000000
Ni      6.1432482670     4.9655308580    11.2500000000
Ni      7.3718975240     7.0936155120    11.2500000000
Ni      6.1432497520     0.7093615510    11.2500000000
Ni      7.3718990100     2.8374462050    11.2500000000
Ni      8.6005482670     4.9655308580    11.2500000000
Ni      9.8291975240     7.0936155120    11.2500000000
Ni      8.6005497520     0.7093615510    11.2500000000
Ni      9.8291990100     2.8374462050    11.2500000000
Ni     11.0578482670     4.9655308580    11.2500000000
Ni     12.2864975240     7.0936155120    11.2500000000
Ni      4.9099156437     8.5053429943    13.3011714153
Ni     11.0531329444     2.1206495289    13.3008022987
Ni     12.2817169742     4.2489790338    13.3006009374
Ni     13.5101985337     6.3773433495    13.3009431249
Ni      7.3672568657     8.5047181049    13.3011773704
Ni      3.6813642393     2.1207834059    13.3007249916
Ni      4.9098915811     4.2493198243    13.3009122649
Ni      6.1382079689     6.3774560515    13.3011135672
Ni      9.8241033231     8.5046823230    13.3010832757
Ni      6.1383369811     2.1207818053    13.3007715317
Ni      7.3668809572     4.2490234566    13.3008058444
Ni      8.5953896190     6.3767159329    13.3009510356
Ni     12.2816608155     8.5051500050    13.3006064561
Ni      8.5958456854     2.1206091639    13.3010363913
Ni      9.8244550653     4.2487038258    13.3007275536
Ni     11.0528529681     6.3769409810    13.3006612510
Cu      2.4478273934     1.4024593494    15.3768195279
Cu      3.6763308064     3.5307008763    15.3768060769
Cu      4.9041378635     5.6597275327    15.3773446705
Cu      6.1330260753     7.7878909917    15.3784795762
Cu      4.9046987935     1.4026027494    15.3777978376
Cu      6.1325026874     3.5313494179    15.3777258642
Cu      7.3610720821     5.6598451508    15.3779275454
Cu      8.5906751573     7.7868955285    15.3785352684
Cu      7.3621786350     1.4037478132    15.3762149869
Cu      8.5904727219     3.5321453649    15.3780682333
Cu      9.8190628607     5.6596863340    15.3769316566
Cu     11.0487962789     7.7874997913    15.3777155251
Cu      9.8196454140     1.4041813301    15.3774701118
Cu     11.0479045226     3.5315147301    15.3771972946
Cu     12.2765483612     5.6595853029    15.3771297580
Cu     13.5054403737     7.7883030906    15.3772812510
Cu      1.2140125069     0.6836802978    17.5697066843
Cu      2.4431554841     2.8116125733    17.5665701774
Cu      3.6705110992     4.9384343223    17.5687388932
Cu      4.8988742137     7.0688538724    17.5715927895
Cu      3.6716454968     0.6829118358    17.5713988441
Cu      4.8981418591     2.8112416660    17.5722076345
Cu      6.1274353446     4.9410331950    17.5708266735
Cu      7.3554752239     7.0698227976    17.5713298575
Cu      6.1297077273     0.6833063413    17.5689100863
Cu      7.3567237634     2.8135682210    17.5698798542
Cu      8.5851063566     4.9421568871    17.5702369002
Cu      9.8152975501     7.0699596346    17.5700617894
Cu      8.5865082002     0.6855772246    17.5667967617
Cu      9.8144914731     2.8135456226    17.5749497456
Cu     11.0427692105     4.9416447890    17.5690865385
Cu     12.2728600097     7.0692517504    17.5719745895
O       9.1623612525     3.6792596683    21.6620399686
O       8.6004851535     4.9788259254    19.5013531108
O       8.6605234123     5.0320612144    24.1394072716
C       8.6947233866     5.0375980842    21.7762377094
C       9.1746751035     5.7817075815    20.5548052873
C       9.1611148904     5.7305916818    23.0126098581
H       7.5990759105     4.9584149025    21.7131232891
H      10.2771927036     5.7970706903    20.4268720536
H       8.7714540451     6.8018173009    20.3978517359
H       8.8128830649     6.7859353639    22.9890078485
H      10.2691580456     5.7333971356    22.9889028732
H      10.1388056152     3.7250274225    21.6950207922
H       9.0249305943     4.0813864009    19.4660845481
H       9.0074407027     5.4985556436    24.9110128616
O       4.9204572869     2.8489945127    19.3963432967
H       4.9163708050     2.8347279545    20.3714590341
80
Step 5 | ATOMIC_POSITIONS (angstrom) | Cartesian Angstrom
Ni      1.2286497520     0.7093615510    11.2500000000
Ni      2.4572990100     2.8374462050    11.2500000000
Ni      3.6859482670     4.9655308580    11.2500000000
Ni      4.9145975240     7.0936155120    11.2500000000
Ni      3.6859497520     0.7093615510    11.2500000000
Ni      4.9145990100     2.8374462050    11.2500000000
Ni      6.1432482670     4.9655308580    11.2500000000
Ni      7.3718975240     7.0936155120    11.2500000000
Ni      6.1432497520     0.7093615510    11.2500000000
Ni      7.3718990100     2.8374462050    11.2500000000
Ni      8.6005482670     4.9655308580    11.2500000000
Ni      9.8291975240     7.0936155120    11.2500000000
Ni      8.6005497520     0.7093615510    11.2500000000
Ni      9.8291990100     2.8374462050    11.2500000000
Ni     11.0578482670     4.9655308580    11.2500000000
Ni     12.2864975240     7.0936155120    11.2500000000
Ni      4.9099156437     8.5053429943    13.3011714153
Ni     11.0531329444     2.1206495289    13.3008022987
Ni     12.2817169742     4.2489790338    13.3006009374
Ni     13.5101985337     6.3773433495    13.3009431249
Ni      7.3672568657     8.5047181049    13.3011773704
Ni      3.6813642393     2.1207834059    13.3007249916
Ni      4.9098915811     4.2493198243    13.3009122649
Ni      6.1382079689     6.3774560515    13.3011135672
Ni      9.8241033231     8.5046823230    13.3010832757
Ni      6.1383369811     2.1207818053    13.3007715317
Ni      7.3668809572     4.2490234566    13.3008058444
Ni      8.5953896190     6.3767159329    13.3009510356
Ni     12.2816608155     8.5051500050    13.3006064561
Ni      8.5958456854     2.1206091639    13.3010363913
Ni      9.8244550653     4.2487038258    13.3007275536
Ni     11.0528529681     6.3769409810    13.3006612510
Cu      2.4478273934     1.4024593494    15.3768195279
Cu      3.6763308064     3.5307008763    15.3768060769
Cu      4.9041378635     5.6597275327    15.3773446705
Cu      6.1330260753     7.7878909917    15.3784795762
Cu      4.9046987935     1.4026027494    15.3777978376
Cu      6.1325026874     3.5313494179    15.3777258642
Cu      7.3610720821     5.6598451508    15.3779275454
Cu      8.5906751573     7.7868955285    15.3785352684
Cu      7.3621786350     1.4037478132    15.3762149869
Cu      8.5904727219     3.5321453649    15.3780682333
Cu      9.8190628607     5.6596863340    15.3769316566
Cu     11.0487962789     7.7874997913    15.3777155251
Cu      9.8196454140     1.4041813301    15.3774701118
Cu     11.0479045226     3.5315147301    15.3771972946
Cu     12.2765483612     5.6595853029    15.3771297580
Cu     13.5054403737     7.7883030906    15.3772812510
Cu      1.2140125069     0.6836802978    17.5697066843
Cu      2.4431554841     2.8116125733    17.5665701774
Cu      3.6705110992     4.9384343223    17.5687388932
Cu      4.8988742137     7.0688538724    17.5715927895
Cu      3.6716454968     0.6829118358    17.5713988441
Cu      4.8981418591     2.8112416660    17.5722076345
Cu      6.1274353446     4.9410331950    17.5708266735
Cu      7.3554752239     7.0698227976    17.5713298575
Cu      6.1297077273     0.6833063413    17.5689100863
Cu      7.3567237634     2.8135682210    17.5698798542
Cu      8.5851063566     4.9421568871    17.5702369002
Cu      9.8152975501     7.0699596346    17.5700617894
Cu      8.5865082002     0.6855772246    17.5667967617
Cu      9.8144914731     2.8135456226    17.5749497456
Cu     11.0427692105     4.9416447890    17.5690865385
Cu     12.2728600097     7.0692517504    17.5719745895
O       9.1694542026     3.6828016604    21.6666439272
O       8.5762313606     4.9577393072    19.5333182400
O       8.6582772310     5.0357755370    24.1519339106
C       8.7045213061     5.0396218573    21.7920218267
C       9.1686295293     5.7796892748    20.5550499559
C       9.1648143485     5.7341864009    23.0305917734
H       7.6106545566     4.9631318475    21.7218809051
H      10.2802032254     5.8098350658    20.4423326423
H       8.7743763473     6.7993761860    20.4059048355
H       8.8163150229     6.7840026522    22.9840325586
H      10.2718457713     5.7412384545    22.9893571148
H      10.1372055322     3.7111290780    21.7012710041
H       9.0249881660     4.0715714903    19.5206549728
H       9.0029155129     5.4930219760    24.9301750058
O       4.9223376637     2.8540231679    19.4388999650
H       4.9176542256     2.8332808841    20.4118407099
80
Step 6 | ATOMIC_POSITIONS (angstrom) | Cartesian Angstrom
Ni      1.2286497520     0.7093615510    11.2500000000
Ni      2.4572990100     2.8374462050    11.2500000000
Ni      3.6859482670     4.9655308580    11.2500000000
Ni      4.9145975240     7.0936155120    11.2500000000
Ni      3.6859497520     0.7093615510    11.2500000000
Ni      4.9145990100     2.8374462050    11.2500000000
Ni      6.1432482670     4.9655308580    11.2500000000
Ni      7.3718975240     7.0936155120    11.2500000000
Ni      6.1432497520     0.7093615510    11.2500000000
Ni      7.3718990100     2.8374462050    11.2500000000
Ni      8.6005482670     4.9655308580    11.2500000000
Ni      9.8291975240     7.0936155120    11.2500000000
Ni      8.6005497520     0.7093615510    11.2500000000
Ni      9.8291990100     2.8374462050    11.2500000000
Ni     11.0578482670     4.9655308580    11.2500000000
Ni     12.2864975240     7.0936155120    11.2500000000
Ni      4.9099156437     8.5053429943    13.3011714153
Ni     11.0531329444     2.1206495289    13.3008022987
Ni     12.2817169742     4.2489790338    13.3006009374
Ni     13.5101985337     6.3773433495    13.3009431249
Ni      7.3672568657     8.5047181049    13.3011773704
Ni      3.6813642393     2.1207834059    13.3007249916
Ni      4.9098915811     4.2493198243    13.3009122649
Ni      6.1382079689     6.3774560515    13.3011135672
Ni      9.8241033231     8.5046823230    13.3010832757
Ni      6.1383369811     2.1207818053    13.3007715317
Ni      7.3668809572     4.2490234566    13.3008058444
Ni      8.5953896190     6.3767159329    13.3009510356
Ni     12.2816608155     8.5051500050    13.3006064561
Ni      8.5958456854     2.1206091639    13.3010363913
Ni      9.8244550653     4.2487038258    13.3007275536
Ni     11.0528529681     6.3769409810    13.3006612510
Cu      2.4478273934     1.4024593494    15.3768195279
Cu      3.6763308064     3.5307008763    15.3768060769
Cu      4.9041378635     5.6597275327    15.3773446705
Cu      6.1330260753     7.7878909917    15.3784795762
Cu      4.9046987935     1.4026027494    15.3777978376
Cu      6.1325026874     3.5313494179    15.3777258642
Cu      7.3610720821     5.6598451508    15.3779275454
Cu      8.5906751573     7.7868955285    15.3785352684
Cu      7.3621786350     1.4037478132    15.3762149869
Cu      8.5904727219     3.5321453649    15.3780682333
Cu      9.8190628607     5.6596863340    15.3769316566
Cu     11.0487962789     7.7874997913    15.3777155251
Cu      9.8196454140     1.4041813301    15.3774701118
Cu     11.0479045226     3.5315147301    15.3771972946
Cu     12.2765483612     5.6595853029    15.3771297580
Cu     13.5054403737     7.7883030906    15.3772812510
Cu      1.2140125069     0.6836802978    17.5697066843
Cu      2.4431554841     2.8116125733    17.5665701774
Cu      3.6705110992     4.9384343223    17.5687388932
Cu      4.8988742137     7.0688538724    17.5715927895
Cu      3.6716454968     0.6829118358    17.5713988441
Cu      4.8981418591     2.8112416660    17.5722076345
Cu      6.1274353446     4.9410331950    17.5708266735
Cu      7.3554752239     7.0698227976    17.5713298575
Cu      6.1297077273     0.6833063413    17.5689100863
Cu      7.3567237634     2.8135682210    17.5698798542
Cu      8.5851063566     4.9421568871    17.5702369002
Cu      9.8152975501     7.0699596346    17.5700617894
Cu      8.5865082002     0.6855772246    17.5667967617
Cu      9.8144914731     2.8135456226    17.5749497456
Cu     11.0427692105     4.9416447890    17.5690865385
Cu     12.2728600097     7.0692517504    17.5719745895
O       9.1663343307     3.6861186995    21.6776710798
O       8.5611834762     4.9414515830    19.5495933056
O       8.6584596150     5.0421290108    24.1683422711
C       8.7153707374     5.0447440547    21.7991653792
C       9.1632859543     5.7720101383    20.5524256804
C       9.1703927753     5.7351560959    23.0408522848
H       7.6195154920     4.9675233638    21.7359345325
H      10.2726111573     5.8198765612    20.4553579740
H       8.7758163035     6.7934156516    20.4156554162
H       8.8191339410     6.7824986531    22.9835130372
H      10.2760069590     5.7493782828    22.9978690221
H      10.1484519075     3.6968648688    21.7098896382
H       9.0204550389     4.0635067031    19.5803395707
H       8.9983507165     5.4875400871    24.9552398121
O       4.9240062917     2.8596517541    19.4698647279
H       4.9192763753     2.8314261383    20.4387488596
80
Step 7 | ATOMIC_POSITIONS (angstrom) | Cartesian Angstrom
Ni      1.2286497520     0.7093615510    11.2500000000
Ni      2.4572990100     2.8374462050    11.2500000000
Ni      3.6859482670     4.9655308580    11.2500000000
Ni      4.9145975240     7.0936155120    11.2500000000
Ni      3.6859497520     0.7093615510    11.2500000000
Ni      4.9145990100     2.8374462050    11.2500000000
Ni      6.1432482670     4.9655308580    11.2500000000
Ni      7.3718975240     7.0936155120    11.2500000000
Ni      6.1432497520     0.7093615510    11.2500000000
Ni      7.3718990100     2.8374462050    11.2500000000
Ni      8.6005482670     4.9655308580    11.2500000000
Ni      9.8291975240     7.0936155120    11.2500000000
Ni      8.6005497520     0.7093615510    11.2500000000
Ni      9.8291990100     2.8374462050    11.2500000000
Ni     11.0578482670     4.9655308580    11.2500000000
Ni     12.2864975240     7.0936155120    11.2500000000
Ni      4.9099156437     8.5053429943    13.3011714153
Ni     11.0531329444     2.1206495289    13.3008022987
Ni     12.2817169742     4.2489790338    13.3006009374
Ni     13.5101985337     6.3773433495    13.3009431249
Ni      7.3672568657     8.5047181049    13.3011773704
Ni      3.6813642393     2.1207834059    13.3007249916
Ni      4.9098915811     4.2493198243    13.3009122649
Ni      6.1382079689     6.3774560515    13.3011135672
Ni      9.8241033231     8.5046823230    13.3010832757
Ni      6.1383369811     2.1207818053    13.3007715317
Ni      7.3668809572     4.2490234566    13.3008058444
Ni      8.5953896190     6.3767159329    13.3009510356
Ni     12.2816608155     8.5051500050    13.3006064561
Ni      8.5958456854     2.1206091639    13.3010363913
Ni      9.8244550653     4.2487038258    13.3007275536
Ni     11.0528529681     6.3769409810    13.3006612510
Cu      2.4478273934     1.4024593494    15.3768195279
Cu      3.6763308064     3.5307008763    15.3768060769
Cu      4.9041378635     5.6597275327    15.3773446705
Cu      6.1330260753     7.7878909917    15.3784795762
Cu      4.9046987935     1.4026027494    15.3777978376
Cu      6.1325026874     3.5313494179    15.3777258642
Cu      7.3610720821     5.6598451508    15.3779275454
Cu      8.5906751573     7.7868955285    15.3785352684
Cu      7.3621786350     1.4037478132    15.3762149869
Cu      8.5904727219     3.5321453649    15.3780682333
Cu      9.8190628607     5.6596863340    15.3769316566
Cu     11.0487962789     7.7874997913    15.3777155251
Cu      9.8196454140     1.4041813301    15.3774701118
Cu     11.0479045226     3.5315147301    15.3771972946
Cu     12.2765483612     5.6595853029    15.3771297580
Cu     13.5054403737     7.7883030906    15.3772812510
Cu      1.2140125069     0.6836802978    17.5697066843
Cu      2.4431554841     2.8116125733    17.5665701774
Cu      3.6705110992     4.9384343223    17.5687388932
Cu      4.8988742137     7.0688538724    17.5715927895
Cu      3.6716454968     0.6829118358    17.5713988441
Cu      4.8981418591     2.8112416660    17.5722076345
Cu      6.1274353446     4.9410331950    17.5708266735
Cu      7.3554752239     7.0698227976    17.5713298575
Cu      6.1297077273     0.6833063413    17.5689100863