80
Step 1 | ATOMIC_POSITIONS (angstrom) | Cartesian Angstrom
Ni      1.2286497520     0.7093615510    11.2500000000
Ni      2.4572990100     2.8374462050    11.2500000000
Ni      3.6859482670     4.9655308580    11.2500000000
Ni      4.9145975240     7.0936155120    11.2500000000
Ni      3.6859497520     0.7093615510    11.2500000000
Ni      4.9145990100     2.8374462050    11.2500000000
Ni      6.1432482670     4.9655308580    11.2500000000
Ni      7.3718975240     7.0936155120    11.2500000000
Ni      6.1432497520     0.7093615510    11.2500000000
Ni      7.3718990100     2.8374462050    11.2500000000
Ni      8.6005482670     4.9655308580    11.2500000000
Ni      9.8291975240     7.0936155120    11.2500000000
Ni      8.6005497520     0.7093615510    11.2500000000
Ni      9.8291990100     2.8374462050    11.2500000000
Ni     11.0578482670     4.9655308580    11.2500000000
Ni     12.2864975240     7.0936155120    11.2500000000
Ni     14.7391156440     8.5053429940    13.3011714150
Ni     11.0531329440     2.1206495290    13.3008022990
Ni     12.2817169740     4.2489790340    13.3006009370
Ni     13.5101985340     6.3773433500    13.3009431250
Ni      7.3672568660     8.5047181050    13.3011773700
Ni      3.6813642390     2.1207834060    13.3007249920
Ni      4.9098915810     4.2493198240    13.3009122650
Ni      6.1382079690     6.3774560510    13.3011135670
Ni      9.8241033230     8.5046823230    13.3010832760
Ni      6.1383369810     2.1207818050    13.3007715320
Ni      7.3668809570     4.2490234570    13.3008058440
Ni      8.5953896190     6.3767159330    13.3009510360
Ni     12.2816608160     8.5051500050    13.3006064560
Ni      8.5958456850     2.1206091640    13.3010363910
Ni      9.8244550650     4.2487038260    13.3007275540
Ni     11.0528529680     6.3769409810    13.3006612510
Cu      2.4478273930     1.4024593490    15.3768195280
Cu      3.6763308060     3.5307008760    15.3768060770
Cu      4.9041378630     5.6597275330    15.3773446700
Cu      6.1330260750     7.7878909920    15.3784795760
Cu      4.9046987940     1.4026027490    15.3777978380
Cu      6.1325026870     3.5313494180    15.3777258640
Cu      7.3610720820     5.6598451510    15.3779275450
Cu      8.5906751570     7.7868955290    15.3785352680
Cu      7.3621786350     1.4037478130    15.3762149870
Cu      8.5904727220     3.5321453650    15.3780682330
Cu      9.8190628610     5.6596863340    15.3769316570
Cu     11.0489114770     7.7874997910    15.3777155250
Cu      9.8196454140     1.4041813300    15.3774701120
Cu     11.0479045230     3.5315147300    15.3771972950
Cu     12.2765483610     5.6595853030    15.3771297580
Cu     13.5054403740     7.7883030910    15.3772812510
Cu      1.2140125070     0.6836802980    17.5697066840
Cu      2.4431554840     2.8116125730    17.5665701770
Cu      3.6705110990     4.9384343220    17.5687388930
Cu      4.8988742140     7.0688538720    17.5715927900
Cu      3.6716454970     0.6829118360    17.5713988440
Cu      4.8981418590     2.8112416660    17.5722076350
Cu      6.1274353450     4.9410331950    17.5708266730
Cu      7.3554752240     7.0698227980    17.5713298580
Cu      6.1297077270     0.6833063410    17.5689100860
Cu      7.3567237630     2.8135682210    17.5698798540
Cu      8.5851063570     4.9421568870    17.5702369000
Cu      9.8152975500     7.0699596350    17.5700617890
Cu      8.5865082000     0.6855772250    17.5667967620
Cu      9.8144914730     2.8135456230    17.5749497460
Cu     11.0427692100     4.9416447890    17.5690865390
Cu     12.2728600100     7.0692517500    17.5719745900
O       4.8369206072     2.8917136673    21.6770907466
O       6.1697736904     3.5098072199    19.3194532897
O       6.1359502876     3.4953473032    24.1246555704
C       6.1384863866     3.4870166752    21.7146293800
C       6.8992439941     3.0832400344    20.4745907991
C       6.8717770758     3.0761985593    22.9763721122
H       5.9582225955     4.5891531161    21.7097455560
H       7.0073100819     1.9861419310    20.4020962834
H       7.8800756449     3.5432174077    20.3996999080
H       7.8782163252     3.5095278804    23.0079385338
H       6.9568618903     1.9701467159    23.0080868525
H       4.9802842022     1.9213427387    21.6864789278
H       5.2419934807     3.0684130257    19.3804466805
H       6.6404440133     3.1942895411    24.8978072591
O       2.4337816021     1.3949071954    19.2010932343
H       2.4336562124     1.3972139631    20.1904639698
80
Step 2 | ATOMIC_POSITIONS (angstrom) | Cartesian Angstrom
Ni      1.2286497520     0.7093615510    11.2500000000
Ni      2.4572990100     2.8374462050    11.2500000000
Ni      3.6859482670     4.9655308580    11.2500000000
Ni      4.9145975240     7.0936155120    11.2500000000
Ni      3.6859497520     0.7093615510    11.2500000000
Ni      4.9145990100     2.8374462050    11.2500000000
Ni      6.1432482670     4.9655308580    11.2500000000
Ni      7.3718975240     7.0936155120    11.2500000000
Ni      6.1432497520     0.7093615510    11.2500000000
Ni      7.3718990100     2.8374462050    11.2500000000
Ni      8.6005482670     4.9655308580    11.2500000000
Ni      9.8291975240     7.0936155120    11.2500000000
Ni      8.6005497520     0.7093615510    11.2500000000
Ni      9.8291990100     2.8374462050    11.2500000000
Ni     11.0578482670     4.9655308580    11.2500000000
Ni     12.2864975240     7.0936155120    11.2500000000
Ni     14.7391156440     8.5053429940    13.3011714150
Ni     11.0531329440     2.1206495290    13.3008022990
Ni     12.2817169740     4.2489790340    13.3006009370
Ni     13.5101985340     6.3773433500    13.3009431250
Ni      7.3672568660     8.5047181050    13.3011773700
Ni      3.6813642390     2.1207834060    13.3007249920
Ni      4.9098915810     4.2493198240    13.3009122650
Ni      6.1382079690     6.3774560510    13.3011135670
Ni      9.8241033230     8.5046823230    13.3010832760
Ni      6.1383369810     2.1207818050    13.3007715320
Ni      7.3668809570     4.2490234570    13.3008058440
Ni      8.5953896190     6.3767159330    13.3009510360
Ni     12.2816608160     8.5051500050    13.3006064560
Ni      8.5958456850     2.1206091640    13.3010363910
Ni      9.8244550650     4.2487038260    13.3007275540
Ni     11.0528529680     6.3769409810    13.3006612510
Cu      2.4478273930     1.4024593490    15.3768195280
Cu      3.6763308060     3.5307008760    15.3768060770
Cu      4.9041378630     5.6597275330    15.3773446700
Cu      6.1330260750     7.7878909920    15.3784795760
Cu      4.9046987940     1.4026027490    15.3777978380
Cu      6.1325026870     3.5313494180    15.3777258640
Cu      7.3610720820     5.6598451510    15.3779275450
Cu      8.5906751570     7.7868955290    15.3785352680
Cu      7.3621786350     1.4037478130    15.3762149870
Cu      8.5904727220     3.5321453650    15.3780682330
Cu      9.8190628610     5.6596863340    15.3769316570
Cu     11.0489114770     7.7874997910    15.3777155250
Cu      9.8196454140     1.4041813300    15.3774701120
Cu     11.0479045230     3.5315147300    15.3771972950
Cu     12.2765483610     5.6595853030    15.3771297580
Cu     13.5054403740     7.7883030910    15.3772812510
Cu      1.2140125070     0.6836802980    17.5697066840
Cu      2.4431554840     2.8116125730    17.5665701770
Cu      3.6705110990     4.9384343220    17.5687388930
Cu      4.8988742140     7.0688538720    17.5715927900
Cu      3.6716454970     0.6829118360    17.5713988440
Cu      4.8981418590     2.8112416660    17.5722076350
Cu      6.1274353450     4.9410331950    17.5708266730
Cu      7.3554752240     7.0698227980    17.5713298580
Cu      6.1297077270     0.6833063410    17.5689100860
Cu      7.3567237630     2.8135682210    17.5698798540
Cu      8.5851063570     4.9421568870    17.5702369000
Cu      9.8152975500     7.0699596350    17.5700617890
Cu      8.5865082000     0.6855772250    17.5667967620
Cu      9.8144914730     2.8135456230    17.5749497460
Cu     11.0427692100     4.9416447890    17.5690865390
Cu     12.2728600100     7.0692517500    17.5719745900
O       4.8264036778     2.8871751496    21.6689211759
O       6.1647819734     3.5213949491    19.3416881478
O       6.1307323200     3.5020599411    24.1289058565
C       6.1345092621     3.4855998503    21.7278849562
C       6.9111565334     3.0782837224    20.4965314222
C       6.8731272977     3.0737645427    22.9874328318
H       5.9601760343     4.5789368092    21.7104968494
H       7.0128855827     1.9835868515    20.4074331308
H       7.8889979682     3.5468904367    20.3969890468
H       7.8888876601     3.5107973675    23.0001627932
H       6.9623120126     1.9668106061    22.9982195575
H       4.9758941212     1.9248669684    21.6886386977
H       5.2384675411     3.0753810072    19.3977398000
H       6.6369616626     3.1967217993    24.8995858269
O       2.4329088143     1.3927405478    19.1835474061
H       2.4328089274     1.3986665044    20.1679002584
80
Step 3 | ATOMIC_POSITIONS (angstrom) | Cartesian Angstrom
Ni      1.2286497520     0.7093615510    11.2500000000
Ni      2.4572990100     2.8374462050    11.2500000000
Ni      3.6859482670     4.9655308580    11.2500000000
Ni      4.9145975240     7.0936155120    11.2500000000
Ni      3.6859497520     0.7093615510    11.2500000000
Ni      4.9145990100     2.8374462050    11.2500000000
Ni      6.1432482670     4.9655308580    11.2500000000
Ni      7.3718975240     7.0936155120    11.2500000000
Ni      6.1432497520     0.7093615510    11.2500000000
Ni      7.3718990100     2.8374462050    11.2500000000
Ni      8.6005482670     4.9655308580    11.2500000000
Ni      9.8291975240     7.0936155120    11.2500000000
Ni      8.6005497520     0.7093615510    11.2500000000
Ni      9.8291990100     2.8374462050    11.2500000000
Ni     11.0578482670     4.9655308580    11.2500000000
Ni     12.2864975240     7.0936155120    11.2500000000
Ni     14.7391156440     8.5053429940    13.3011714150
Ni     11.0531329440     2.1206495290    13.3008022990
Ni     12.2817169740     4.2489790340    13.3006009370
Ni     13.5101985340     6.3773433500    13.3009431250
Ni      7.3672568660     8.5047181050    13.3011773700
Ni      3.6813642390     2.1207834060    13.3007249920
Ni      4.9098915810     4.2493198240    13.3009122650
Ni      6.1382079690     6.3774560510    13.3011135670
Ni      9.8241033230     8.5046823230    13.3010832760
Ni      6.1383369810     2.1207818050    13.3007715320
Ni      7.3668809570     4.2490234570    13.3008058440
Ni      8.5953896190     6.3767159330    13.3009510360
Ni     12.2816608160     8.5051500050    13.3006064560
Ni      8.5958456850     2.1206091640    13.3010363910
Ni      9.8244550650     4.2487038260    13.3007275540
Ni     11.0528529680     6.3769409810    13.3006612510
Cu      2.4478273930     1.4024593490    15.3768195280
Cu      3.6763308060     3.5307008760    15.3768060770
Cu      4.9041378630     5.6597275330    15.3773446700
Cu      6.1330260750     7.7878909920    15.3784795760
Cu      4.9046987940     1.4026027490    15.3777978380
Cu      6.1325026870     3.5313494180    15.3777258640
Cu      7.3610720820     5.6598451510    15.3779275450
Cu      8.5906751570     7.7868955290    15.3785352680
Cu      7.3621786350     1.4037478130    15.3762149870
Cu      8.5904727220     3.5321453650    15.3780682330
Cu      9.8190628610     5.6596863340    15.3769316570
Cu     11.0489114770     7.7874997910    15.3777155250
Cu      9.8196454140     1.4041813300    15.3774701120
Cu     11.0479045230     3.5315147300    15.3771972950
Cu     12.2765483610     5.6595853030    15.3771297580
Cu     13.5054403740     7.7883030910    15.3772812510
Cu      1.2140125070     0.6836802980    17.5697066840
Cu      2.4431554840     2.8116125730    17.5665701770
Cu      3.6705110990     4.9384343220    17.5687388930
Cu      4.8988742140     7.0688538720    17.5715927900
Cu      3.6716454970     0.6829118360    17.5713988440
Cu      4.8981418590     2.8112416660    17.5722076350
Cu      6.1274353450     4.9410331950    17.5708266730
Cu      7.3554752240     7.0698227980    17.5713298580
Cu      6.1297077270     0.6833063410    17.5689100860
Cu      7.3567237630     2.8135682210    17.5698798540
Cu      8.5851063570     4.9421568870    17.5702369000
Cu      9.8152975500     7.0699596350    17.5700617890
Cu      8.5865082000     0.6855772250    17.5667967620
Cu      9.8144914730     2.8135456230    17.5749497460
Cu     11.0427692100     4.9416447890    17.5690865390
Cu     12.2728600100     7.0692517500    17.5719745900
O       4.8199032845     2.8881731165    21.6613761907
O       6.1573985458     3.5300109161    19.3674191382
O       6.1293734748     3.5065381449    24.1335500363
C       6.1323043687     3.4802029317    21.7405639677
C       6.9183827561     3.0763079302    20.5125506783
C       6.8738688651     3.0733307850    22.9965305404
H       5.9613674276     4.5706944665    21.7122419755
H       7.0196995639     1.9805496024    20.4140934137
H       7.8981694419     3.5501182507    20.3964795953
H       7.8954390856     3.5105072687    22.9928379852
H       6.9679650043     1.9643591108    22.9900829622
H       4.9707958373     1.9232763215    21.6911726717
H       5.2394428918     3.0855232207    19.4173405044
H       6.6320533549     3.2000103674    24.9030210314
O       2.4318914535     1.3903366362    19.1617644947
H       2.4318743834     1.4003210161    20.1451752378
80
Step 4 | ATOMIC_POSITIONS (angstrom) | Cartesian Angstrom
Ni      1.2286497520     0.7093615510    11.2500000000
Ni      2.4572990100     2.8374462050    11.2500000000
Ni      3.6859482670     4.9655308580    11.2500000000
Ni      4.9145975240     7.0936155120    11.2500000000
Ni      3.6859497520     0.7093615510    11.2500000000
Ni      4.9145990100     2.8374462050    11.2500000000
Ni      6.1432482670     4.9655308580    11.2500000000
Ni      7.3718975240     7.0936155120    11.2500000000
Ni      6.1432497520     0.7093615510    11.2500000000
Ni      7.3718990100     2.8374462050    11.2500000000
Ni      8.6005482670     4.9655308580    11.2500000000
Ni      9.8291975240     7.0936155120    11.2500000000
Ni      8.6005497520     0.7093615510    11.2500000000
Ni      9.8291990100     2.8374462050    11.2500000000
Ni     11.0578482670     4.9655308580    11.2500000000
Ni     12.2864975240     7.0936155120    11.2500000000
Ni     14.7391156440     8.5053429940    13.3011714150
Ni     11.0531329440     2.1206495290    13.3008022990
Ni     12.2817169740     4.2489790340    13.3006009370
Ni     13.5101985340     6.3773433500    13.3009431250
Ni      7.3672568660     8.5047181050    13.3011773700
Ni      3.6813642390     2.1207834060    13.3007249920
Ni      4.9098915810     4.2493198240    13.3009122650
Ni      6.1382079690     6.3774560510    13.3011135670
Ni      9.8241033230     8.5046823230    13.3010832760
Ni      6.1383369810     2.1207818050    13.3007715320
Ni      7.3668809570     4.2490234570    13.3008058440
Ni      8.5953896190     6.3767159330    13.3009510360
Ni     12.2816608160     8.5051500050    13.3006064560
Ni      8.5958456850     2.1206091640    13.3010363910
Ni      9.8244550650     4.2487038260    13.3007275540
Ni     11.0528529680     6.3769409810    13.3006612510
Cu      2.4478273930     1.4024593490    15.3768195280
Cu      3.6763308060     3.5307008760    15.3768060770
Cu      4.9041378630     5.6597275330    15.3773446700
Cu      6.1330260750     7.7878909920    15.3784795760
Cu      4.9046987940     1.4026027490    15.3777978380
Cu      6.1325026870     3.5313494180    15.3777258640
Cu      7.3610720820     5.6598451510    15.3779275450
Cu      8.5906751570     7.7868955290    15.3785352680
Cu      7.3621786350     1.4037478130    15.3762149870
Cu      8.5904727220     3.5321453650    15.3780682330
Cu      9.8190628610     5.6596863340    15.3769316570
Cu     11.0489114770     7.7874997910    15.3777155250
Cu      9.8196454140     1.4041813300    15.3774701120
Cu     11.0479045230     3.5315147300    15.3771972950
Cu     12.2765483610     5.6595853030    15.3771297580
Cu     13.5054403740     7.7883030910    15.3772812510
Cu      1.2140125070     0.6836802980    17.5697066840
Cu      2.4431554840     2.8116125730    17.5665701770
Cu      3.6705110990     4.9384343220    17.5687388930
Cu      4.8988742140     7.0688538720    17.5715927900
Cu      3.6716454970     0.6829118360    17.5713988440
Cu      4.8981418590     2.8112416660    17.5722076350
Cu      6.1274353450     4.9410331950    17.5708266730
Cu      7.3554752240     7.0698227980    17.5713298580
Cu      6.1297077270     0.6833063410    17.5689100860
Cu      7.3567237630     2.8135682210    17.5698798540
Cu      8.5851063570     4.9421568870    17.5702369000
Cu      9.8152975500     7.0699596350    17.5700617890
Cu      8.5865082000     0.6855772250    17.5667967620
Cu      9.8144914730     2.8135456230    17.5749497460
Cu     11.0427692100     4.9416447890    17.5690865390
Cu     12.2728600100     7.0692517500    17.5719745900
O       4.8157219568     2.8841125219    21.6522046723
O       6.1484498209     3.5435209327    19.4063649433
O       6.1298201739     3.5119257875    24.1387847924
C       6.1318204592     3.4741290495    21.7569012927
C       6.9275824729     3.0742137948    20.5311186372
C       6.8746535393     3.0711798382    23.0079212042
H       5.9629049350     4.5590170141    21.7167123855
H       7.0314471088     1.9775584274    20.4258569996
H       7.9088523941     3.5533039271    20.3991069482
H       7.9004260838     3.5087280023    22.9827449157
H       6.9766381343     1.9629176041    22.9811806201
H       4.9599773450     1.9242123142    21.6953665419
H       5.2409091982     3.1022248439    19.4516581682
H       6.6249951257     3.2047780495    24.9134440862
O       2.4302088725     1.3864643149    19.1274612776
H       2.4303174932     1.4030860844    20.1070867702
80
Step 5 | ATOMIC_POSITIONS (angstrom) | Cartesian Angstrom
Ni      1.2286497520     0.7093615510    11.2500000000
Ni      2.4572990100     2.8374462050    11.2500000000
Ni      3.6859482670     4.9655308580    11.2500000000
Ni      4.9145975240     7.0936155120    11.2500000000
Ni      3.6859497520     0.7093615510    11.2500000000
Ni      4.9145990100     2.8374462050    11.2500000000
Ni      6.1432482670     4.9655308580    11.2500000000
Ni      7.3718975240     7.0936155120    11.2500000000
Ni      6.1432497520     0.7093615510    11.2500000000
Ni      7.3718990100     2.8374462050    11.2500000000
Ni      8.6005482670     4.9655308580    11.2500000000
Ni      9.8291975240     7.0936155120    11.2500000000
Ni      8.6005497520     0.7093615510    11.2500000000
Ni      9.8291990100     2.8374462050    11.2500000000
Ni     11.0578482670     4.9655308580    11.2500000000
Ni     12.2864975240     7.0936155120    11.2500000000
Ni     14.7391156440     8.5053429940    13.3011714150
Ni     11.0531329440     2.1206495290    13.3008022990
Ni     12.2817169740     4.2489790340    13.3006009370
Ni     13.5101985340     6.3773433500    13.3009431250
Ni      7.3672568660     8.5047181050    13.3011773700
Ni      3.6813642390     2.1207834060    13.3007249920
Ni      4.9098915810     4.2493198240    13.3009122650
Ni      6.1382079690     6.3774560510    13.3011135670
Ni      9.8241033230     8.5046823230    13.3010832760
Ni      6.1383369810     2.1207818050    13.3007715320
Ni      7.3668809570     4.2490234570    13.3008058440
Ni      8.5953896190     6.3767159330    13.3009510360
Ni     12.2816608160     8.5051500050    13.3006064560
Ni      8.5958456850     2.1206091640    13.3010363910
Ni      9.8244550650     4.2487038260    13.3007275540
Ni     11.0528529680     6.3769409810    13.3006612510
Cu      2.4478273930     1.4024593490    15.3768195280
Cu      3.6763308060     3.5307008760    15.3768060770
Cu      4.9041378630     5.6597275330    15.3773446700
Cu      6.1330260750     7.7878909920    15.3784795760
Cu      4.9046987940     1.4026027490    15.3777978380
Cu      6.1325026870     3.5313494180    15.3777258640
Cu      7.3610720820     5.6598451510    15.3779275450
Cu      8.5906751570     7.7868955290    15.3785352680
Cu      7.3621786350     1.4037478130    15.3762149870
Cu      8.5904727220     3.5321453650    15.3780682330
Cu      9.8190628610     5.6596863340    15.3769316570
Cu     11.0489114770     7.7874997910    15.3777155250
Cu      9.8196454140     1.4041813300    15.3774701120
Cu     11.0479045230     3.5315147300    15.3771972950
Cu     12.2765483610     5.6595853030    15.3771297580
Cu     13.5054403740     7.7883030910    15.3772812510
Cu      1.2140125070     0.6836802980    17.5697066840
Cu      2.4431554840     2.8116125730    17.5665701770
Cu      3.6705110990     4.9384343220    17.5687388930
Cu      4.8988742140     7.0688538720    17.5715927900
Cu      3.6716454970     0.6829118360    17.5713988440
Cu      4.8981418590     2.8112416660    17.5722076350
Cu      6.1274353450     4.9410331950    17.5708266730
Cu      7.3554752240     7.0698227980    17.5713298580
Cu      6.1297077270     0.6833063410    17.5689100860
Cu      7.3567237630     2.8135682210    17.5698798540
Cu      8.5851063570     4.9421568870    17.5702369000
Cu      9.8152975500     7.0699596350    17.5700617890
Cu      8.5865082000     0.6855772250    17.5667967620
Cu      9.8144914730     2.8135456230    17.5749497460
Cu     11.0427692100     4.9416447890    17.5690865390
Cu     12.2728600100     7.0692517500    17.5719745900
O       4.8149565623     2.8846473310    21.6419455862
O       6.1369122471     3.5645959649    19.4585812339
O       6.1354010641     3.5166080311    24.1497407139
C       6.1341933077     3.4653620559    21.7764556503
C       6.9393633097     3.0717022860    20.5540322797
C       6.8757589976     3.0661131554    23.0211946326
H       5.9644458547     4.5438260354    21.7261528169
H       7.0504933931     1.9759118472    20.4450008876
H       7.9211541505     3.5561828535    20.4081581595
H       7.9026012769     3.5050748727    22.9698850801
H       6.9894070739     1.9621705728    22.9737603657
H       4.9426444528     1.9172517454    21.7028373805
H       5.2430109248     3.1291281121    19.5088892158
H       6.6128713716     3.2129369033    24.9316918999
O       2.4275687409     1.3804879348    19.0736922860
H       2.4277848743     1.4076326963    20.0482199016
80
Step 6 | ATOMIC_POSITIONS (angstrom) | Cartesian Angstrom
Ni      1.2286497520     0.7093615510    11.2500000000
Ni      2.4572990100     2.8374462050    11.2500000000
Ni      3.6859482670     4.9655308580    11.2500000000
Ni      4.9145975240     7.0936155120    11.2500000000
Ni      3.6859497520     0.7093615510    11.2500000000
Ni      4.9145990100     2.8374462050    11.2500000000
Ni      6.1432482670     4.9655308580    11.2500000000
Ni      7.3718975240     7.0936155120    11.2500000000
Ni      6.1432497520     0.7093615510    11.2500000000
Ni      7.3718990100     2.8374462050    11.2500000000
Ni      8.6005482670     4.9655308580    11.2500000000
Ni      9.8291975240     7.0936155120    11.2500000000
Ni      8.6005497520     0.7093615510    11.2500000000
Ni      9.8291990100     2.8374462050    11.2500000000
Ni     11.0578482670     4.9655308580    11.2500000000
Ni     12.2864975240     7.0936155120    11.2500000000
Ni     14.7391156440     8.5053429940    13.3011714150
Ni     11.0531329440     2.1206495290    13.3008022990
Ni     12.2817169740     4.2489790340    13.3006009370
Ni     13.5101985340     6.3773433500    13.3009431250
Ni      7.3672568660     8.5047181050    13.3011773700
Ni      3.6813642390     2.1207834060    13.3007249920
Ni      4.9098915810     4.2493198240    13.3009122650
Ni      6.1382079690     6.3774560510    13.3011135670
Ni      9.8241033230     8.5046823230    13.3010832760
Ni      6.1383369810     2.1207818050    13.3007715320
Ni      7.3668809570     4.2490234570    13.3008058440
Ni      8.5953896190     6.3767159330    13.3009510360
Ni     12.2816608160     8.5051500050    13.3006064560
Ni      8.5958456850     2.1206091640    13.3010363910
Ni      9.8244550650     4.2487038260    13.3007275540
Ni     11.0528529680     6.3769409810    13.3006612510
Cu      2.4478273930     1.4024593490    15.3768195280
Cu      3.6763308060     3.5307008760    15.3768060770
Cu      4.9041378630     5.6597275330    15.3773446700
Cu      6.1330260750     7.7878909920    15.3784795760
Cu      4.9046987940     1.4026027490    15.3777978380
Cu      6.1325026870     3.5313494180    15.3777258640
Cu      7.3610720820     5.6598451510    15.3779275450
Cu      8.5906751570     7.7868955290    15.3785352680
Cu      7.3621786350     1.4037478130    15.3762149870
Cu      8.5904727220     3.5321453650    15.3780682330
Cu      9.8190628610     5.6596863340    15.3769316570
Cu     11.0489114770     7.7874997910    15.3777155250
Cu      9.8196454140     1.4041813300    15.3774701120
Cu     11.0479045230     3.5315147300    15.3771972950
Cu     12.2765483610     5.6595853030    15.3771297580
Cu     13.5054403740     7.7883030910    15.3772812510
Cu      1.2140125070     0.6836802980    17.5697066840
Cu      2.4431554840     2.8116125730    17.5665701770
Cu      3.6705110990     4.9384343220    17.5687388930
Cu      4.8988742140     7.0688538720    17.5715927900
Cu      3.6716454970     0.6829118360    17.5713988440
Cu      4.8981418590     2.8112416660    17.5722076350
Cu      6.1274353450     4.9410331950    17.5708266730
Cu      7.3554752240     7.0698227980    17.5713298580
Cu      6.1297077270     0.6833063410    17.5689100860
Cu      7.3567237630     2.8135682210    17.5698798540
Cu      8.5851063570     4.9421568870    17.5702369000
Cu      9.8152975500     7.0699596350    17.5700617890
Cu      8.5865082000     0.6855772250    17.5667967620
Cu      9.8144914730     2.8135456230    17.5749497460
Cu     11.0427692100     4.9416447890    17.5690865390
Cu     12.2728600100     7.0692517500    17.5719745900
O       4.8207564033     2.8771480811    21.6392165901
O       6.1333004772     3.5813972146    19.4913101415
O       6.1419094967     3.5180104470    24.1554198268
C       6.1397316097     3.4582422757    21.7879087134
C       6.9447724295     3.0739130378    20.5650842220
C       6.8769218587     3.0624834569    23.0299973570
H       5.9654821649     4.5360981562    21.7371210972
H       7.0667048523     1.9764101186    20.4608974486
H       7.9275696094     3.5568374749    20.4217447702
H       7.8986731054     3.5011817812    22.9630901493
H       6.9989795944     1.9607479368    22.9758169390
H       4.9259849939     1.9161460560    21.7096479724
H       5.2422718010     3.1522045249    19.5608148241
H       6.6055109617     3.2180800851    24.9537687156
O       2.4255145856     1.3757800003    19.0301541082
H       2.4254919690     1.4117841815    20.0014601043
80
Step 7 | ATOMIC_POSITIONS (angstrom) | Cartesian Angstrom
Ni      1.2286497520     0.7093615510    11.2500000000
Ni      2.4572990100     2.8374462050    11.2500000000
Ni      3.6859482670     4.9655308580    11.2500000000
Ni      4.9145975240     7.0936155120    11.2500000000
Ni      3.6859497520     0.7093615510    11.2500000000
Ni      4.9145990100     2.8374462050    11.2500000000
Ni      6.1432482670     4.9655308580    11.2500000000
Ni      7.3718975240     7.0936155120    11.2500000000
Ni      6.1432497520     0.7093615510    11.2500000000
Ni      7.3718990100     2.8374462050    11.2500000000
Ni      8.6005482670     4.9655308580    11.2500000000
Ni      9.8291975240     7.0936155120    11.2500000000
Ni      8.6005497520     0.7093615510    11.2500000000
Ni      9.8291990100     2.8374462050    11.2500000000
Ni     11.0578482670     4.9655308580    11.2500000000
Ni     12.2864975240     7.0936155120    11.2500000000
Ni     14.7391156440     8.5053429940    13.3011714150
Ni     11.0531329440     2.1206495290    13.3008022990
Ni     12.2817169740     4.2489790340    13.3006009370
Ni     13.5101985340     6.3773433500    13.3009431250
Ni      7.3672568660     8.5047181050    13.3011773700
Ni      3.6813642390     2.1207834060    13.3007249920
Ni      4.9098915810     4.2493198240    13.3009122650
Ni      6.1382079690     6.3774560510    13.3011135670
Ni      9.8241033230     8.5046823230    13.3010832760
Ni      6.1383369810     2.1207818050    13.3007715320
Ni      7.3668809570     4.2490234570    13.3008058440
Ni      8.5953896190     6.3767159330    13.3009510360
Ni     12.2816608160     8.5051500050    13.3006064560
Ni      8.5958456850     2.1206091640    13.3010363910
Ni      9.8244550650     4.2487038260    13.3007275540
Ni     11.0528529680     6.3769409810    13.3006612510
Cu      2.4478273930     1.4024593490    15.3768195280
Cu      3.6763308060     3.5307008760    15.3768060770
Cu      4.9041378630     5.6597275330    15.3773446700
Cu      6.1330260750     7.7878909920    15.3784795760
Cu      4.9046987940     1.4026027490    15.3777978380
Cu      6.1325026870     3.5313494180    15.3777258640
Cu      7.3610720820     5.6598451510    15.3779275450
Cu      8.5906751570     7.7868955290    15.3785352680
Cu      7.3621786350     1.4037478130    15.3762149870
Cu      8.5904727220     3.5321453650    15.3780682330
Cu      9.8190628610     5.6596863340    15.3769316570
Cu     11.0489114770     7.7874997910    15.3777155250
Cu      9.8196454140     1.4041813300    15.3774701120
Cu     11.0479045230     3.5315147300    15.3771972950
Cu     12.2765483610     5.6595853030    15.3771297580
Cu     13.5054403740     7.7883030910    15.3772812510
Cu      1.2140125070     0.6836802980    17.5697066840
Cu      2.4431554840     2.8116125730    17.5665701770
Cu      3.6705110990     4.9384343220    17.5687388930
Cu      4.8988742140     7.0688538720    17.5715927900
Cu      3.6716454970     0.6829118360    17.5713988440
Cu      4.8981418590     2.8112416660    17.5722076350
Cu      6.1274353450     4.9410331950    17.5708266730
Cu      7.3554752240     7.0698227980    17.5713298580
Cu      6.1297077270     0.6833063410    17.5689100860