80
Step 1 | ATOMIC_POSITIONS (angstrom) | Cartesian Angstrom
Ni      1.2286497524     0.7093615512    11.2500000000
Ni      2.4572990095     2.8374462048    11.2500000000
Ni      3.6859482667     4.9655308584    11.2500000000
Ni      4.9145975239     7.0936155120    11.2500000000
Ni      3.6859497524     0.7093615512    11.2500000000
Ni      4.9145990095     2.8374462048    11.2500000000
Ni      6.1432482667     4.9655308584    11.2500000000
Ni      7.3718975239     7.0936155120    11.2500000000
Ni      6.1432497524     0.7093615512    11.2500000000
Ni      7.3718990095     2.8374462048    11.2500000000
Ni      8.6005482667     4.9655308584    11.2500000000
Ni      9.8291975239     7.0936155120    11.2500000000
Ni      8.6005497524     0.7093615512    11.2500000000
Ni      9.8291990095     2.8374462048    11.2500000000
Ni     11.0578482667     4.9655308584    11.2500000000
Ni     12.2864975239     7.0936155120    11.2500000000
Ni      0.0000788190     0.0003748398    13.2525575394
Ni      1.2280814025     2.1285301203    13.2532293310
Ni      2.4569187956     4.2559167395    13.2530093342
Ni     13.5151373363     6.3841522723    13.2531354123
Ni      2.4564046219    -0.0005655465    13.2540883601
Ni      3.6859467713     2.1292898876    13.2532549638
Ni      4.9150141682     4.2558945139    13.2530284895
Ni      6.1437843324     6.3840392545    13.2535466857
Ni      4.9154883896    -0.0005482177    13.2541166748
Ni      6.1438501619     2.1286112747    13.2533553386
Ni      7.3714058633     4.2561960221    13.2523980211
Ni      8.6004862584     6.3837474691    13.2528496706
Ni      7.3718061352     0.0003452994    13.2525927412
Ni      8.6005384629     2.1281081623    13.2535184578
Ni      9.8296973747     4.2561858054    13.2524848726
Ni     11.0573769407     6.3840597760    13.2533407736
Cu      2.4575442619     1.4185758491    15.2618714703
Cu      3.6859480756     3.5497493662    15.2644168985
Cu      4.9135516521     5.6752964428    15.2597505192
Cu      6.1405295605     7.8016387678    15.2639253428
Cu      4.9143506410     1.4185545284    15.2618303991
Cu      6.1430730241     3.5467783400    15.2623876886
Cu      7.3727021256     5.6747702864    15.2635357278
Cu      8.6005492819     7.8029411856    15.2620280702
Cu      7.3715919678     1.4181007878    15.2615261228
Cu      8.6005671286     3.5479726089    15.2628398244
Cu      9.8286857467     5.6749126624    15.2629048067
Cu     11.0604357702     7.8015149570    15.2638988750
Cu      9.8294462234     1.4180835055    15.2614303247
Cu     11.0579874911     3.5468646748    15.2619472773
Cu     12.2873818230     5.6753364877    15.2597316046
Cu     13.5152117802     7.8021142238    15.2603583432
Cu      1.2299579678     0.7091627453    17.3363070483
Cu      2.4573454665     2.8367786284    17.3365701467
Cu      3.6859047209     4.9401664065    17.3334955274
Cu      4.9368321916     7.1061862116    17.3333102136
Cu      3.6859984144     0.7088998122    17.3362581245
Cu      4.9140994134     2.8366020864    17.3361139636
Cu      6.1460217669     4.9614448341    17.3332302506
Cu      7.3703302001     7.0985909848    17.3332297281
Cu      6.1418408423     0.7089796735    17.3364108521
Cu      7.3705014322     2.8341128901    17.3351521098
Cu      8.5998789040     4.9706622019    17.3221785742
Cu      9.8307772805     7.0988481734    17.3326051680
Cu      8.6006099527     0.7172495230    17.3353927924
Cu      9.8315461269     2.8332159274    17.3339392636
Cu     11.0558107079     4.9611190067    17.3325886292
Cu     12.2640190211     7.1061205986    17.3333970795
O       9.1309033900     3.6123226381    21.7352208510
O       8.6400614013     4.9710208168    19.3771708232
O       8.6432380424     4.9588550318    24.1829392615
C       8.6531452970     4.9611384393    21.7719484874
C       9.1174467737     5.6794235246    20.5167507492
C       9.1243074602     5.6544204210    23.0336392796
H       7.5380781611     4.8768925814    21.7672701214
H      10.2236238083     5.6954684687    20.4609341050
H       8.7473629992     6.7007642651    20.4577512758
H       8.7808648556     6.6954957739    23.0657101244
H      10.2341337902     5.6433899020    23.0659491197
H      10.1101635366     3.6696077781    21.7441937932
H       8.9865944763     4.0441126720    19.4290921022
H       8.9867585546     5.4346676041    24.9554049676
O      13.5148082262     6.3841251607    18.7072073983
H      13.5154555259     6.3842728478    19.6501740907
80
Step 2 | ATOMIC_POSITIONS (angstrom) | Cartesian Angstrom
Ni      1.2286497524     0.7093615512    11.2500000000
Ni      2.4572990095     2.8374462048    11.2500000000
Ni      3.6859482667     4.9655308584    11.2500000000
Ni      4.9145975239     7.0936155120    11.2500000000
Ni      3.6859497524     0.7093615512    11.2500000000
Ni      4.9145990095     2.8374462048    11.2500000000
Ni      6.1432482667     4.9655308584    11.2500000000
Ni      7.3718975239     7.0936155120    11.2500000000
Ni      6.1432497524     0.7093615512    11.2500000000
Ni      7.3718990095     2.8374462048    11.2500000000
Ni      8.6005482667     4.9655308584    11.2500000000
Ni      9.8291975239     7.0936155120    11.2500000000
Ni      8.6005497524     0.7093615512    11.2500000000
Ni      9.8291990095     2.8374462048    11.2500000000
Ni     11.0578482667     4.9655308584    11.2500000000
Ni     12.2864975239     7.0936155120    11.2500000000
Ni      0.0003694153     0.0011276206    13.2445445623
Ni      1.2269498010     2.1293667375    13.2467112248
Ni      2.4562046580     4.2552675224    13.2460629910
Ni     13.5151322601     6.3840108754    13.2460108433
Ni      2.4545030832    -0.0017268451    13.2495999697
Ni      3.6859150690     2.1317956872    13.2470478631
Ni      4.9158110399     4.2552101560    13.2461503801
Ni      6.1450226587     6.3837176638    13.2478097361
Ni      4.9173260136    -0.0016827520    13.2496963410
Ni      6.1450621445     2.1296661642    13.2471544758
Ni      7.3704826245     4.2562830915    13.2443373576
Ni      8.6003306155     6.3826994995    13.2456521072
Ni      7.3715278795     0.0010344522    13.2446804937
Ni      8.6005287833     2.1282579610    13.2477357244
Ni      9.8306329086     4.2562300216    13.2445514407
Ni     11.0562879148     6.3837608730    13.2471069189
Cu      2.4580650717     1.4183039305    15.2613912750
Cu      3.6859144139     3.5553989067    15.2687110878
Cu      4.9112422052     5.6762696376    15.2556607617
Cu      6.1351002976     7.7990585646    15.2669024353
Cu      4.9137903016     1.4182166255    15.2612662736
Cu      6.1427081862     3.5465776590    15.2629134994
Cu      7.3739674571     5.6748441095    15.2659475587
Cu      8.6005066689     7.8029353447    15.2615571824
Cu      7.3708918567     1.4167576178    15.2601824156
Cu      8.6005961948     3.5499835192    15.2639632126
Cu      9.8280091529     5.6752612435    15.2639776635
Cu     11.0656364625     7.7986959101    15.2668072676
Cu      9.8300349901     1.4166825919    15.2597849848
Cu     11.0583339066     3.5468060346    15.2613917634
Cu     12.2893856456     5.6764031411    15.2555751407
Cu     13.5153406482     7.8001961786    15.2577368295
Cu      1.2337009017     0.7103097545    17.3563941714
Cu      2.4568153012     2.8335387885    17.3572795170
Cu      3.6858718743     4.8936096700    17.3521726916
Cu      4.9774068514     7.1293021300    17.3516218402
Cu      3.6860709972     0.7082820549    17.3562755422
Cu      4.9136982015     2.8330243252    17.3557896050
Cu      6.1517146063     4.9527737646    17.3463287509
Cu      7.3686562073     7.1095076516    17.3463822815
Cu      6.1379556276     0.7098533682    17.3567523131
Cu      7.3677270553     2.8271654702    17.3526066725
Cu      8.5988371690     4.9817974328    17.3122313839
Cu      9.8324183032     7.1101067019    17.3443470174
Cu      8.6007116007     0.7335470572    17.3533761866
Cu      9.8363690159     2.8245387585    17.3487626640
Cu     11.0514212501     4.9517387490    17.3442493530
Cu     12.2229289693     7.1291101467    17.3519039714
O       9.1320922104     3.5943250107    21.7242943439
O       8.6222461648     4.9569255948    19.4042709500
O       8.6313969878     4.9502993223    24.1907490445
C       8.6658083635     4.9573803986    21.7871047022
C       9.1214889362     5.6888274093    20.5310736980
C       9.1243141738     5.6577134867    23.0494929460
H       7.5510589569     4.8783830880    21.7679097305
H      10.2304296942     5.7043320383    20.4704088303
H       8.7425118603     6.7113055340    20.4489966978
H       8.7807466717     6.7124648736    23.0536102444
H      10.2424904522     5.6509890342    23.0501696263
H      10.1056597109     3.6632105255    21.7481899067
H       8.9821313569     4.0306331847    19.4428156822
H       8.9828266606     5.4300862138    24.9581244273
O      13.5142725639     6.3844938308    18.7102346046
H      13.5166016709     6.3849350700    19.6829297027
