80
Step 1 | ATOMIC_POSITIONS (angstrom) | Cartesian Angstrom
NI      1.2286497520     0.7093615510    11.2500000000
NI      2.4572990100     2.8374462050    11.2500000000
NI      3.6859482670     4.9655308580    11.2500000000
NI      4.9145975240     7.0936155120    11.2500000000
NI      3.6859497520     0.7093615510    11.2500000000
NI      4.9145990100     2.8374462050    11.2500000000
NI      6.1432482670     4.9655308580    11.2500000000
NI      7.3718975240     7.0936155120    11.2500000000
NI      6.1432497520     0.7093615510    11.2500000000
NI      7.3718990100     2.8374462050    11.2500000000
NI      8.6005482670     4.9655308580    11.2500000000
NI      9.8291975240     7.0936155120    11.2500000000
NI      8.6005497520     0.7093615510    11.2500000000
NI      9.8291990100     2.8374462050    11.2500000000
NI     11.0578482670     4.9655308580    11.2500000000
NI     12.2864975240     7.0936155120    11.2500000000
NI      0.0004534356     0.0001310493    13.2524918930
NI      1.2282018112     2.1280765966    13.2528802171
NI      2.4571688782     4.2565767977    13.2530049797
NI     13.5151347544     6.3837512682    13.2526515108
NI      2.4570322662    -0.0003581916    13.2530511301
NI      3.6859354125     2.1281208500    13.2526893372
NI      4.9148168884     4.2565813479    13.2530278235
NI      6.1429377195     6.3844400648    13.2539772107
NI      4.9148824624    -0.0003683199    13.2531208758
NI      6.1437496074     2.1281413410    13.2529606738
NI      7.3708896129     4.2554981851    13.2534627664
NI      8.6005137938     6.3853954784    13.2534400058
NI      7.3713998093     0.0001490691    13.2525480395
NI      8.6005230294     2.1279093521    13.2540181000
NI      9.8301595644     4.2555019428    13.2535704602
NI     11.0581950902     6.3844852617    13.2537391754
CU      2.4580284436     1.4192653790    15.2601774054
CU      3.6859113982     3.5459092426    15.2599682610
CU      4.9144934098     5.6746379027    15.2616566045
CU      6.1432585702     7.8031529934    15.2614802993
CU      4.9138479354     1.4192295041    15.2601456252
CU      6.1408364707     3.5453553848    15.2650015191
CU      7.3732266062     5.6743793355    15.2632035768
CU      8.6005336254     7.8053991721    15.2648239646
CU      7.3715125024     1.4185323266    15.2615947092
CU      8.6005880281     3.5483504996    15.2632616594
CU      9.8281651719     5.6744827640    15.2626233341
CU     11.0577373865     7.8029969595    15.2615076197
CU      9.8295600573     1.4184827300    15.2614073474
CU     11.0602148418     3.5454205748    15.2645291613
CU     12.2864199116     5.6746676115    15.2615826201
CU     13.5151950439     7.8030861476    15.2616596641
CU      1.2223393059     0.7056879437    17.3354248696
CU      2.4346833067     2.8505041811    17.3337641452
CU      3.6858302812     4.9728696550    17.3357013590
CU      4.9148803445     7.0935507154    17.3376471250
CU      3.6859736168     0.6834575871    17.3336545348
CU      4.9366822837     2.8501853692    17.3333736242
CU      6.1407830419     4.9652181893    17.3340917380
CU      7.3706092045     7.0964577509    17.3331892239
CU      6.1494654405     0.7055249392    17.3354986250
CU      7.3710055424     2.8352103924    17.3334347892
CU      8.5998494854     4.9707184045    17.3208771117
CU      9.8305871130     7.0968004146    17.3324558711
CU      8.6006419316     0.7098702695    17.3379401959
CU      9.8309101815     2.8343212867    17.3323472010
CU     11.0609968051     4.9648754674    17.3334899728
CU     12.2859778976     7.0933586765    17.3378796700
O       9.1310817670     3.6120448663    21.7351591141
O       8.6401432573     4.9708519831    19.3762256712
O       8.6431554083     4.9588793922    24.1829784551
C       8.6527085511     4.9615598055    21.7718880606
C       9.1182186874     5.6792447103    20.5171863702
C       9.1246388933     5.6542087314    23.0335729796
H       7.5380658192     4.8769161422    21.7672723888
H      10.2234814110     5.6955856252    20.4608447829
H       8.7471870789     6.7006589515    20.4577101869
H       8.7807765064     6.6955270734    23.0657155295
H      10.2340310556     5.6434670900    23.0659076480
H      10.1100141983     3.6699440956    21.7442693206
H       8.9866059412     4.0441790254    19.4290393710
H       8.9867839243     5.4346418318    24.9553872163
O       3.6859276455     2.1279781116    18.7066947032
H       3.6863546561     2.1281330272    19.6497553415
80
Step 2 | ATOMIC_POSITIONS (angstrom) | Cartesian Angstrom
NI      1.2286497520     0.7093615510    11.2500000000
NI      2.4572990100     2.8374462050    11.2500000000
NI      3.6859482670     4.9655308580    11.2500000000
NI      4.9145975240     7.0936155120    11.2500000000
NI      3.6859497520     0.7093615510    11.2500000000
NI      4.9145990100     2.8374462050    11.2500000000
NI      6.1432482670     4.9655308580    11.2500000000
NI      7.3718975240     7.0936155120    11.2500000000
NI      6.1432497520     0.7093615510    11.2500000000
NI      7.3718990100     2.8374462050    11.2500000000
NI      8.6005482670     4.9655308580    11.2500000000
NI      9.8291975240     7.0936155120    11.2500000000
NI      8.6005497520     0.7093615510    11.2500000000
NI      9.8291990100     2.8374462050    11.2500000000
NI     11.0578482670     4.9655308580    11.2500000000
NI     12.2864975240     7.0936155120    11.2500000000
NI      0.0013018344     0.0004014388    13.2442840401
NI      1.2272543672     2.1282069357    13.2455327724
NI      2.4567835430     4.2573487653    13.2459380557
NI     13.5151081315     6.3827515335    13.2448351234
NI      2.4565762789    -0.0011264095    13.2461544846
NI      3.6859048492     2.1282351182    13.2445935440
NI      4.9154036448     4.2573592520    13.2460533918
NI      6.1423492773     6.3847354779    13.2491195258
NI      4.9153652642    -0.0011630630    13.2463702967
NI      6.1448151663     2.1284261841    13.2458319284
NI      7.3687266424     4.2540414860    13.2477659283
NI      8.6004311606     6.3877920327    13.2476277799
NI      7.3704483712     0.0004650266    13.2444875741
NI      8.6004621418     2.1276318177    13.2492263768
NI      9.8322141208     4.2540457878    13.2480405621
NI     11.0588755072     6.3848868292    13.2483033932
CU      2.4597676311     1.4205519021    15.2570244467
CU      3.6858071232     3.5437929126    15.2563462723
CU      4.9143403939     5.6741888498    15.2605673948
CU      6.1431667766     7.8034150640    15.2599484847
CU      4.9120543715     1.4204136470    15.2568970524
CU      6.1360341113     3.5424621882    15.2703211755
CU      7.3754394002     5.6735508127    15.2648430207
CU      8.6004736674     7.8102827426    15.2696514394
CU      7.3708679219     1.4181148490    15.2603084178
CU      8.6006584396     3.5510953378    15.2651851551
CU      9.8265677414     5.6738617109    15.2630201580
CU     11.0576705545     7.8029521693    15.2600012764
CU      9.8301456779     1.4179384289    15.2596298628
CU     11.0649625567     3.5426451678    15.2686918149
CU     12.2862098355     5.6743083438    15.2602951325
CU     13.5152737100     7.8033116548    15.2607645192
CU      1.2089430352     0.6978298986    17.3536602781
CU      2.3929123402     2.8745883815    17.3533843275
CU      3.6856398005     4.9885104186    17.3545691038
CU      4.9152482854     7.0935288222    17.3610177198
CU      3.6859868552     0.6356984904    17.3530271882
CU      4.9773391275     2.8736207915    17.3520387962
CU      6.1363069462     4.9661800942    17.3494083180
CU      7.3666272256     7.1013097242    17.3464035075
CU      6.1627384968     0.6974209614    17.3539136486
CU      7.3711777989     2.8305534685    17.3471922023
CU      8.5987182354     4.9819875673    17.3080338105
CU      9.8347559499     7.1021879076    17.3439856552
CU      8.6008075407     0.7106829001    17.3620153214
CU      9.8324774828     2.8279192820    17.3437365531
CU     11.0666463607     4.9651041851    17.3474495497
CU     12.2850959210     7.0929380183    17.3617736420
O       9.1321527431     3.5935852010    21.7240470456
O       8.6227366682     4.9565684315    19.4021397806
O       8.6310486999     4.9502374822    24.1908783757
C       8.6651476158     4.9579851875    21.7870998218
C       9.1227915837     5.6885974237    20.5318055291
C       9.1248337242     5.6574540831    23.0495988745
H       7.5509857053     4.8785198559    21.7679314309
H      10.2305584346     5.7047432377    20.4702504324
H       8.7420834470     6.7107683782    20.4488120708
H       8.7805952298     6.7124808675    23.0535409609
H      10.2424760529     5.6512679104    23.0499117491
H      10.1054331477     3.6642625378    21.7485142736
H       8.9821503317     4.0305918262    19.4427406078
H       8.9828894151     5.4299785607    24.9581721203
O       3.6858048132     2.1277072502    18.7093452567
H       3.6873895009     2.1282877799    19.6828144086
80
Step 3 | ATOMIC_POSITIONS (angstrom) | Cartesian Angstrom
NI      1.2286497520     0.7093615510    11.2500000000
NI      2.4572990100     2.8374462050    11.2500000000
NI      3.6859482670     4.9655308580    11.2500000000
NI      4.9145975240     7.0936155120    11.2500000000
NI      3.6859497520     0.7093615510    11.2500000000
NI      4.9145990100     2.8374462050    11.2500000000
NI      6.1432482670     4.9655308580    11.2500000000
NI      7.3718975240     7.0936155120    11.2500000000
NI      6.1432497520     0.7093615510    11.2500000000
NI      7.3718990100     2.8374462050    11.2500000000
NI      8.6005482670     4.9655308580    11.2500000000
NI      9.8291975240     7.0936155120    11.2500000000
NI      8.6005497520     0.7093615510    11.2500000000
NI      9.8291990100     2.8374462050    11.2500000000
NI     11.0578482670     4.9655308580    11.2500000000
NI     12.2864975240     7.0936155120    11.2500000000
NI      0.0016358543     0.0004974311    13.2385577696
NI      1.2266540886     2.1284956899    13.2405260440
NI      2.4563138658     4.2577056375    13.2411768699
NI     13.5151120670     6.3823152749    13.2395120817
NI      2.4565548907    -0.0017159684    13.2415713678
NI      3.6859028484     2.1282689771    13.2385230683
NI      4.9160582472     4.2577103479    13.2414468710
NI      6.1421796485     6.3847836733    13.2460548566
NI      4.9153883056    -0.0017584181    13.2418723470
NI      6.1454967016     2.1288626696    13.2410842102
NI      7.3673780767     4.2531591596    13.2446469286
NI      8.6003355088     6.3892922597    13.2442075703
NI      7.3700343864     0.0006375355    13.2389303238
NI      8.6003968922     2.1276132409    13.2462088895
NI      9.8334469339     4.2531391553    13.2448822623
NI     11.0591288099     6.3850390036    13.2446984906
CU      2.4613208721     1.4215761066    15.2579787564
CU      3.6856987336     3.5419780535    15.2569687694
CU      4.9143307062     5.6740409409    15.2608226962
CU      6.1429136406     7.8034501527    15.2596702802
CU      4.9104578841     1.4213214907    15.2577176841
CU      6.1333421255     3.5408535454    15.2737993802
CU      7.3755407649     5.6736753399    15.2653503454
CU      8.6003569335     7.8132262297    15.2724157682
CU      7.3707083666     1.4177620242    15.2602569871
CU      8.6006846559     3.5517611033    15.2663856917
CU      9.8268259442     5.6740773400    15.2626607450
CU     11.0579241639     7.8028686326    15.2596511279
CU      9.8302399836     1.4174382600    15.2590242412
CU     11.0677073479     3.5410596207    15.2710514900
CU     12.2860499856     5.6742796547    15.2602944150
CU     13.5152814401     7.8034109958    15.2616081491
CU      1.1995426156     0.6922860842    17.3701949339
CU      2.3707489759     2.8872659367    17.3769840287
CU      3.6856146305     4.9995956458    17.3716720570
CU      4.9148224685     7.0938385820    17.3823857863
CU      3.6859400593     0.6105717863    17.3763555466
CU      4.9988640242     2.8859032424    17.3746601435
CU      6.1353535653     4.9708675128    17.3637305250
CU      7.3609660100     7.1014558700    17.3588156129
CU      6.1722346086     0.6919379271    17.3706157621
CU      7.3762798608     2.8277134713    17.3598976650
CU      8.5985849126     4.9904124038    17.3028437066
CU      9.8405060701     7.1023236493    17.3548378230
CU      8.6008481671     0.7104851079    17.3841270845
CU      9.8285397503     2.8240508791    17.3543171387
CU     11.0678363564     4.9693756885    17.3604883269
CU     12.2851147521     7.0929694573    17.3836235034
O       9.1336888627     3.5918927411    21.7171166426
O       8.6118209630     4.9394996230    19.4248450541
O       8.6265402727     4.9522953873    24.1945892900
C       8.6594363727     4.9538064187    21.7955510098
C       9.1301076126     5.6872895907    20.5402623567
C       9.1318308136     5.6576960644    23.0583540422
H       7.5692445018     4.8801689931    21.7703266303
H      10.2326035203     5.7147324247    20.4776754602
H       8.7379033598     6.7173493990    20.4430652135
H       8.7820716323     6.7179652003    23.0446292901
H      10.2421432732     5.6590858448    23.0417313344
H      10.1050886353     3.6540370091    21.7527680227
H       8.9745438068     4.0272645476    19.4584097655
H       8.9776407375     5.4233685566    24.9643625921
O       3.6856659260     2.1274542055    18.7244023436
H       3.6884617956     2.1284755302    19.6891562339
