74
Step 1 | ATOMIC_POSITIONS (angstrom) | Cartesian Angstrom
Ni      1.2286390390     0.7093535490     9.0128649340
Ni      2.4572760100     2.8374169220     9.0128649340
Ni      3.6859498400     4.9655441370     9.0128649340
Ni      3.6859144660     0.7093535490     9.0128649340
Ni      4.9145514370     2.8374169220     9.0128649340
Ni      6.1432252670     4.9655441370     9.0128649340
Ni      6.1432636120     0.7093535490     9.0128649340
Ni      7.3719005830     2.8374169220     9.0128649340
Ni      8.6005744130     4.9655441370     9.0128649340
Ni      0.0000019230    -0.0000011100    11.0189462060
Ni      1.2286511800     2.1280835430    11.0189462060
Ni      2.4573004370     4.2561681970    11.0189462060
Ni      2.4573019230    -0.0000011100    11.0189462060
Ni      3.6859511800     2.1280835430    11.0189462060
Ni      4.9146004370     4.2561681970    11.0189462060
Ni      4.9146019230    -0.0000011100    11.0189462060
Ni      6.1432511800     2.1280835430    11.0189462060
Ni      7.3719004370     4.2561681970    11.0189462060
Ni      2.4642244780     1.4227189880    13.0272881070
Ni      3.6924327390     3.5506983320    13.0276201530
Ni      4.9212127460     1.4223897070    13.0276202510
Ni      4.9211289880     5.6792703610    13.0277505390
Ni      7.3789582730     1.4221866730    13.0277506190
Ni      6.1494102800     3.5503628350    13.0279816350
Ni      8.6071640600     3.5501702390    13.0280595260
Ni      7.3781196110     5.6789367880    13.0280595390
Ni      9.8358884290     5.6787529240    13.0281948130
Ni      8.6117605830     4.9720020900    15.0186578060
Ni      7.3827869000     2.8442350780    15.0193609080
Ni      6.1545735900     4.9715622540    15.0193609870
Ni      3.6967676190     4.9714536840    15.0198461330
Ni      6.1537906650     0.7157666040    15.0198461880
Ni      4.9255624130     2.8437736980    15.0200052340
Ni      2.4677586240     2.8437215940    15.0204940710
Ni      3.6966160050     0.7152787130    15.0204940950
Ni      1.2387561530     0.7151941710    15.0209755470
Cu      3.6983605790     2.1352480720    17.0975611220
Cu      1.2411159100     2.1352155180    17.0978014380
Cu      2.4697108070     0.0072275920    17.0978015350
Cu      0.0125040740     0.0072168940    17.0980434560
Cu      4.9270970170     4.2630879460    17.0982970610
Cu      6.1554922450     2.1354459510    17.0982970840
Cu      4.9267502260     0.0076215920    17.0985396480
Cu      2.4699760600     4.2628774400    17.0985397210
Cu      7.3842970870     4.2633253690    17.0989758590
Cu      9.8380671102     5.6800370769    19.1893794752
Cu      7.3805961051     1.4235630755    19.1895313325
Cu      4.9231442363     5.6800240737    19.1895187976
Cu      2.4663841621     1.4239731993    19.1884547201
Cu      8.6094946862     3.5518680962    19.1901284933
Cu      7.3807714125     5.6801098026    19.1901190037
Cu      4.9238044559     1.4241840398    19.1888192206
Cu      3.6952763095     3.5520142573    19.1888186685
Cu      6.1524075978     3.5520747589    19.1905799562
Cu      8.6036892817     4.9672934304    21.2811458962
Cu      7.3748032604     2.8384499178    21.2813264940
Cu      6.1455389738     4.9675111675    21.2813140099
Cu      6.1459209567     0.7114881348    21.2803202768
Cu      3.6891273495     4.9667581610    21.2802442709
Cu      4.9161965821     2.8383621638    21.2792654986
Cu      2.4621590829     2.8385414239    21.2794248630
Cu      3.6893339759     0.7131085012    21.2795657347
Cu      1.2328389020     0.7117781860    21.2806492228
Cu      3.6847724630     2.1267259122    23.1454193174
Cu      6.1469214284     2.1267714216    23.3286963858
Cu      4.9153254744     4.2599345352    23.3287103083
Cu      2.4530239871    -0.0072160076    23.3286113361
Cu      1.2203799135     2.1279643331    23.3286319930
Cu      4.9158118254    -0.0076365546    23.3288147980
Cu      2.4513431190     4.2608760558    23.3288494851
Cu     -0.0008173353    -0.0004696997    23.3326129825
Cu      7.3686634982     4.2543070621    23.3343706245
O       3.6809805281     2.1383393657    25.1164252354
H       3.7148980178     2.2064192617    25.8424786158
74
Step 2 | ATOMIC_POSITIONS (angstrom) | Cartesian Angstrom
Ni      1.2286390390     0.7093535490     9.0128649340
Ni      2.4572760100     2.8374169220     9.0128649340
Ni      3.6859498400     4.9655441370     9.0128649340
Ni      3.6859144660     0.7093535490     9.0128649340
Ni      4.9145514370     2.8374169220     9.0128649340
Ni      6.1432252670     4.9655441370     9.0128649340
Ni      6.1432636120     0.7093535490     9.0128649340
Ni      7.3719005830     2.8374169220     9.0128649340
Ni      8.6005744130     4.9655441370     9.0128649340
Ni      0.0000019230    -0.0000011100    11.0189462060
Ni      1.2286511800     2.1280835430    11.0189462060
Ni      2.4573004370     4.2561681970    11.0189462060
Ni      2.4573019230    -0.0000011100    11.0189462060
Ni      3.6859511800     2.1280835430    11.0189462060
Ni      4.9146004370     4.2561681970    11.0189462060
Ni      4.9146019230    -0.0000011100    11.0189462060
Ni      6.1432511800     2.1280835430    11.0189462060
Ni      7.3719004370     4.2561681970    11.0189462060
Ni      2.4642244780     1.4227189880    13.0272881070
Ni      3.6924327390     3.5506983320    13.0276201530
Ni      4.9212127460     1.4223897070    13.0276202510
Ni      4.9211289880     5.6792703610    13.0277505390
Ni      7.3789582730     1.4221866730    13.0277506190
Ni      6.1494102800     3.5503628350    13.0279816350
Ni      8.6071640600     3.5501702390    13.0280595260
Ni      7.3781196110     5.6789367880    13.0280595390
Ni      9.8358884290     5.6787529240    13.0281948130
Ni      8.6117605830     4.9720020900    15.0186578060
Ni      7.3827869000     2.8442350780    15.0193609080
Ni      6.1545735900     4.9715622540    15.0193609870
Ni      3.6967676190     4.9714536840    15.0198461330
Ni      6.1537906650     0.7157666040    15.0198461880
Ni      4.9255624130     2.8437736980    15.0200052340
Ni      2.4677586240     2.8437215940    15.0204940710
Ni      3.6966160050     0.7152787130    15.0204940950
Ni      1.2387561530     0.7151941710    15.0209755470
Cu      3.6983605790     2.1352480720    17.0975611220
Cu      1.2411159100     2.1352155180    17.0978014380
Cu      2.4697108070     0.0072275920    17.0978015350
Cu      0.0125040740     0.0072168940    17.0980434560
Cu      4.9270970170     4.2630879460    17.0982970610
Cu      6.1554922450     2.1354459510    17.0982970840
Cu      4.9267502260     0.0076215920    17.0985396480
Cu      2.4699760600     4.2628774400    17.0985397210
Cu      7.3842970870     4.2633253690    17.0989758590
Cu      9.8377553296     5.6798413555    19.1892317896
Cu      7.3805424433     1.4239578569    19.1894050050
Cu      4.9234567078     5.6797661384    19.1893999576
Cu      2.4664796020     1.4240239201    19.1890475754
Cu      8.6093962164     3.5519971024    19.1898503763
Cu      7.3808244023     5.6799578536    19.1898465218
Cu      4.9238462336     1.4242492671    19.1894145744
Cu      3.6953574090     3.5520363209    19.1894144263
Cu      6.1525538217     3.5521701597    19.1903378439
Cu      8.6033323570     4.9671160617    21.2811611321
Cu      7.3747715987     2.8387391197    21.2813624310
Cu      6.1457930556     4.9673565079    21.2813574487
Cu      6.1462012296     0.7113624283    21.2810416295
Cu      3.6891589086     4.9670750269    21.2810107216
Cu      4.9170150114     2.8388370077    21.2806910845
Cu      2.4613169822     2.8390355776    21.2808216040
Cu      3.6893387979     0.7120791630    21.2808789087
Cu      1.2325607792     0.7116173124    21.2814108576
Cu      3.6840667872     2.1267199386    23.2551975878
Cu      6.1430389119     2.1264795314    23.3299099475
Cu      4.9131160104     4.2567582493    23.3299157664
Cu      2.4547577011    -0.0036923445    23.3298778296
Cu      1.2242297340     2.1277165470    23.3298863172
Cu      4.9140243396    -0.0041838495    23.3300854064
Cu      2.4534098509     4.2576948870    23.3300996534
Cu     -0.0007728766    -0.0004468507    23.3316426463
Cu      7.3685478714     4.2542355303    23.3323640519
O       3.6806850834     2.1362467496    24.9594709055
H       3.7157138838     2.2082136102    25.8790974881
74
Step 3 | ATOMIC_POSITIONS (angstrom) | Cartesian Angstrom
Ni      1.2286390390     0.7093535490     9.0128649340
Ni      2.4572760100     2.8374169220     9.0128649340
Ni      3.6859498400     4.9655441370     9.0128649340
Ni      3.6859144660     0.7093535490     9.0128649340
Ni      4.9145514370     2.8374169220     9.0128649340
Ni      6.1432252670     4.9655441370     9.0128649340
Ni      6.1432636120     0.7093535490     9.0128649340
Ni      7.3719005830     2.8374169220     9.0128649340
Ni      8.6005744130     4.9655441370     9.0128649340
Ni      0.0000019230    -0.0000011100    11.0189462060
Ni      1.2286511800     2.1280835430    11.0189462060
Ni      2.4573004370     4.2561681970    11.0189462060
Ni      2.4573019230    -0.0000011100    11.0189462060
Ni      3.6859511800     2.1280835430    11.0189462060
Ni      4.9146004370     4.2561681970    11.0189462060
Ni      4.9146019230    -0.0000011100    11.0189462060
Ni      6.1432511800     2.1280835430    11.0189462060
Ni      7.3719004370     4.2561681970    11.0189462060
Ni      2.4642244780     1.4227189880    13.0272881070
Ni      3.6924327390     3.5506983320    13.0276201530
Ni      4.9212127460     1.4223897070    13.0276202510
Ni      4.9211289880     5.6792703610    13.0277505390
Ni      7.3789582730     1.4221866730    13.0277506190
Ni      6.1494102800     3.5503628350    13.0279816350
Ni      8.6071640600     3.5501702390    13.0280595260
Ni      7.3781196110     5.6789367880    13.0280595390
Ni      9.8358884290     5.6787529240    13.0281948130
Ni      8.6117605830     4.9720020900    15.0186578060
Ni      7.3827869000     2.8442350780    15.0193609080
Ni      6.1545735900     4.9715622540    15.0193609870
Ni      3.6967676190     4.9714536840    15.0198461330
Ni      6.1537906650     0.7157666040    15.0198461880
Ni      4.9255624130     2.8437736980    15.0200052340
Ni      2.4677586240     2.8437215940    15.0204940710
Ni      3.6966160050     0.7152787130    15.0204940950
Ni      1.2387561530     0.7151941710    15.0209755470
Cu      3.6983605790     2.1352480720    17.0975611220
Cu      1.2411159100     2.1352155180    17.0978014380
Cu      2.4697108070     0.0072275920    17.0978015350
Cu      0.0125040740     0.0072168940    17.0980434560
Cu      4.9270970170     4.2630879460    17.0982970610
Cu      6.1554922450     2.1354459510    17.0982970840
Cu      4.9267502260     0.0076215920    17.0985396480
Cu      2.4699760600     4.2628774400    17.0985397210
Cu      7.3842970870     4.2633253690    17.0989758590
Cu      9.8382341840     5.6801435135    19.1894455626
Cu      7.3806294948     1.4233356202    19.1895821725
Cu      4.9229651744     5.6801759594    19.1895614611
Cu      2.4663777339     1.4239721166    19.1877645917
Cu      8.6095140122     3.5517980633    19.1903190500
Cu      7.3807274412     5.6801638958    19.1903196713
Cu      4.9236915430     1.4241667668    19.1881315446
Cu      3.6952026089     3.5519116094    19.1881285529
Cu      6.1523329486     3.5520234583    19.1907366291
Cu      8.6038685491     4.9673671202    21.2815901363
Cu      7.3748296363     2.8383532335    21.2817492224
Cu      6.1454501366     4.9675630916    21.2817315781
Cu      6.1457682020     0.7115611368    21.2801579520
Cu      3.6891111071     4.9665790683    21.2800618461
Cu      4.9173396210     2.8390212988    21.2757463002
Cu      2.4610172406     2.8392047102    21.2758575240
Cu      3.6893381409     0.7118231481    21.2760556217
Cu      1.2330035773     0.7118769711    21.2804545143
Cu      3.6849922440     2.1275703426    23.2189044148
Cu      6.1485195446     2.1269415047    23.3285966875
Cu      4.9162639919     4.2611808890    23.3286579118
Cu      2.4523586709    -0.0086519712    23.3284229435
Cu      1.2188942195     2.1280969297    23.3284942108
Cu      4.9165427062    -0.0090347462    23.3286245080
Cu      2.4505587091     4.2620813671    23.3287567123
Cu     -0.0008531436    -0.0004906269    23.3330961535
Cu      7.3687711012     4.2543733998    23.3357747924
O       3.6770806054     2.1301635778    24.9660074714
H       3.7186705734     2.2140812007    25.9283845706
74
Step 4 | ATOMIC_POSITIONS (angstrom) | Cartesian Angstrom
Ni      1.2286390390     0.7093535490     9.0128649340
Ni      2.4572760100     2.8374169220     9.0128649340
Ni      3.6859498400     4.9655441370     9.0128649340
Ni      3.6859144660     0.7093535490     9.0128649340
Ni      4.9145514370     2.8374169220     9.0128649340
Ni      6.1432252670     4.9655441370     9.0128649340
Ni      6.1432636120     0.7093535490     9.0128649340
Ni      7.3719005830     2.8374169220     9.0128649340
Ni      8.6005744130     4.9655441370     9.0128649340
Ni      0.0000019230    -0.0000011100    11.0189462060
Ni      1.2286511800     2.1280835430    11.0189462060
Ni      2.4573004370     4.2561681970    11.0189462060
Ni      2.4573019230    -0.0000011100    11.0189462060
Ni      3.6859511800     2.1280835430    11.0189462060
Ni      4.9146004370     4.2561681970    11.0189462060
Ni      4.9146019230    -0.0000011100    11.0189462060
Ni      6.1432511800     2.1280835430    11.0189462060
Ni      7.3719004370     4.2561681970    11.0189462060
Ni      2.4642244780     1.4227189880    13.0272881070
Ni      3.6924327390     3.5506983320    13.0276201530
Ni      4.9212127460     1.4223897070    13.0276202510
Ni      4.9211289880     5.6792703610    13.0277505390
Ni      7.3789582730     1.4221866730    13.0277506190
Ni      6.1494102800     3.5503628350    13.0279816350
Ni      8.6071640600     3.5501702390    13.0280595260
Ni      7.3781196110     5.6789367880    13.0280595390
Ni      9.8358884290     5.6787529240    13.0281948130
Ni      8.6117605830     4.9720020900    15.0186578060
Ni      7.3827869000     2.8442350780    15.0193609080
Ni      6.1545735900     4.9715622540    15.0193609870
Ni      3.6967676190     4.9714536840    15.0198461330
Ni      6.1537906650     0.7157666040    15.0198461880
Ni      4.9255624130     2.8437736980    15.0200052340
Ni      2.4677586240     2.8437215940    15.0204940710
Ni      3.6966160050     0.7152787130    15.0204940950
Ni      1.2387561530     0.7151941710    15.0209755470
Cu      3.6983605790     2.1352480720    17.0975611220
Cu      1.2411159100     2.1352155180    17.0978014380
Cu      2.4697108070     0.0072275920    17.0978015350
Cu      0.0125040740     0.0072168940    17.0980434560
Cu      4.9270970170     4.2630879460    17.0982970610
Cu      6.1554922450     2.1354459510    17.0982970840
Cu      4.9267502260     0.0076215920    17.0985396480
Cu      2.4699760600     4.2628774400    17.0985397210
Cu      7.3842970870     4.2633253690    17.0989758590
Cu      9.8387398213     5.6804684155    19.1896132421
Cu      7.3807085033     1.4226531265    19.1897053066
Cu      4.9224205352     5.6806144422    19.1896650073
Cu      2.4661517498     1.4238461976    19.1856056740
Cu      8.6094896458     3.5516476279    19.1907242545
Cu      7.3806041728     5.6802278458    19.1907421184
Cu      4.9235879360     1.4240002105    19.1859934835
Cu      3.6950024887     3.5518633727    19.1859894758
Cu      6.1521844933     3.5519155065    19.1910628861
Cu      8.6043207929     4.9675543968    21.2819635032
Cu      7.3748995993     2.8381341958    21.2820710714
Cu      6.1452500436     4.9676857252    21.2820400443
Cu      6.1452854692     0.7118077376    21.2790948145
Cu      3.6890778432     4.9660100808    21.2789108664
Cu      4.9191742137     2.8400714925    21.2673406086
Cu      2.4592558155     2.8402120497    21.2674531877
Cu      3.6893377624     0.7099156193    21.2678611495
Cu      1.2335160742     0.7121794112    21.2793353691
Cu      3.6864797739     2.1294416538    23.2051781022
Cu      6.1542950186     2.1275481247    23.3272256913
Cu      4.9196686358     4.2657726842    23.3273794259
Cu      2.4499597657    -0.0138099096    23.3268133511
Cu      1.2134466470     2.1285749828    23.3270035111
Cu      4.9191398727    -0.0140661689    23.3270233861
Cu      2.4476373675     4.2665618700    23.3273667511
Cu     -0.0009456601    -0.0005650751    23.3348789492
Cu      7.3690794708     4.2545477691    23.3404795660
O       3.6731660268     2.1240253328    24.9907996483
H       3.7213082086     2.2191144364    25.9487925142
74
Step 5 | ATOMIC_POSITIONS (angstrom) | Cartesian Angstrom
Ni      1.2286390390     0.7093535490     9.0128649340
Ni      2.4572760100     2.8374169220     9.0128649340
Ni      3.6859498400     4.9655441370     9.0128649340
Ni      3.6859144660     0.7093535490     9.0128649340
Ni      4.9145514370     2.8374169220     9.0128649340
Ni      6.1432252670     4.9655441370     9.0128649340
Ni      6.1432636120     0.7093535490     9.0128649340
Ni      7.3719005830     2.8374169220     9.0128649340
Ni      8.6005744130     4.9655441370     9.0128649340
Ni      0.0000019230    -0.0000011100    11.0189462060
Ni      1.2286511800     2.1280835430    11.0189462060
Ni      2.4573004370     4.2561681970    11.0189462060
Ni      2.4573019230    -0.0000011100    11.0189462060
Ni      3.6859511800     2.1280835430    11.0189462060
Ni      4.9146004370     4.2561681970    11.0189462060
Ni      4.9146019230    -0.0000011100    11.0189462060
Ni      6.1432511800     2.1280835430    11.0189462060
Ni      7.3719004370     4.2561681970    11.0189462060
Ni      2.4642244780     1.4227189880    13.0272881070
Ni      3.6924327390     3.5506983320    13.0276201530
Ni      4.9212127460     1.4223897070    13.0276202510
Ni      4.9211289880     5.6792703610    13.0277505390
Ni      7.3789582730     1.4221866730    13.0277506190
Ni      6.1494102800     3.5503628350    13.0279816350
Ni      8.6071640600     3.5501702390    13.0280595260
Ni      7.3781196110     5.6789367880    13.0280595390
Ni      9.8358884290     5.6787529240    13.0281948130
Ni      8.6117605830     4.9720020900    15.0186578060
Ni      7.3827869000     2.8442350780    15.0193609080
Ni      6.1545735900     4.9715622540    15.0193609870
Ni      3.6967676190     4.9714536840    15.0198461330
Ni      6.1537906650     0.7157666040    15.0198461880
Ni      4.9255624130     2.8437736980    15.0200052340
Ni      2.4677586240     2.8437215940    15.0204940710
Ni      3.6966160050     0.7152787130    15.0204940950
Ni      1.2387561530     0.7151941710    15.0209755470
Cu      3.6983605790     2.1352480720    17.0975611220
Cu      1.2411159100     2.1352155180    17.0978014380
Cu      2.4697108070     0.0072275920    17.0978015350
Cu      0.0125040740     0.0072168940    17.0980434560
Cu      4.9270970170     4.2630879460    17.0982970610
Cu      6.1554922450     2.1354459510    17.0982970840
Cu      4.9267502260     0.0076215920    17.0985396480
Cu      2.4699760600     4.2628774400    17.0985397210
Cu      7.3842970870     4.2633253690    17.0989758590
Cu      9.8391921956     5.6807723626    19.1897121861
Cu      7.3807478840     1.4219806952    19.1897512512
Cu      4.9218711322     5.6810196028    19.1896886349
Cu      2.4656413654     1.4235459800    19.1817767297
Cu      8.6090171523     3.5517139258    19.1907259099
Cu      7.3804448344     5.6798099002    19.1907901183
Cu      4.9236670449     1.4236425394    19.1822297411
Cu      3.6947367059     3.5520584882    19.1822232106
Cu      6.1523562109     3.5519921569    19.1909841053
Cu      8.6044923953     4.9675645684    21.2821643193
Cu      7.3749923889     2.8383375565    21.2822069409
Cu      6.1454228498     4.9676045435    21.2821635999
Cu      6.1447651539     0.7121291116    21.2778211236
Cu      3.6890889675     4.9653615522    21.2775110372
Cu      4.9217658735     2.8415452588    21.2556653979
Cu      2.4569072592     2.8415407697    21.2559622211
Cu      3.6893339774     0.7074256313    21.2567534054
Cu      1.2341079267     0.7125296326    21.2780603774
Cu      3.6888886581     2.1327578335    23.2030438979
Cu      6.1596874468     2.1284159445    23.3252859082
Cu      4.9230997363     4.2699420455    23.3255826230
Cu      2.4480991952    -0.0183789872    23.3244626895
Cu      1.2088085062     2.1292231956    23.3248738070
Cu      4.9213782107    -0.0185085945    23.3247153678
Cu      2.4450696352     4.2704525760    23.3254212990
Cu     -0.0010406777    -0.0006968174    23.3370433822
Cu      7.3695283338     4.2547666919    23.3472280031
O       3.6661255901     2.1129322151    25.0200211480
H       3.7257734540     2.2274604868    25.9705215905
74
Step 6 | ATOMIC_POSITIONS (angstrom) | Cartesian Angstrom
Ni      1.2286390390     0.7093535490     9.0128649340
Ni      2.4572760100     2.8374169220     9.0128649340
Ni      3.6859498400     4.9655441370     9.0128649340
Ni      3.6859144660     0.7093535490     9.0128649340
Ni      4.9145514370     2.8374169220     9.0128649340
Ni      6.1432252670     4.9655441370     9.0128649340
Ni      6.1432636120     0.7093535490     9.0128649340
Ni      7.3719005830     2.8374169220     9.0128649340
Ni      8.6005744130     4.9655441370     9.0128649340
Ni      0.0000019230    -0.0000011100    11.0189462060
Ni      1.2286511800     2.1280835430    11.0189462060
Ni      2.4573004370     4.2561681970    11.0189462060
Ni      2.4573019230    -0.0000011100    11.0189462060
Ni      3.6859511800     2.1280835430    11.0189462060
Ni      4.9146004370     4.2561681970    11.0189462060
Ni      4.9146019230    -0.0000011100    11.0189462060
Ni      6.1432511800     2.1280835430    11.0189462060
Ni      7.3719004370     4.2561681970    11.0189462060
Ni      2.4642244780     1.4227189880    13.0272881070
Ni      3.6924327390     3.5506983320    13.0276201530
Ni      4.9212127460     1.4223897070    13.0276202510
Ni      4.9211289880     5.6792703610    13.0277505390
Ni      7.3789582730     1.4221866730    13.0277506190
Ni      6.1494102800     3.5503628350    13.0279816350
Ni      8.6071640600     3.5501702390    13.0280595260
Ni      7.3781196110     5.6789367880    13.0280595390
Ni      9.8358884290     5.6787529240    13.0281948130
Ni      8.6117605830     4.9720020900    15.0186578060
Ni      7.3827869000     2.8442350780    15.0193609080
Ni      6.1545735900     4.9715622540    15.0193609870
Ni      3.6967676190     4.9714536840    15.0198461330
Ni      6.1537906650     0.7157666040    15.0198461880
Ni      4.9255624130     2.8437736980    15.0200052340
Ni      2.4677586240     2.8437215940    15.0204940710
Ni      3.6966160050     0.7152787130    15.0204940950
Ni      1.2387561530     0.7151941710    15.0209755470
Cu      3.6983605790     2.1352480720    17.0975611220
Cu      1.2411159100     2.1352155180    17.0978014380
Cu      2.4697108070     0.0072275920    17.0978015350
Cu      0.0125040740     0.0072168940    17.0980434560
Cu      4.9270970170     4.2630879460    17.0982970610
Cu      6.1554922450     2.1354459510    17.0982970840
Cu      4.9267502260     0.0076215920    17.0985396480
Cu      2.4699760600     4.2628774400    17.0985397210
Cu      7.3842970870     4.2633253690    17.0989758590
Cu      9.8394031771     5.6809360060    19.1897098847
Cu      7.3807195666     1.4215614391    19.1897006873
Cu      4.9215121903     5.6812356556    19.1896225518
Cu      2.4649122320     1.4231040462    19.1769965628
Cu      8.6081072362     3.5520402969    19.1900179318
Cu      7.3802850452     5.6789000437    19.1901626975
Cu      4.9239645801     1.4231390520    19.1775544991
Cu      3.6944672788     3.5525187275    19.1775427613
Cu      6.1528996404     3.5522916457    19.1902089563
Cu      8.6042553441     4.9673542301    21.2821791097
Cu      7.3751045894     2.8390108026    21.2821468285
Cu      6.1460298518     4.9673103894    21.2821009842
Cu      6.1443712484     0.7124529780    21.2767339858
Cu      3.6891637270     4.9648136676    21.2762882342
Cu      4.9235122959     2.8425226168    21.2449449200
Cu      2.4556025439     2.8422606317    21.2456835614
Cu      3.6893317003     0.7062191429    21.2469963731
Cu      1.2346121448     0.7128314306    21.2770505631
Cu      3.6918628368     2.1370660677    23.2109336820
Cu      6.1627131960     2.1293552779    23.3228870274
Cu      4.9254298595     4.2721638078    23.3233315626
Cu      2.4477063198    -0.0204343705    23.3215662298
Cu      1.2069868200     2.1298894774    23.3222660694
Cu      4.9223256679    -0.0205185554    23.3218963263
Cu      2.4438887409     4.2722320029    23.3230314208
Cu     -0.0010843276    -0.0008456454    23.3389272005
Cu      7.3700336749     4.2549821598    23.3544120849
O       3.6559333780     2.0967020225    25.0461304552
H       3.7321179537     2.2391063613    25.9911935725
74
Step 7 | ATOMIC_POSITIONS (angstrom) | Cartesian Angstrom
Ni      1.2286390390     0.7093535490     9.0128649340
Ni      2.4572760100     2.8374169220     9.0128649340
Ni      3.6859498400     4.9655441370     9.0128649340
Ni      3.6859144660     0.7093535490     9.0128649340
Ni      4.9145514370     2.8374169220     9.0128649340
Ni      6.1432252670     4.9655441370     9.0128649340
Ni      6.1432636120     0.7093535490     9.0128649340
Ni      7.3719005830     2.8374169220     9.0128649340
Ni      8.6005744130     4.9655441370     9.0128649340
Ni      0.0000019230    -0.0000011100    11.0189462060
Ni      1.2286511800     2.1280835430    11.0189462060
Ni      2.4573004370     4.2561681970    11.0189462060
Ni      2.4573019230    -0.0000011100    11.0189462060
Ni      3.6859511800     2.1280835430    11.0189462060
Ni      4.9146004370     4.2561681970    11.0189462060
Ni      4.9146019230    -0.0000011100    11.0189462060
Ni      6.1432511800     2.1280835430    11.0189462060
Ni      7.3719004370     4.2561681970    11.0189462060
Ni      2.4642244780     1.4227189880    13.0272881070
Ni      3.6924327390     3.5506983320    13.0276201530
Ni      4.9212127460     1.4223897070    13.0276202510
Ni      4.9211289880     5.6792703610    13.0277505390
Ni      7.3789582730     1.4221866730    13.0277506190
Ni      6.1494102800     3.5503628350    13.0279816350
Ni      8.6071640600     3.5501702390    13.0280595260
Ni      7.3781196110     5.6789367880    13.0280595390
Ni      9.8358884290     5.6787529240    13.0281948130
Ni      8.6117605830     4.9720020900    15.0186578060
Ni      7.3827869000     2.8442350780    15.0193609080
Ni      6.1545735900     4.9715622540    15.0193609870
Ni      3.6967676190     4.9714536840    15.0198461330
Ni      6.1537906650     0.7157666040    15.0198461880
Ni      4.9255624130     2.8437736980    15.0200052340
Ni      2.4677586240     2.8437215940    15.0204940710
Ni      3.6966160050     0.7152787130    15.0204940950
Ni      1.2387561530     0.7151941710    15.0209755470
Cu      3.6983605790     2.1352480720    17.0975611220
Cu      1.2411159100     2.1352155180    17.0978014380
Cu      2.4697108070     0.0072275920    17.0978015350
Cu      0.0125040740     0.0072168940    17.0980434560
Cu      4.9270970170     4.2630879460    17.0982970610
Cu      6.1554922450     2.1354459510    17.0982970840
Cu      4.9267502260     0.0076215920    17.0985396480
Cu      2.4699760600     4.2628774400    17.0985397210
Cu      7.3842970870     4.2633253690    17.0989758590
Cu      9.8394626309     5.6810119625    19.1896586101
Cu      7.3806539357     1.4212953298    19.1895973664
Cu      4.9212718166     5.6813394261    19.1895128509
Cu      2.4640842160     1.4225928866    19.1717105225
Cu      8.6070176753     3.5524731402    19.1888335927
Cu      7.3801213895     5.6777962405    19.1890878549
Cu      4.9243539127     1.4225615310    19.1723990230
Cu      3.6941902617     3.5530972876    19.1723804932
Cu      6.1535980233     3.5526887021    19.1889491539
Cu      8.6037972736     4.9670316281    21.2821099549
Cu      7.3752489405     2.8399471179    21.2819796309
Cu      6.1468950578     4.9669192602    21.2819439493
Cu      6.1440899261     0.7127647510    21.2756874113
Cu      3.6892809908     4.9643584362    21.2750939192
Cu      4.9243848674     2.8429971572    21.2354212902
Cu      2.4553266694     2.8424006621    21.2367937930
Cu      3.6893396210     0.7062569374    21.2387282257
Cu      1.2350367491     0.7130913585    21.2761397349
Cu      3.6953450777     2.1422422183    23.2243292235
Cu      6.1644055968     2.1303602320    23.3200707619
Cu      4.9271711793     4.2733468729    23.3206548166
Cu      2.4482281759    -0.0209388557    23.3181838551
Cu      1.2068796052     2.1305838460    23.3192274558
Cu      4.9225284926    -0.0210449509    23.3186239161
Cu      2.4435399299     4.2728547825    23.3202236707
Cu     -0.0010780209    -0.0009931562    23.3405834873
Cu      7.3705885582     4.2552064436    23.3618212225
O       3.6427365425     2.0755649744    25.0715932557
H       3.7402580511     2.2538780113    26.0106347109
74
Step 8 | ATOMIC_POSITIONS (angstrom) | Cartesian Angstrom
Ni      1.2286390390     0.7093535490     9.0128649340
Ni      2.4572760100     2.8374169220     9.0128649340
Ni      3.6859498400     4.9655441370     9.0128649340
Ni      3.6859144660     0.7093535490     9.0128649340
Ni      4.9145514370     2.8374169220     9.0128649340
Ni      6.1432252670     4.9655441370     9.0128649340
Ni      6.1432636120     0.7093535490     9.0128649340
Ni      7.3719005830     2.8374169220     9.0128649340
Ni      8.6005744130     4.9655441370     9.0128649340
Ni      0.0000019230    -0.0000011100    11.0189462060
Ni      1.2286511800     2.1280835430    11.0189462060
Ni      2.4573004370     4.2561681970    11.0189462060
Ni      2.4573019230    -0.0000011100    11.0189462060
Ni      3.6859511800     2.1280835430    11.0189462060
Ni      4.9146004370     4.2561681970    11.0189462060
Ni      4.9146019230    -0.0000011100    11.0189462060
Ni      6.1432511800     2.1280835430    11.0189462060
Ni      7.3719004370     4.2561681970    11.0189462060