74
Step 1 | ATOMIC_POSITIONS (angstrom) | Cartesian Angstrom
Ni      1.2286390390     0.7093535490     9.0128649340
Ni      2.4572760100     2.8374169220     9.0128649340
Ni      3.6859498400     4.9655441370     9.0128649340
Ni      3.6859144660     0.7093535490     9.0128649340
Ni      4.9145514370     2.8374169220     9.0128649340
Ni      6.1432252670     4.9655441370     9.0128649340
Ni      6.1432636120     0.7093535490     9.0128649340
Ni      7.3719005830     2.8374169220     9.0128649340
Ni      8.6005744130     4.9655441370     9.0128649340
Ni      0.0000019230    -0.0000011100    11.0189462060
Ni      1.2286511800     2.1280835430    11.0189462060
Ni      2.4573004370     4.2561681970    11.0189462060
Ni      2.4573019230    -0.0000011100    11.0189462060
Ni      3.6859511800     2.1280835430    11.0189462060
Ni      4.9146004370     4.2561681970    11.0189462060
Ni      4.9146019230    -0.0000011100    11.0189462060
Ni      6.1432511800     2.1280835430    11.0189462060
Ni      7.3719004370     4.2561681970    11.0189462060
Ni      2.4642244780     1.4227189880    13.0272881070
Ni      3.6924327390     3.5506983320    13.0276201530
Ni      4.9212127460     1.4223897070    13.0276202510
Ni      4.9211289880     5.6792703610    13.0277505390
Ni      7.3789582730     1.4221866730    13.0277506190
Ni      6.1494102800     3.5503628350    13.0279816350
Ni      8.6071640600     3.5501702390    13.0280595260
Ni      7.3781196110     5.6789367880    13.0280595390
Ni      9.8358884290     5.6787529240    13.0281948130
Ni      8.6117605830     4.9720020900    15.0186578060
Ni      7.3827869000     2.8442350780    15.0193609080
Ni      6.1545735900     4.9715622540    15.0193609870
Ni      3.6967676190     4.9714536840    15.0198461330
Ni      6.1537906650     0.7157666040    15.0198461880
Ni      4.9255624130     2.8437736980    15.0200052340
Ni      2.4677586240     2.8437215940    15.0204940710
Ni      3.6966160050     0.7152787130    15.0204940950
Ni      1.2387561530     0.7151941710    15.0209755470
Cu      3.6983605790     2.1352480720    17.0975611220
Cu      1.2411159100     2.1352155180    17.0978014380
Cu      2.4697108070     0.0072275920    17.0978015350
Cu      0.0125040740     0.0072168940    17.0980434560
Cu      4.9270970170     4.2630879460    17.0982970610
Cu      6.1554922450     2.1354459510    17.0982970840
Cu      4.9267502260     0.0076215920    17.0985396480
Cu      2.4699760600     4.2628774400    17.0985397210
Cu      7.3842970870     4.2633253690    17.0989758590
Cu      9.8380671102     5.6800370769    19.1893794752
Cu      7.3805961051     1.4235630755    19.1895313325
Cu      4.9231442363     5.6800240737    19.1895187976
Cu      2.4663841621     1.4239731993    19.1884547201
Cu      8.6094946862     3.5518680962    19.1901284933
Cu      7.3807714125     5.6801098026    19.1901190037
Cu      4.9238044559     1.4241840398    19.1888192206
Cu      3.6952763095     3.5520142573    19.1888186685
Cu      6.1524075978     3.5520747589    19.1905799562
Cu      8.6036892817     4.9672934304    21.2811458962
Cu      7.3748032604     2.8384499178    21.2813264940
Cu      6.1455389738     4.9675111675    21.2813140099
Cu      6.1459209567     0.7114881348    21.2803202768
Cu      3.6891273495     4.9667581610    21.2802442709
Cu      4.9161965821     2.8383621638    21.2792654986
Cu      2.4621590829     2.8385414239    21.2794248630
Cu      3.6893339759     0.7131085012    21.2795657347
Cu      1.2328389020     0.7117781860    21.2806492228
Cu      3.6847724630     2.1267259122    23.1454193174
Cu      6.1469214284     2.1267714216    23.3286963858
Cu      4.9153254744     4.2599345352    23.3287103083
Cu      2.4530239871    -0.0072160076    23.3286113361
Cu      1.2203799135     2.1279643331    23.3286319930
Cu      4.9158118254    -0.0076365546    23.3288147980
Cu      2.4513431190     4.2608760558    23.3288494851
Cu     -0.0008173353    -0.0004696997    23.3326129825
Cu      7.3686634982     4.2543070621    23.3343706245
O       3.6809805281     2.1383393657    25.1164252354
H       3.7148980178     2.2064192617    25.8424786158
