78
Step 1 | ATOMIC_POSITIONS (angstrom) | Cartesian Angstrom
Ni      1.2286497520     0.7093615510    11.2500000000
Ni      2.4572990100     2.8374462050    11.2500000000
Ni      3.6859482670     4.9655308580    11.2500000000
Ni      4.9145975240     7.0936155120    11.2500000000
Ni      3.6859497520     0.7093615510    11.2500000000
Ni      4.9145990100     2.8374462050    11.2500000000
Ni      6.1432482670     4.9655308580    11.2500000000
Ni      7.3718975240     7.0936155120    11.2500000000
Ni      6.1432497520     0.7093615510    11.2500000000
Ni      7.3718990100     2.8374462050    11.2500000000
Ni      8.6005482670     4.9655308580    11.2500000000
Ni      9.8291975240     7.0936155120    11.2500000000
Ni      8.6005497520     0.7093615510    11.2500000000
Ni      9.8291990100     2.8374462050    11.2500000000
Ni     11.0578482670     4.9655308580    11.2500000000
Ni     12.2864975240     7.0936155120    11.2500000000
Ni      9.8231926170     0.0024995240    13.3023445020
Ni     11.0518089830     2.1302240240    13.3047084140
Ni     12.2800508460     4.2570722560    13.3044621730
Ni     13.5092872810     6.3850384710    13.3032135990
Ni      2.4517697470     0.0021660600    13.3026623600
Ni      3.6803279060     2.1303359400    13.3041136820
Ni      4.9088074780     4.2579363990    13.3054287220
Ni      6.1372745400     6.3857876860    13.3032783460
Ni      4.9086517490     0.0018312680    13.3024059970
Ni      6.1374036900     2.1309748260    13.3056096280
Ni      7.3661494970     4.2582451230    13.3069521290
Ni      8.5943412640     6.3854189360    13.3048452030
Ni      7.3652045600     0.0023769350    13.3020218590
Ni      8.5942385870     2.1304695640    13.3043867890
Ni      9.8231946460     4.2572739590    13.3057508080
Ni     11.0517679490     6.3857120740    13.3033345670
Ni      2.4490340010     1.4222228900    15.3362210300
Ni      3.6772966340     3.5494520400    15.3385526490
Ni      4.9062018310     5.6779299860    15.3378107870
Ni      6.1346571370     7.8070605970    15.3335997660
Ni      4.9058225440     1.4219700120    15.3362205140
Ni      6.1346426160     3.5508505240    15.3401416950
Ni      7.3625330180     5.6784279340    15.3395242280
Ni      8.5915701700     7.8062468640    15.3354849980
Ni      7.3627070880     1.4224398610    15.3370387850
Ni      8.5913286880     3.5492678030    15.3408173340
Ni      9.8201850890     5.6778143970    15.3377748310
Ni     11.0486432900     7.8070022870    15.3347461740
Ni      9.8200953690     1.4222882770    15.3366655970
Ni     11.0486075170     3.5492992340    15.3407266610
Ni     12.2774144290     5.6772885480    15.3359640400
Ni     13.5061541410     7.8063455600    15.3319300910
Ni      1.2187910910     0.7145173250    17.3879335110
Ni      2.4472474040     2.8420654680    17.3934583510
Ni      3.6755426410     4.9714604160    17.3911200990
Ni      4.9045370410     7.0991000160    17.3858411420
Ni      3.6755273380     0.7130852300    17.3897672760
Ni      4.9036999830     2.8423805670    17.3934479200
Ni      6.1319552590     4.9726957520    17.3963329100
Ni      7.3614524680     7.0997442320    17.3897409240
Ni      6.1332850860     0.7119051780    17.3902533170
Ni      7.3623531400     2.8409773510    17.3961535170
Ni      8.5911690580     4.9716069240    17.3936889090
Ni      9.8197669710     7.1000576730    17.3889506800
Ni      8.5911411740     0.7131642410    17.3880086890
Ni      9.8198330200     2.8408219280    17.3957136840
Ni     11.0487030820     4.9704125330    17.3927697590
Ni     12.2763266390     7.0989938260    17.3852102910
O       7.2630185081     4.5765841306    20.3740982986
O       8.6898074795     6.3655208016    18.7783979785
O       7.8649987923     4.8685679922    23.3319269150
C       8.0838736385     5.5444256287    21.0308538606
C       9.1546684030     6.1632604870    20.1198506757
C       8.7963969392     4.9734664146    22.2563933178
H       7.3851204204     6.3252074270    21.3653118553
H      10.0422672421     5.5072105955    20.0563876426
H       9.4746753303     7.1366426795    20.5202539769
H       9.6455561630     5.6320181685    22.5301034098
H       9.2086899799     3.9868028843    21.9776929011
H       7.8226047255     3.9644104895    19.8516558728
H       3.6805384431     3.5528707450    18.3743377609
H       8.2286595125     4.2615918821    23.9970993384
78
Step 2 | ATOMIC_POSITIONS (angstrom) | Cartesian Angstrom
Ni      1.2286497520     0.7093615510    11.2500000000
Ni      2.4572990100     2.8374462050    11.2500000000
Ni      3.6859482670     4.9655308580    11.2500000000
Ni      4.9145975240     7.0936155120    11.2500000000
Ni      3.6859497520     0.7093615510    11.2500000000
Ni      4.9145990100     2.8374462050    11.2500000000
Ni      6.1432482670     4.9655308580    11.2500000000
Ni      7.3718975240     7.0936155120    11.2500000000
Ni      6.1432497520     0.7093615510    11.2500000000
Ni      7.3718990100     2.8374462050    11.2500000000
Ni      8.6005482670     4.9655308580    11.2500000000
Ni      9.8291975240     7.0936155120    11.2500000000
Ni      8.6005497520     0.7093615510    11.2500000000
Ni      9.8291990100     2.8374462050    11.2500000000
Ni     11.0578482670     4.9655308580    11.2500000000
Ni     12.2864975240     7.0936155120    11.2500000000
Ni      9.8231926170     0.0024995240    13.3023445020
Ni     11.0518089830     2.1302240240    13.3047084140
Ni     12.2800508460     4.2570722560    13.3044621730
Ni     13.5092872810     6.3850384710    13.3032135990
Ni      2.4517697470     0.0021660600    13.3026623600
Ni      3.6803279060     2.1303359400    13.3041136820
Ni      4.9088074780     4.2579363990    13.3054287220
Ni      6.1372745400     6.3857876860    13.3032783460
Ni      4.9086517490     0.0018312680    13.3024059970
Ni      6.1374036900     2.1309748260    13.3056096280
Ni      7.3661494970     4.2582451230    13.3069521290
Ni      8.5943412640     6.3854189360    13.3048452030
Ni      7.3652045600     0.0023769350    13.3020218590
Ni      8.5942385870     2.1304695640    13.3043867890
Ni      9.8231946460     4.2572739590    13.3057508080
Ni     11.0517679490     6.3857120740    13.3033345670
Ni      2.4490340010     1.4222228900    15.3362210300
Ni      3.6772966340     3.5494520400    15.3385526490
Ni      4.9062018310     5.6779299860    15.3378107870
Ni      6.1346571370     7.8070605970    15.3335997660
Ni      4.9058225440     1.4219700120    15.3362205140
Ni      6.1346426160     3.5508505240    15.3401416950
Ni      7.3625330180     5.6784279340    15.3395242280
Ni      8.5915701700     7.8062468640    15.3354849980
Ni      7.3627070880     1.4224398610    15.3370387850
Ni      8.5913286880     3.5492678030    15.3408173340
Ni      9.8201850890     5.6778143970    15.3377748310
Ni     11.0486432900     7.8070022870    15.3347461740
Ni      9.8200953690     1.4222882770    15.3366655970
Ni     11.0486075170     3.5492992340    15.3407266610
Ni     12.2774144290     5.6772885480    15.3359640400
Ni     13.5061541410     7.8063455600    15.3319300910
Ni      1.2187910910     0.7145173250    17.3879335110
Ni      2.4472474040     2.8420654680    17.3934583510
Ni      3.6755426410     4.9714604160    17.3911200990
Ni      4.9045370410     7.0991000160    17.3858411420
Ni      3.6755273380     0.7130852300    17.3897672760
Ni      4.9036999830     2.8423805670    17.3934479200
Ni      6.1319552590     4.9726957520    17.3963329100
Ni      7.3614524680     7.0997442320    17.3897409240
Ni      6.1332850860     0.7119051780    17.3902533170
Ni      7.3623531400     2.8409773510    17.3961535170
Ni      8.5911690580     4.9716069240    17.3936889090
Ni      9.8197669710     7.1000576730    17.3889506800
Ni      8.5911411740     0.7131642410    17.3880086890
Ni      9.8198330200     2.8408219280    17.3957136840
Ni     11.0487030820     4.9704125330    17.3927697590
Ni     12.2763266390     7.0989938260    17.3852102910
O       7.2633681154     4.5781079114    20.3727489431
O       8.6896229079     6.3646945095    18.7792866570
O       7.8637463917     4.8674396565    23.3314991769
C       8.0835637281     5.5448157589    21.0298172752
C       9.1539625019     6.1635844035    20.1203605916
C       8.7955422485     4.9733476733    22.2556399183
H       7.3837634050     6.3240541657    21.3637013271
H      10.0408806708     5.5068576436    20.0565580427
H       9.4741828945     7.1359288278    20.5220875067
H       9.6440226270     5.6313972777    22.5306259854
H       9.2103274596     3.9874181711    21.9779582870
H       7.8229422403     3.9642480121    19.8530621922
H       3.6801353576     3.5527146376    18.3744638892
H       8.2283728096     4.2625370550    23.9979966827
78
Step 3 | ATOMIC_POSITIONS (angstrom) | Cartesian Angstrom
Ni      1.2286497520     0.7093615510    11.2500000000
Ni      2.4572990100     2.8374462050    11.2500000000
Ni      3.6859482670     4.9655308580    11.2500000000
Ni      4.9145975240     7.0936155120    11.2500000000
Ni      3.6859497520     0.7093615510    11.2500000000
Ni      4.9145990100     2.8374462050    11.2500000000
Ni      6.1432482670     4.9655308580    11.2500000000
Ni      7.3718975240     7.0936155120    11.2500000000
Ni      6.1432497520     0.7093615510    11.2500000000
Ni      7.3718990100     2.8374462050    11.2500000000
Ni      8.6005482670     4.9655308580    11.2500000000
Ni      9.8291975240     7.0936155120    11.2500000000
Ni      8.6005497520     0.7093615510    11.2500000000
Ni      9.8291990100     2.8374462050    11.2500000000
Ni     11.0578482670     4.9655308580    11.2500000000
Ni     12.2864975240     7.0936155120    11.2500000000
Ni      9.8231926170     0.0024995240    13.3023445020
Ni     11.0518089830     2.1302240240    13.3047084140
Ni     12.2800508460     4.2570722560    13.3044621730
Ni     13.5092872810     6.3850384710    13.3032135990
Ni      2.4517697470     0.0021660600    13.3026623600
Ni      3.6803279060     2.1303359400    13.3041136820
Ni      4.9088074780     4.2579363990    13.3054287220
Ni      6.1372745400     6.3857876860    13.3032783460
Ni      4.9086517490     0.0018312680    13.3024059970
Ni      6.1374036900     2.1309748260    13.3056096280
Ni      7.3661494970     4.2582451230    13.3069521290
Ni      8.5943412640     6.3854189360    13.3048452030
Ni      7.3652045600     0.0023769350    13.3020218590
Ni      8.5942385870     2.1304695640    13.3043867890
Ni      9.8231946460     4.2572739590    13.3057508080
Ni     11.0517679490     6.3857120740    13.3033345670
Ni      2.4490340010     1.4222228900    15.3362210300
Ni      3.6772966340     3.5494520400    15.3385526490
Ni      4.9062018310     5.6779299860    15.3378107870
Ni      6.1346571370     7.8070605970    15.3335997660
Ni      4.9058225440     1.4219700120    15.3362205140
Ni      6.1346426160     3.5508505240    15.3401416950
Ni      7.3625330180     5.6784279340    15.3395242280
Ni      8.5915701700     7.8062468640    15.3354849980
Ni      7.3627070880     1.4224398610    15.3370387850
Ni      8.5913286880     3.5492678030    15.3408173340
Ni      9.8201850890     5.6778143970    15.3377748310
Ni     11.0486432900     7.8070022870    15.3347461740
Ni      9.8200953690     1.4222882770    15.3366655970
Ni     11.0486075170     3.5492992340    15.3407266610
Ni     12.2774144290     5.6772885480    15.3359640400
Ni     13.5061541410     7.8063455600    15.3319300910
Ni      1.2187910910     0.7145173250    17.3879335110
Ni      2.4472474040     2.8420654680    17.3934583510
Ni      3.6755426410     4.9714604160    17.3911200990
Ni      4.9045370410     7.0991000160    17.3858411420
Ni      3.6755273380     0.7130852300    17.3897672760
Ni      4.9036999830     2.8423805670    17.3934479200
Ni      6.1319552590     4.9726957520    17.3963329100
Ni      7.3614524680     7.0997442320    17.3897409240
Ni      6.1332850860     0.7119051780    17.3902533170
Ni      7.3623531400     2.8409773510    17.3961535170
Ni      8.5911690580     4.9716069240    17.3936889090
Ni      9.8197669710     7.1000576730    17.3889506800
Ni      8.5911411740     0.7131642410    17.3880086890
Ni      9.8198330200     2.8408219280    17.3957136840
Ni     11.0487030820     4.9704125330    17.3927697590
Ni     12.2763266390     7.0989938260    17.3852102910
O       7.2631676639     4.5801580932    20.3703165242
O       8.6892489032     6.3639322244    18.7799884907
O       7.8617707228     4.8656001709    23.3303196696
C       8.0830171757     5.5449821198    21.0290828634
C       9.1532606552     6.1636977945    20.1209534245
C       8.7939102533     4.9729766268    22.2550407468
H       7.3813440198     6.3227714471    21.3613618526
H      10.0387957672     5.5062616110    20.0570108791
H       9.4734824762     7.1351701156    20.5250460735
H       9.6417102889     5.6308370409    22.5315464973
H       9.2127358664     3.9883560825    21.9782047757
H       7.8237954460     3.9635368487    19.8550797988
H       3.6794851708     3.5524620126    18.3746572421
H       8.2279811921     4.2641222297    23.9993787800
78
Step 4 | ATOMIC_POSITIONS (angstrom) | Cartesian Angstrom
Ni      1.2286497520     0.7093615510    11.2500000000
Ni      2.4572990100     2.8374462050    11.2500000000
Ni      3.6859482670     4.9655308580    11.2500000000
Ni      4.9145975240     7.0936155120    11.2500000000
Ni      3.6859497520     0.7093615510    11.2500000000
Ni      4.9145990100     2.8374462050    11.2500000000
Ni      6.1432482670     4.9655308580    11.2500000000
Ni      7.3718975240     7.0936155120    11.2500000000
Ni      6.1432497520     0.7093615510    11.2500000000
Ni      7.3718990100     2.8374462050    11.2500000000
Ni      8.6005482670     4.9655308580    11.2500000000
Ni      9.8291975240     7.0936155120    11.2500000000
Ni      8.6005497520     0.7093615510    11.2500000000
Ni      9.8291990100     2.8374462050    11.2500000000
Ni     11.0578482670     4.9655308580    11.2500000000
Ni     12.2864975240     7.0936155120    11.2500000000
Ni      9.8231926170     0.0024995240    13.3023445020
Ni     11.0518089830     2.1302240240    13.3047084140
Ni     12.2800508460     4.2570722560    13.3044621730
Ni     13.5092872810     6.3850384710    13.3032135990
Ni      2.4517697470     0.0021660600    13.3026623600
Ni      3.6803279060     2.1303359400    13.3041136820
Ni      4.9088074780     4.2579363990    13.3054287220
Ni      6.1372745400     6.3857876860    13.3032783460
Ni      4.9086517490     0.0018312680    13.3024059970
Ni      6.1374036900     2.1309748260    13.3056096280
Ni      7.3661494970     4.2582451230    13.3069521290
Ni      8.5943412640     6.3854189360    13.3048452030
Ni      7.3652045600     0.0023769350    13.3020218590
Ni      8.5942385870     2.1304695640    13.3043867890
Ni      9.8231946460     4.2572739590    13.3057508080
Ni     11.0517679490     6.3857120740    13.3033345670
Ni      2.4490340010     1.4222228900    15.3362210300
Ni      3.6772966340     3.5494520400    15.3385526490
Ni      4.9062018310     5.6779299860    15.3378107870
Ni      6.1346571370     7.8070605970    15.3335997660
Ni      4.9058225440     1.4219700120    15.3362205140
Ni      6.1346426160     3.5508505240    15.3401416950
Ni      7.3625330180     5.6784279340    15.3395242280
Ni      8.5915701700     7.8062468640    15.3354849980
Ni      7.3627070880     1.4224398610    15.3370387850
Ni      8.5913286880     3.5492678030    15.3408173340
Ni      9.8201850890     5.6778143970    15.3377748310
Ni     11.0486432900     7.8070022870    15.3347461740
Ni      9.8200953690     1.4222882770    15.3366655970
Ni     11.0486075170     3.5492992340    15.3407266610
Ni     12.2774144290     5.6772885480    15.3359640400
Ni     13.5061541410     7.8063455600    15.3319300910
Ni      1.2187910910     0.7145173250    17.3879335110
Ni      2.4472474040     2.8420654680    17.3934583510
Ni      3.6755426410     4.9714604160    17.3911200990
Ni      4.9045370410     7.0991000160    17.3858411420
Ni      3.6755273380     0.7130852300    17.3897672760
Ni      4.9036999830     2.8423805670    17.3934479200
Ni      6.1319552590     4.9726957520    17.3963329100
Ni      7.3614524680     7.0997442320    17.3897409240
Ni      6.1332850860     0.7119051780    17.3902533170
Ni      7.3623531400     2.8409773510    17.3961535170
Ni      8.5911690580     4.9716069240    17.3936889090
Ni      9.8197669710     7.1000576730    17.3889506800
Ni      8.5911411740     0.7131642410    17.3880086890
Ni      9.8198330200     2.8408219280    17.3957136840
Ni     11.0487030820     4.9704125330    17.3927697590
Ni     12.2763266390     7.0989938260    17.3852102910
O       7.2624555636     4.5825412265    20.3658967463
O       8.6887365448     6.3634475796    18.7806331092
O       7.8583892884     4.8620216923    23.3286247956
C       8.0815332416     5.5449826953    21.0283855132
C       9.1520956103     6.1640398501    20.1219334890
C       8.7915936836     4.9722434634    22.2545783754
H       7.3773959064     6.3213138532    21.3579744245
H      10.0360710196     5.5049829775    20.0578889705
H       9.4723904185     7.1340566635    20.5295180816
H       9.6379464469     5.6304968081    22.5331091043
H       9.2161832997     3.9897918488    21.9783678167
H       7.8252070934     3.9620119344    19.8582884539
H       3.6784368684     3.5520532270    18.3749466025
H       8.2271969829     4.2671846825    24.0011455725
78
Step 5 | ATOMIC_POSITIONS (angstrom) | Cartesian Angstrom
Ni      1.2286497520     0.7093615510    11.2500000000
Ni      2.4572990100     2.8374462050    11.2500000000
Ni      3.6859482670     4.9655308580    11.2500000000
Ni      4.9145975240     7.0936155120    11.2500000000
Ni      3.6859497520     0.7093615510    11.2500000000
Ni      4.9145990100     2.8374462050    11.2500000000
Ni      6.1432482670     4.9655308580    11.2500000000
Ni      7.3718975240     7.0936155120    11.2500000000
Ni      6.1432497520     0.7093615510    11.2500000000
Ni      7.3718990100     2.8374462050    11.2500000000
Ni      8.6005482670     4.9655308580    11.2500000000
Ni      9.8291975240     7.0936155120    11.2500000000
Ni      8.6005497520     0.7093615510    11.2500000000
Ni      9.8291990100     2.8374462050    11.2500000000
Ni     11.0578482670     4.9655308580    11.2500000000
Ni     12.2864975240     7.0936155120    11.2500000000
Ni      9.8231926170     0.0024995240    13.3023445020
Ni     11.0518089830     2.1302240240    13.3047084140
Ni     12.2800508460     4.2570722560    13.3044621730
Ni     13.5092872810     6.3850384710    13.3032135990
Ni      2.4517697470     0.0021660600    13.3026623600
Ni      3.6803279060     2.1303359400    13.3041136820
Ni      4.9088074780     4.2579363990    13.3054287220
Ni      6.1372745400     6.3857876860    13.3032783460
Ni      4.9086517490     0.0018312680    13.3024059970
Ni      6.1374036900     2.1309748260    13.3056096280
Ni      7.3661494970     4.2582451230    13.3069521290
Ni      8.5943412640     6.3854189360    13.3048452030
Ni      7.3652045600     0.0023769350    13.3020218590
Ni      8.5942385870     2.1304695640    13.3043867890
Ni      9.8231946460     4.2572739590    13.3057508080
Ni     11.0517679490     6.3857120740    13.3033345670
Ni      2.4490340010     1.4222228900    15.3362210300
Ni      3.6772966340     3.5494520400    15.3385526490
Ni      4.9062018310     5.6779299860    15.3378107870
Ni      6.1346571370     7.8070605970    15.3335997660
Ni      4.9058225440     1.4219700120    15.3362205140
Ni      6.1346426160     3.5508505240    15.3401416950
Ni      7.3625330180     5.6784279340    15.3395242280
Ni      8.5915701700     7.8062468640    15.3354849980
Ni      7.3627070880     1.4224398610    15.3370387850
Ni      8.5913286880     3.5492678030    15.3408173340
Ni      9.8201850890     5.6778143970    15.3377748310
Ni     11.0486432900     7.8070022870    15.3347461740
Ni      9.8200953690     1.4222882770    15.3366655970
Ni     11.0486075170     3.5492992340    15.3407266610
Ni     12.2774144290     5.6772885480    15.3359640400
Ni     13.5061541410     7.8063455600    15.3319300910
Ni      1.2187910910     0.7145173250    17.3879335110
Ni      2.4472474040     2.8420654680    17.3934583510
Ni      3.6755426410     4.9714604160    17.3911200990
Ni      4.9045370410     7.0991000160    17.3858411420
Ni      3.6755273380     0.7130852300    17.3897672760
Ni      4.9036999830     2.8423805670    17.3934479200
Ni      6.1319552590     4.9726957520    17.3963329100
Ni      7.3614524680     7.0997442320    17.3897409240
Ni      6.1332850860     0.7119051780    17.3902533170
Ni      7.3623531400     2.8409773510    17.3961535170
Ni      8.5911690580     4.9716069240    17.3936889090
Ni      9.8197669710     7.1000576730    17.3889506800
Ni      8.5911411740     0.7131642410    17.3880086890
Ni      9.8198330200     2.8408219280    17.3957136840
Ni     11.0487030820     4.9704125330    17.3927697590
Ni     12.2763266390     7.0989938260    17.3852102910
O       7.2607459425     4.5852581279    20.3596310798
O       8.6882893328     6.3639451873    18.7813134853
O       7.8528249567     4.8567712345    23.3253293466
C       8.0786741927     5.5444632490    21.0275015934
C       9.1504832959     6.1640313294    20.1232533187
C       8.7880173026     4.9711729647    22.2543952337
H       7.3716218045     6.3200194340    21.3538193972
H      10.0326694282     5.5030641285    20.0594103628
H       9.4709133521     7.1328035881    20.5354115080
H       9.6324384795     5.6310093139    22.5355736434
H       9.2204325240     3.9916103723    21.9782254041
H       7.8276998228     3.9586886722    19.8624548911
H       3.6769404277     3.5514663369    18.3753171108
H       8.2263953941     4.2714391428    24.0041193015
78
Step 6 | ATOMIC_POSITIONS (angstrom) | Cartesian Angstrom
Ni      1.2286497520     0.7093615510    11.2500000000
Ni      2.4572990100     2.8374462050    11.2500000000
Ni      3.6859482670     4.9655308580    11.2500000000
Ni      4.9145975240     7.0936155120    11.2500000000
Ni      3.6859497520     0.7093615510    11.2500000000
Ni      4.9145990100     2.8374462050    11.2500000000
Ni      6.1432482670     4.9655308580    11.2500000000
Ni      7.3718975240     7.0936155120    11.2500000000
Ni      6.1432497520     0.7093615510    11.2500000000
Ni      7.3718990100     2.8374462050    11.2500000000
Ni      8.6005482670     4.9655308580    11.2500000000
Ni      9.8291975240     7.0936155120    11.2500000000
Ni      8.6005497520     0.7093615510    11.2500000000
Ni      9.8291990100     2.8374462050    11.2500000000
Ni     11.0578482670     4.9655308580    11.2500000000
Ni     12.2864975240     7.0936155120    11.2500000000
Ni      9.8231926170     0.0024995240    13.3023445020
Ni     11.0518089830     2.1302240240    13.3047084140
Ni     12.2800508460     4.2570722560    13.3044621730
Ni     13.5092872810     6.3850384710    13.3032135990
Ni      2.4517697470     0.0021660600    13.3026623600
Ni      3.6803279060     2.1303359400    13.3041136820
Ni      4.9088074780     4.2579363990    13.3054287220
Ni      6.1372745400     6.3857876860    13.3032783460
Ni      4.9086517490     0.0018312680    13.3024059970
Ni      6.1374036900     2.1309748260    13.3056096280
Ni      7.3661494970     4.2582451230    13.3069521290
Ni      8.5943412640     6.3854189360    13.3048452030
Ni      7.3652045600     0.0023769350    13.3020218590
Ni      8.5942385870     2.1304695640    13.3043867890
Ni      9.8231946460     4.2572739590    13.3057508080
Ni     11.0517679490     6.3857120740    13.3033345670
Ni      2.4490340010     1.4222228900    15.3362210300
Ni      3.6772966340     3.5494520400    15.3385526490
Ni      4.9062018310     5.6779299860    15.3378107870
Ni      6.1346571370     7.8070605970    15.3335997660
Ni      4.9058225440     1.4219700120    15.3362205140
Ni      6.1346426160     3.5508505240    15.3401416950
Ni      7.3625330180     5.6784279340    15.3395242280
Ni      8.5915701700     7.8062468640    15.3354849980
Ni      7.3627070880     1.4224398610    15.3370387850
Ni      8.5913286880     3.5492678030    15.3408173340
Ni      9.8201850890     5.6778143970    15.3377748310
Ni     11.0486432900     7.8070022870    15.3347461740
Ni      9.8200953690     1.4222882770    15.3366655970
Ni     11.0486075170     3.5492992340    15.3407266610
Ni     12.2774144290     5.6772885480    15.3359640400
Ni     13.5061541410     7.8063455600    15.3319300910
Ni      1.2187910910     0.7145173250    17.3879335110
Ni      2.4472474040     2.8420654680    17.3934583510
Ni      3.6755426410     4.9714604160    17.3911200990
Ni      4.9045370410     7.0991000160    17.3858411420
Ni      3.6755273380     0.7130852300    17.3897672760
Ni      4.9036999830     2.8423805670    17.3934479200
Ni      6.1319552590     4.9726957520    17.3963329100
Ni      7.3614524680     7.0997442320    17.3897409240
Ni      6.1332850860     0.7119051780    17.3902533170
Ni      7.3623531400     2.8409773510    17.3961535170
Ni      8.5911690580     4.9716069240    17.3936889090
Ni      9.8197669710     7.1000576730    17.3889506800
Ni      8.5911411740     0.7131642410    17.3880086890
Ni      9.8198330200     2.8408219280    17.3957136840
Ni     11.0487030820     4.9704125330    17.3927697590
Ni     12.2763266390     7.0989938260    17.3852102910
O       7.2590618225     4.5860831502    20.3521437261
O       8.6882719833     6.3658922571    18.7819218060
O       7.8462536655     4.8496330921    23.3220918482
C       8.0746559936     5.5438742825    21.0266898744
C       9.1487359884     6.1638973791    20.1247543526
C       8.7839520633     4.9701151233    22.2541730128
H       7.3654580212     6.3192323768    21.3500854877
H      10.0295335491     5.5008723563    20.0613856243
H       9.4692766787     7.1314079776    20.5410090596
H       9.6258389847     5.6327347395    22.5385046626
H       9.2240149413     3.9934675500    21.9776627439
H       7.8299950417     3.9544764049    19.8672446065
H       3.6753240843     3.5508267140    18.3756560218
H       8.2252564447     4.2769656533    24.0069275617
78
Step 7 | ATOMIC_POSITIONS (angstrom) | Cartesian Angstrom
Ni      1.2286497520     0.7093615510    11.2500000000
Ni      2.4572990100     2.8374462050    11.2500000000
Ni      3.6859482670     4.9655308580    11.2500000000
Ni      4.9145975240     7.0936155120    11.2500000000
Ni      3.6859497520     0.7093615510    11.2500000000
Ni      4.9145990100     2.8374462050    11.2500000000
Ni      6.1432482670     4.9655308580    11.2500000000
Ni      7.3718975240     7.0936155120    11.2500000000
Ni      6.1432497520     0.7093615510    11.2500000000
Ni      7.3718990100     2.8374462050    11.2500000000
Ni      8.6005482670     4.9655308580    11.2500000000
Ni      9.8291975240     7.0936155120    11.2500000000
Ni      8.6005497520     0.7093615510    11.2500000000
Ni      9.8291990100     2.8374462050    11.2500000000
Ni     11.0578482670     4.9655308580    11.2500000000
Ni     12.2864975240     7.0936155120    11.2500000000
Ni      9.8231926170     0.0024995240    13.3023445020
Ni     11.0518089830     2.1302240240    13.3047084140
Ni     12.2800508460     4.2570722560    13.3044621730
Ni     13.5092872810     6.3850384710    13.3032135990
Ni      2.4517697470     0.0021660600    13.3026623600
Ni      3.6803279060     2.1303359400    13.3041136820
Ni      4.9088074780     4.2579363990    13.3054287220
Ni      6.1372745400     6.3857876860    13.3032783460
Ni      4.9086517490     0.0018312680    13.3024059970
Ni      6.1374036900     2.1309748260    13.3056096280
Ni      7.3661494970     4.2582451230    13.3069521290
Ni      8.5943412640     6.3854189360    13.3048452030
Ni      7.3652045600     0.0023769350    13.3020218590
Ni      8.5942385870     2.1304695640    13.3043867890
Ni      9.8231946460     4.2572739590    13.3057508080
Ni     11.0517679490     6.3857120740    13.3033345670
Ni      2.4490340010     1.4222228900    15.3362210300
Ni      3.6772966340     3.5494520400    15.3385526490
Ni      4.9062018310     5.6779299860    15.3378107870
Ni      6.1346571370     7.8070605970    15.3335997660
Ni      4.9058225440     1.4219700120    15.3362205140
Ni      6.1346426160     3.5508505240    15.3401416950
Ni      7.3625330180     5.6784279340    15.3395242280
Ni      8.5915701700     7.8062468640    15.3354849980
Ni      7.3627070880     1.4224398610    15.3370387850
Ni      8.5913286880     3.5492678030    15.3408173340
Ni      9.8201850890     5.6778143970    15.3377748310
Ni     11.0486432900     7.8070022870    15.3347461740
Ni      9.8200953690     1.4222882770    15.3366655970
Ni     11.0486075170     3.5492992340    15.3407266610
Ni     12.2774144290     5.6772885480    15.3359640400
Ni     13.5061541410     7.8063455600    15.3319300910
Ni      1.2187910910     0.7145173250    17.3879335110
Ni      2.4472474040     2.8420654680    17.3934583510
Ni      3.6755426410     4.9714604160    17.3911200990
Ni      4.9045370410     7.0991000160    17.3858411420
Ni      3.6755273380     0.7130852300    17.3897672760
Ni      4.9036999830     2.8423805670    17.3934479200
Ni      6.1319552590     4.9726957520    17.3963329100
Ni      7.3614524680     7.0997442320    17.3897409240
Ni      6.1332850860     0.7119051780    17.3902533170
Ni      7.3623531400     2.8409773510    17.3961535170
Ni      8.5911690580     4.9716069240    17.3936889090
Ni      9.8197669710     7.1000576730    17.3889506800
Ni      8.5911411740     0.7131642410    17.3880086890
Ni      9.8198330200     2.8408219280    17.3957136840
Ni     11.0487030820     4.9704125330    17.3927697590
Ni     12.2763266390     7.0989938260    17.3852102910
O       7.2561920186     4.5859510857    20.3420990780
O       8.6890945465     6.3705770560    18.7829921685
O       7.8351639443     4.8383451807    23.3160001467
C       8.0677713703     5.5424578849    21.0247954863
C       9.1458939848     6.1636494730    20.1270311920