78
Step 1 | ATOMIC_POSITIONS (angstrom) | Cartesian Angstrom
Ni      1.2286497520     0.7093615510    11.2500000000
Ni      2.4572990100     2.8374462050    11.2500000000
Ni      3.6859482670     4.9655308580    11.2500000000
Ni      4.9145975240     7.0936155120    11.2500000000
Ni      3.6859497520     0.7093615510    11.2500000000
Ni      4.9145990100     2.8374462050    11.2500000000
Ni      6.1432482670     4.9655308580    11.2500000000
Ni      7.3718975240     7.0936155120    11.2500000000
Ni      6.1432497520     0.7093615510    11.2500000000
Ni      7.3718990100     2.8374462050    11.2500000000
Ni      8.6005482670     4.9655308580    11.2500000000
Ni      9.8291975240     7.0936155120    11.2500000000
Ni      8.6005497520     0.7093615510    11.2500000000
Ni      9.8291990100     2.8374462050    11.2500000000
Ni     11.0578482670     4.9655308580    11.2500000000
Ni     12.2864975240     7.0936155120    11.2500000000
Ni      9.8231926170     0.0024995240    13.3023445020
Ni     11.0518089830     2.1302240240    13.3047084140
Ni     12.2800508460     4.2570722560    13.3044621730
Ni     13.5092872810     6.3850384710    13.3032135990
Ni      2.4517697470     0.0021660600    13.3026623600
Ni      3.6803279060     2.1303359400    13.3041136820
Ni      4.9088074780     4.2579363990    13.3054287220
Ni      6.1372745400     6.3857876860    13.3032783460
Ni      4.9086517490     0.0018312680    13.3024059970
Ni      6.1374036900     2.1309748260    13.3056096280
Ni      7.3661494970     4.2582451230    13.3069521290
Ni      8.5943412640     6.3854189360    13.3048452030
Ni      7.3652045600     0.0023769350    13.3020218590
Ni      8.5942385870     2.1304695640    13.3043867890
Ni      9.8231946460     4.2572739590    13.3057508080
Ni     11.0517679490     6.3857120740    13.3033345670
Ni      2.4490340010     1.4222228900    15.3362210300
Ni      3.6772966340     3.5494520400    15.3385526490
Ni      4.9062018310     5.6779299860    15.3378107870
Ni      6.1346571370     7.8070605970    15.3335997660
Ni      4.9058225440     1.4219700120    15.3362205140
Ni      6.1346426160     3.5508505240    15.3401416950
Ni      7.3625330180     5.6784279340    15.3395242280
Ni      8.5915701700     7.8062468640    15.3354849980
Ni      7.3627070880     1.4224398610    15.3370387850
Ni      8.5913286880     3.5492678030    15.3408173340
Ni      9.8201850890     5.6778143970    15.3377748310
Ni     11.0486432900     7.8070022870    15.3347461740
Ni      9.8200953690     1.4222882770    15.3366655970
Ni     11.0486075170     3.5492992340    15.3407266610
Ni     12.2774144290     5.6772885480    15.3359640400
Ni     13.5061541410     7.8063455600    15.3319300910
Ni      1.2187910910     0.7145173250    17.3879335110
Ni      2.4472474040     2.8420654680    17.3934583510
Ni      3.6755426410     4.9714604160    17.3911200990
Ni      4.9045370410     7.0991000160    17.3858411420
Ni      3.6755273380     0.7130852300    17.3897672760
Ni      4.9036999830     2.8423805670    17.3934479200
Ni      6.1319552590     4.9726957520    17.3963329100
Ni      7.3614524680     7.0997442320    17.3897409240
Ni      6.1332850860     0.7119051780    17.3902533170
Ni      7.3623531400     2.8409773510    17.3961535170
Ni      8.5911690580     4.9716069240    17.3936889090
Ni      9.8197669710     7.1000576730    17.3889506800
Ni      8.5911411740     0.7131642410    17.3880086890
Ni      9.8198330200     2.8408219280    17.3957136840
Ni     11.0487030820     4.9704125330    17.3927697590
Ni     12.2763266390     7.0989938260    17.3852102910
O       7.4570770410     4.0205111714    21.6835647326
O       8.5566013029     4.9387457888    19.2888367571
O       8.5533341489     4.9379011069    24.1256055951
C       8.5508383887     4.9255654497    21.7098952274
C       9.3861014257     4.7416596347    20.4303784580
C       9.3740008726     4.7235010379    22.9758688392
H       8.0989470681     5.9483770574    21.7094099720
H       9.7862064692     3.7028117224    20.4045688716
H      10.2331862991     5.4367329827    20.4074977424
H      10.2330620723     5.4023353194    23.0083004193
H       9.7411324583     3.6769513120    23.0081061944
H       7.8442073267     3.1195596277    21.6849902910
H       4.8352152069     2.8180765812    19.3186470893
H       9.1190050212     4.7774578652    24.8975135165
78
Step 2 | ATOMIC_POSITIONS (angstrom) | Cartesian Angstrom
Ni      1.2286497520     0.7093615510    11.2500000000
Ni      2.4572990100     2.8374462050    11.2500000000
Ni      3.6859482670     4.9655308580    11.2500000000
Ni      4.9145975240     7.0936155120    11.2500000000
Ni      3.6859497520     0.7093615510    11.2500000000
Ni      4.9145990100     2.8374462050    11.2500000000
Ni      6.1432482670     4.9655308580    11.2500000000
Ni      7.3718975240     7.0936155120    11.2500000000
Ni      6.1432497520     0.7093615510    11.2500000000
Ni      7.3718990100     2.8374462050    11.2500000000
Ni      8.6005482670     4.9655308580    11.2500000000
Ni      9.8291975240     7.0936155120    11.2500000000
Ni      8.6005497520     0.7093615510    11.2500000000
Ni      9.8291990100     2.8374462050    11.2500000000
Ni     11.0578482670     4.9655308580    11.2500000000
Ni     12.2864975240     7.0936155120    11.2500000000
Ni      9.8231926170     0.0024995240    13.3023445020
Ni     11.0518089830     2.1302240240    13.3047084140
Ni     12.2800508460     4.2570722560    13.3044621730
Ni     13.5092872810     6.3850384710    13.3032135990
Ni      2.4517697470     0.0021660600    13.3026623600
Ni      3.6803279060     2.1303359400    13.3041136820
Ni      4.9088074780     4.2579363990    13.3054287220
Ni      6.1372745400     6.3857876860    13.3032783460
Ni      4.9086517490     0.0018312680    13.3024059970
Ni      6.1374036900     2.1309748260    13.3056096280
Ni      7.3661494970     4.2582451230    13.3069521290
Ni      8.5943412640     6.3854189360    13.3048452030
Ni      7.3652045600     0.0023769350    13.3020218590
Ni      8.5942385870     2.1304695640    13.3043867890
Ni      9.8231946460     4.2572739590    13.3057508080
Ni     11.0517679490     6.3857120740    13.3033345670
Ni      2.4490340010     1.4222228900    15.3362210300
Ni      3.6772966340     3.5494520400    15.3385526490
Ni      4.9062018310     5.6779299860    15.3378107870
Ni      6.1346571370     7.8070605970    15.3335997660
Ni      4.9058225440     1.4219700120    15.3362205140
Ni      6.1346426160     3.5508505240    15.3401416950
Ni      7.3625330180     5.6784279340    15.3395242280
Ni      8.5915701700     7.8062468640    15.3354849980
Ni      7.3627070880     1.4224398610    15.3370387850
Ni      8.5913286880     3.5492678030    15.3408173340
Ni      9.8201850890     5.6778143970    15.3377748310
Ni     11.0486432900     7.8070022870    15.3347461740
Ni      9.8200953690     1.4222882770    15.3366655970
Ni     11.0486075170     3.5492992340    15.3407266610
Ni     12.2774144290     5.6772885480    15.3359640400
Ni     13.5061541410     7.8063455600    15.3319300910
Ni      1.2187910910     0.7145173250    17.3879335110
Ni      2.4472474040     2.8420654680    17.3934583510
Ni      3.6755426410     4.9714604160    17.3911200990
Ni      4.9045370410     7.0991000160    17.3858411420
Ni      3.6755273380     0.7130852300    17.3897672760
Ni      4.9036999830     2.8423805670    17.3934479200
Ni      6.1319552590     4.9726957520    17.3963329100
Ni      7.3614524680     7.0997442320    17.3897409240
Ni      6.1332850860     0.7119051780    17.3902533170
Ni      7.3623531400     2.8409773510    17.3961535170
Ni      8.5911690580     4.9716069240    17.3936889090
Ni      9.8197669710     7.1000576730    17.3889506800
Ni      8.5911411740     0.7131642410    17.3880086890
Ni      9.8198330200     2.8408219280    17.3957136840
Ni     11.0487030820     4.9704125330    17.3927697590
Ni     12.2763266390     7.0989938260    17.3852102910
O       7.4491504895     4.0170969476    21.6845443736
O       8.5487793435     4.9431558909    19.2733927814
O       8.5478129884     4.9418261939    24.1287436752
C       8.5465080015     4.9184392174    21.7090216737
C       9.3842049451     4.7445244665    20.4126599873
C       9.3760393113     4.7238226580    22.9804996713
H       8.1011423892     5.9429912645    21.7095072133
H       9.7893205335     3.7013212695    20.4082797383
H      10.2409803459     5.4402351573    20.4094232456
H      10.2406265864     5.4053517525    23.0031129602
H       9.7455473710     3.6747058858    23.0010075487
H       7.8406857377     3.1218678505    21.6849516740
H       4.8361776924     2.8184600582    19.2672169804
H       9.1166971078     4.7784057947    24.8985316051
78
Step 3 | ATOMIC_POSITIONS (angstrom) | Cartesian Angstrom
Ni      1.2286497520     0.7093615510    11.2500000000
Ni      2.4572990100     2.8374462050    11.2500000000
Ni      3.6859482670     4.9655308580    11.2500000000
Ni      4.9145975240     7.0936155120    11.2500000000
Ni      3.6859497520     0.7093615510    11.2500000000
Ni      4.9145990100     2.8374462050    11.2500000000
Ni      6.1432482670     4.9655308580    11.2500000000
Ni      7.3718975240     7.0936155120    11.2500000000
Ni      6.1432497520     0.7093615510    11.2500000000
Ni      7.3718990100     2.8374462050    11.2500000000
Ni      8.6005482670     4.9655308580    11.2500000000
Ni      9.8291975240     7.0936155120    11.2500000000
Ni      8.6005497520     0.7093615510    11.2500000000
Ni      9.8291990100     2.8374462050    11.2500000000
Ni     11.0578482670     4.9655308580    11.2500000000
Ni     12.2864975240     7.0936155120    11.2500000000
Ni      9.8231926170     0.0024995240    13.3023445020
Ni     11.0518089830     2.1302240240    13.3047084140
Ni     12.2800508460     4.2570722560    13.3044621730
Ni     13.5092872810     6.3850384710    13.3032135990
Ni      2.4517697470     0.0021660600    13.3026623600
Ni      3.6803279060     2.1303359400    13.3041136820
Ni      4.9088074780     4.2579363990    13.3054287220
Ni      6.1372745400     6.3857876860    13.3032783460
Ni      4.9086517490     0.0018312680    13.3024059970
Ni      6.1374036900     2.1309748260    13.3056096280
Ni      7.3661494970     4.2582451230    13.3069521290
Ni      8.5943412640     6.3854189360    13.3048452030
Ni      7.3652045600     0.0023769350    13.3020218590
Ni      8.5942385870     2.1304695640    13.3043867890
Ni      9.8231946460     4.2572739590    13.3057508080
Ni     11.0517679490     6.3857120740    13.3033345670
Ni      2.4490340010     1.4222228900    15.3362210300
Ni      3.6772966340     3.5494520400    15.3385526490
Ni      4.9062018310     5.6779299860    15.3378107870
Ni      6.1346571370     7.8070605970    15.3335997660
Ni      4.9058225440     1.4219700120    15.3362205140
Ni      6.1346426160     3.5508505240    15.3401416950
Ni      7.3625330180     5.6784279340    15.3395242280
Ni      8.5915701700     7.8062468640    15.3354849980
Ni      7.3627070880     1.4224398610    15.3370387850
Ni      8.5913286880     3.5492678030    15.3408173340
Ni      9.8201850890     5.6778143970    15.3377748310
Ni     11.0486432900     7.8070022870    15.3347461740
Ni      9.8200953690     1.4222882770    15.3366655970
Ni     11.0486075170     3.5492992340    15.3407266610
Ni     12.2774144290     5.6772885480    15.3359640400
Ni     13.5061541410     7.8063455600    15.3319300910
Ni      1.2187910910     0.7145173250    17.3879335110
Ni      2.4472474040     2.8420654680    17.3934583510
Ni      3.6755426410     4.9714604160    17.3911200990
Ni      4.9045370410     7.0991000160    17.3858411420
Ni      3.6755273380     0.7130852300    17.3897672760
Ni      4.9036999830     2.8423805670    17.3934479200
Ni      6.1319552590     4.9726957520    17.3963329100
Ni      7.3614524680     7.0997442320    17.3897409240
Ni      6.1332850860     0.7119051780    17.3902533170
Ni      7.3623531400     2.8409773510    17.3961535170
Ni      8.5911690580     4.9716069240    17.3936889090
Ni      9.8197669710     7.1000576730    17.3889506800
Ni      8.5911411740     0.7131642410    17.3880086890
Ni      9.8198330200     2.8408219280    17.3957136840
Ni     11.0487030820     4.9704125330    17.3927697590
Ni     12.2763266390     7.0989938260    17.3852102910
O       7.4393981745     4.0161181421    21.6859624739
O       8.5408070695     4.9488723212    19.2573091667
O       8.5443526556     4.9462770916    24.1310424718
C       8.5428302037     4.9112300942    21.7047217637
C       9.3819191339     4.7475539918    20.3945036690
C       9.3781422989     4.7243986021    22.9821628247
H       8.1032805539     5.9353192336    21.7097505237
H       9.7922866727     3.7020976333    20.4104187278
H      10.2474368366     5.4427638620    20.4102694555
H      10.2480099331     5.4075373596    22.9961405017
H       9.7513888403     3.6731028434    22.9926844726
H       7.8358238250     3.1208358768    21.6848883009
H       4.8376633613     2.8190714755    19.1900728919
H       9.1122005923     4.7801096281    24.9003334361
78
Step 4 | ATOMIC_POSITIONS (angstrom) | Cartesian Angstrom
Ni      1.2286497520     0.7093615510    11.2500000000
Ni      2.4572990100     2.8374462050    11.2500000000
Ni      3.6859482670     4.9655308580    11.2500000000
Ni      4.9145975240     7.0936155120    11.2500000000
Ni      3.6859497520     0.7093615510    11.2500000000
Ni      4.9145990100     2.8374462050    11.2500000000
Ni      6.1432482670     4.9655308580    11.2500000000
Ni      7.3718975240     7.0936155120    11.2500000000
Ni      6.1432497520     0.7093615510    11.2500000000
Ni      7.3718990100     2.8374462050    11.2500000000
Ni      8.6005482670     4.9655308580    11.2500000000
Ni      9.8291975240     7.0936155120    11.2500000000
Ni      8.6005497520     0.7093615510    11.2500000000
Ni      9.8291990100     2.8374462050    11.2500000000
Ni     11.0578482670     4.9655308580    11.2500000000
Ni     12.2864975240     7.0936155120    11.2500000000
Ni      9.8231926170     0.0024995240    13.3023445020
Ni     11.0518089830     2.1302240240    13.3047084140
Ni     12.2800508460     4.2570722560    13.3044621730
Ni     13.5092872810     6.3850384710    13.3032135990
Ni      2.4517697470     0.0021660600    13.3026623600
Ni      3.6803279060     2.1303359400    13.3041136820
Ni      4.9088074780     4.2579363990    13.3054287220
Ni      6.1372745400     6.3857876860    13.3032783460
Ni      4.9086517490     0.0018312680    13.3024059970
Ni      6.1374036900     2.1309748260    13.3056096280
Ni      7.3661494970     4.2582451230    13.3069521290
Ni      8.5943412640     6.3854189360    13.3048452030
Ni      7.3652045600     0.0023769350    13.3020218590
Ni      8.5942385870     2.1304695640    13.3043867890
Ni      9.8231946460     4.2572739590    13.3057508080
Ni     11.0517679490     6.3857120740    13.3033345670
Ni      2.4490340010     1.4222228900    15.3362210300
Ni      3.6772966340     3.5494520400    15.3385526490
Ni      4.9062018310     5.6779299860    15.3378107870
Ni      6.1346571370     7.8070605970    15.3335997660
Ni      4.9058225440     1.4219700120    15.3362205140
Ni      6.1346426160     3.5508505240    15.3401416950
Ni      7.3625330180     5.6784279340    15.3395242280
Ni      8.5915701700     7.8062468640    15.3354849980
Ni      7.3627070880     1.4224398610    15.3370387850
Ni      8.5913286880     3.5492678030    15.3408173340
Ni      9.8201850890     5.6778143970    15.3377748310
Ni     11.0486432900     7.8070022870    15.3347461740
Ni      9.8200953690     1.4222882770    15.3366655970
Ni     11.0486075170     3.5492992340    15.3407266610
Ni     12.2774144290     5.6772885480    15.3359640400
Ni     13.5061541410     7.8063455600    15.3319300910
Ni      1.2187910910     0.7145173250    17.3879335110
Ni      2.4472474040     2.8420654680    17.3934583510
Ni      3.6755426410     4.9714604160    17.3911200990
Ni      4.9045370410     7.0991000160    17.3858411420
Ni      3.6755273380     0.7130852300    17.3897672760
Ni      4.9036999830     2.8423805670    17.3934479200
Ni      6.1319552590     4.9726957520    17.3963329100
Ni      7.3614524680     7.0997442320    17.3897409240
Ni      6.1332850860     0.7119051780    17.3902533170
Ni      7.3623531400     2.8409773510    17.3961535170
Ni      8.5911690580     4.9716069240    17.3936889090
Ni      9.8197669710     7.1000576730    17.3889506800
Ni      8.5911411740     0.7131642410    17.3880086890
Ni      9.8198330200     2.8408219280    17.3957136840
Ni     11.0487030820     4.9704125330    17.3927697590
Ni     12.2763266390     7.0989938260    17.3852102910
O       7.4298278308     4.0116129674    21.6874612171
O       8.5323215055     4.9567369180    19.2403714248
O       8.5422022507     4.9521179926    24.1297069297
C       8.5390696779     4.9033014361    21.6979126989
C       9.3786608983     4.7510404484    20.3743949109
C       9.3810919774     4.7245497278    22.9805703720
H       8.1051094631     5.9254793469    21.7096984117
H       9.7953039034     3.7052831751    20.4097561179
H      10.2525054722     5.4445918669    20.4092418301
H      10.2556695943     5.4089416562    22.9859399258
H       9.7593522971     3.6726098550    22.9820593543
H       7.8256503879     3.1212042773    21.6847977123
H       4.8399288706     2.8200395528    19.0743578927
H       9.1057145621     4.7826298476    24.9041011191
78
Step 5 | ATOMIC_POSITIONS (angstrom) | Cartesian Angstrom
Ni      1.2286497520     0.7093615510    11.2500000000
Ni      2.4572990100     2.8374462050    11.2500000000
Ni      3.6859482670     4.9655308580    11.2500000000
Ni      4.9145975240     7.0936155120    11.2500000000
Ni      3.6859497520     0.7093615510    11.2500000000
Ni      4.9145990100     2.8374462050    11.2500000000
Ni      6.1432482670     4.9655308580    11.2500000000
Ni      7.3718975240     7.0936155120    11.2500000000
Ni      6.1432497520     0.7093615510    11.2500000000
Ni      7.3718990100     2.8374462050    11.2500000000
Ni      8.6005482670     4.9655308580    11.2500000000
Ni      9.8291975240     7.0936155120    11.2500000000
Ni      8.6005497520     0.7093615510    11.2500000000
Ni      9.8291990100     2.8374462050    11.2500000000
Ni     11.0578482670     4.9655308580    11.2500000000
Ni     12.2864975240     7.0936155120    11.2500000000
Ni      9.8231926170     0.0024995240    13.3023445020
Ni     11.0518089830     2.1302240240    13.3047084140
Ni     12.2800508460     4.2570722560    13.3044621730
Ni     13.5092872810     6.3850384710    13.3032135990
Ni      2.4517697470     0.0021660600    13.3026623600
Ni      3.6803279060     2.1303359400    13.3041136820
Ni      4.9088074780     4.2579363990    13.3054287220
Ni      6.1372745400     6.3857876860    13.3032783460
Ni      4.9086517490     0.0018312680    13.3024059970
Ni      6.1374036900     2.1309748260    13.3056096280
Ni      7.3661494970     4.2582451230    13.3069521290
Ni      8.5943412640     6.3854189360    13.3048452030
Ni      7.3652045600     0.0023769350    13.3020218590
Ni      8.5942385870     2.1304695640    13.3043867890
Ni      9.8231946460     4.2572739590    13.3057508080
Ni     11.0517679490     6.3857120740    13.3033345670
Ni      2.4490340010     1.4222228900    15.3362210300
Ni      3.6772966340     3.5494520400    15.3385526490
Ni      4.9062018310     5.6779299860    15.3378107870
Ni      6.1346571370     7.8070605970    15.3335997660
Ni      4.9058225440     1.4219700120    15.3362205140
Ni      6.1346426160     3.5508505240    15.3401416950
Ni      7.3625330180     5.6784279340    15.3395242280
Ni      8.5915701700     7.8062468640    15.3354849980
Ni      7.3627070880     1.4224398610    15.3370387850
Ni      8.5913286880     3.5492678030    15.3408173340
Ni      9.8201850890     5.6778143970    15.3377748310
Ni     11.0486432900     7.8070022870    15.3347461740
Ni      9.8200953690     1.4222882770    15.3366655970
Ni     11.0486075170     3.5492992340    15.3407266610
Ni     12.2774144290     5.6772885480    15.3359640400
Ni     13.5061541410     7.8063455600    15.3319300910
Ni      1.2187910910     0.7145173250    17.3879335110
Ni      2.4472474040     2.8420654680    17.3934583510
Ni      3.6755426410     4.9714604160    17.3911200990
Ni      4.9045370410     7.0991000160    17.3858411420
Ni      3.6755273380     0.7130852300    17.3897672760
Ni      4.9036999830     2.8423805670    17.3934479200
Ni      6.1319552590     4.9726957520    17.3963329100
Ni      7.3614524680     7.0997442320    17.3897409240
Ni      6.1332850860     0.7119051780    17.3902533170
Ni      7.3623531400     2.8409773510    17.3961535170
Ni      8.5911690580     4.9716069240    17.3936889090
Ni      9.8197669710     7.1000576730    17.3889506800
Ni      8.5911411740     0.7131642410    17.3880086890
Ni      9.8198330200     2.8408219280    17.3957136840
Ni     11.0487030820     4.9704125330    17.3927697590
Ni     12.2763266390     7.0989938260    17.3852102910
O       7.4180338463     4.0107844325    21.6886096513
O       8.5231189403     4.9679209487    19.2236223668
O       8.5440309439     4.9593985638    24.1254469556
C       8.5341867313     4.8952180918    21.6877655037
C       9.3738993479     4.7537229428    20.3528242512
C       9.3856151832     4.7229631723    22.9742365421
H       8.1060867972     5.9121164290    21.7089283657
H       9.7980705050     3.7121417532    20.4037179078
H      10.2553228902     5.4461025990    20.4048587750
H      10.2638129302     5.4095688489    22.9705281652
H       9.7703701065     3.6739254807    22.9682615995
H       7.8110061603     3.1153697849    21.6846909677
H       4.8434536836     2.8215981070    18.9007888407
H       9.0942995393     4.7870017442    24.9070516933
78
Step 6 | ATOMIC_POSITIONS (angstrom) | Cartesian Angstrom
Ni      1.2286497520     0.7093615510    11.2500000000
Ni      2.4572990100     2.8374462050    11.2500000000
Ni      3.6859482670     4.9655308580    11.2500000000
Ni      4.9145975240     7.0936155120    11.2500000000
Ni      3.6859497520     0.7093615510    11.2500000000
Ni      4.9145990100     2.8374462050    11.2500000000
Ni      6.1432482670     4.9655308580    11.2500000000
Ni      7.3718975240     7.0936155120    11.2500000000
Ni      6.1432497520     0.7093615510    11.2500000000
Ni      7.3718990100     2.8374462050    11.2500000000
Ni      8.6005482670     4.9655308580    11.2500000000
Ni      9.8291975240     7.0936155120    11.2500000000
Ni      8.6005497520     0.7093615510    11.2500000000
Ni      9.8291990100     2.8374462050    11.2500000000
Ni     11.0578482670     4.9655308580    11.2500000000
Ni     12.2864975240     7.0936155120    11.2500000000
Ni      9.8231926170     0.0024995240    13.3023445020
Ni     11.0518089830     2.1302240240    13.3047084140
Ni     12.2800508460     4.2570722560    13.3044621730
Ni     13.5092872810     6.3850384710    13.3032135990
Ni      2.4517697470     0.0021660600    13.3026623600
Ni      3.6803279060     2.1303359400    13.3041136820
Ni      4.9088074780     4.2579363990    13.3054287220
Ni      6.1372745400     6.3857876860    13.3032783460
Ni      4.9086517490     0.0018312680    13.3024059970
Ni      6.1374036900     2.1309748260    13.3056096280
Ni      7.3661494970     4.2582451230    13.3069521290
Ni      8.5943412640     6.3854189360    13.3048452030
Ni      7.3652045600     0.0023769350    13.3020218590
Ni      8.5942385870     2.1304695640    13.3043867890
Ni      9.8231946460     4.2572739590    13.3057508080
Ni     11.0517679490     6.3857120740    13.3033345670
Ni      2.4490340010     1.4222228900    15.3362210300
Ni      3.6772966340     3.5494520400    15.3385526490
Ni      4.9062018310     5.6779299860    15.3378107870
Ni      6.1346571370     7.8070605970    15.3335997660
Ni      4.9058225440     1.4219700120    15.3362205140
Ni      6.1346426160     3.5508505240    15.3401416950
Ni      7.3625330180     5.6784279340    15.3395242280
Ni      8.5915701700     7.8062468640    15.3354849980
Ni      7.3627070880     1.4224398610    15.3370387850
Ni      8.5913286880     3.5492678030    15.3408173340
Ni      9.8201850890     5.6778143970    15.3377748310
Ni     11.0486432900     7.8070022870    15.3347461740
Ni      9.8200953690     1.4222882770    15.3366655970
Ni     11.0486075170     3.5492992340    15.3407266610
Ni     12.2774144290     5.6772885480    15.3359640400
Ni     13.5061541410     7.8063455600    15.3319300910
Ni      1.2187910910     0.7145173250    17.3879335110
Ni      2.4472474040     2.8420654680    17.3934583510
Ni      3.6755426410     4.9714604160    17.3911200990
Ni      4.9045370410     7.0991000160    17.3858411420
Ni      3.6755273380     0.7130852300    17.3897672760
Ni      4.9036999830     2.8423805670    17.3934479200
Ni      6.1319552590     4.9726957520    17.3963329100
Ni      7.3614524680     7.0997442320    17.3897409240
Ni      6.1332850860     0.7119051780    17.3902533170
Ni      7.3623531400     2.8409773510    17.3961535170
Ni      8.5911690580     4.9716069240    17.3936889090
Ni      9.8197669710     7.1000576730    17.3889506800
Ni      8.5911411740     0.7131642410    17.3880086890
Ni      9.8198330200     2.8408219280    17.3957136840
Ni     11.0487030820     4.9704125330    17.3927697590
Ni     12.2763266390     7.0989938260    17.3852102910
O       7.4204914301     4.0065765845    21.6874692655
O       8.5242467846     4.9712551821    19.2289651042
O       8.5487291846     4.9608204624    24.1160667909
C       8.5349274951     4.8985557293    21.6836258880
C       9.3723782980     4.7523115263    20.3568711013
C       9.3870091246     4.7210845905    22.9669705402
H       8.1042719656     5.9095994208    21.7077379447
H       9.7967430072     3.7169415552    20.3944510589
H      10.2493812873     5.4447400190    20.3994103803
H      10.2621221004     5.4075978517    22.9643523803
H       9.7734406065     3.6764288727    22.9660163687
H       7.8016079412     3.1146547223    21.6846909179
H       4.8443642108     2.8221365731    18.8528246848
H       9.0908475905     4.7885126710    24.9081704252
78
Step 7 | ATOMIC_POSITIONS (angstrom) | Cartesian Angstrom
Ni      1.2286497520     0.7093615510    11.2500000000
Ni      2.4572990100     2.8374462050    11.2500000000
Ni      3.6859482670     4.9655308580    11.2500000000
Ni      4.9145975240     7.0936155120    11.2500000000
Ni      3.6859497520     0.7093615510    11.2500000000
Ni      4.9145990100     2.8374462050    11.2500000000
Ni      6.1432482670     4.9655308580    11.2500000000
Ni      7.3718975240     7.0936155120    11.2500000000
Ni      6.1432497520     0.7093615510    11.2500000000
Ni      7.3718990100     2.8374462050    11.2500000000
Ni      8.6005482670     4.9655308580    11.2500000000
Ni      9.8291975240     7.0936155120    11.2500000000
Ni      8.6005497520     0.7093615510    11.2500000000
Ni      9.8291990100     2.8374462050    11.2500000000
Ni     11.0578482670     4.9655308580    11.2500000000
Ni     12.2864975240     7.0936155120    11.2500000000
Ni      9.8231926170     0.0024995240    13.3023445020
Ni     11.0518089830     2.1302240240    13.3047084140
Ni     12.2800508460     4.2570722560    13.3044621730
Ni     13.5092872810     6.3850384710    13.3032135990
Ni      2.4517697470     0.0021660600    13.3026623600
Ni      3.6803279060     2.1303359400    13.3041136820
Ni      4.9088074780     4.2579363990    13.3054287220
Ni      6.1372745400     6.3857876860    13.3032783460
Ni      4.9086517490     0.0018312680    13.3024059970
Ni      6.1374036900     2.1309748260    13.3056096280
Ni      7.3661494970     4.2582451230    13.3069521290
Ni      8.5943412640     6.3854189360    13.3048452030
Ni      7.3652045600     0.0023769350    13.3020218590
Ni      8.5942385870     2.1304695640    13.3043867890
Ni      9.8231946460     4.2572739590    13.3057508080
Ni     11.0517679490     6.3857120740    13.3033345670
Ni      2.4490340010     1.4222228900    15.3362210300
Ni      3.6772966340     3.5494520400    15.3385526490
Ni      4.9062018310     5.6779299860    15.3378107870
Ni      6.1346571370     7.8070605970    15.3335997660
Ni      4.9058225440     1.4219700120    15.3362205140
Ni      6.1346426160     3.5508505240    15.3401416950
Ni      7.3625330180     5.6784279340    15.3395242280
Ni      8.5915701700     7.8062468640    15.3354849980
Ni      7.3627070880     1.4224398610    15.3370387850
Ni      8.5913286880     3.5492678030    15.3408173340
Ni      9.8201850890     5.6778143970    15.3377748310
Ni     11.0486432900     7.8070022870    15.3347461740
Ni      9.8200953690     1.4222882770    15.3366655970
Ni     11.0486075170     3.5492992340    15.3407266610
Ni     12.2774144290     5.6772885480    15.3359640400
Ni     13.5061541410     7.8063455600    15.3319300910
Ni      1.2187910910     0.7145173250    17.3879335110
Ni      2.4472474040     2.8420654680    17.3934583510
Ni      3.6755426410     4.9714604160    17.3911200990
Ni      4.9045370410     7.0991000160    17.3858411420
Ni      3.6755273380     0.7130852300    17.3897672760
Ni      4.9036999830     2.8423805670    17.3934479200
Ni      6.1319552590     4.9726957520    17.3963329100
Ni      7.3614524680     7.0997442320    17.3897409240
Ni      6.1332850860     0.7119051780    17.3902533170
Ni      7.3623531400     2.8409773510    17.3961535170
Ni      8.5911690580     4.9716069240    17.3936889090
Ni      9.8197669710     7.1000576730    17.3889506800
Ni      8.5911411740     0.7131642410    17.3880086890
Ni      9.8198330200     2.8408219280    17.3957136840
Ni     11.0487030820     4.9704125330    17.3927697590
Ni     12.2763266390     7.0989938260    17.3852102910
O       7.4283303526     4.0087782016    21.6843405619
O       8.5306659939     4.9725076830    19.2468403696
O       8.5592767384     4.9593191498    24.1042151158
C       8.5381840833     4.9082628641    21.6803471731
C       9.3706786901     4.7473013504    20.3756373101