80
Step 1 | ATOMIC_POSITIONS (crystal) | Cartesian Angstrom
Ni      1.2286502138     0.7093620201    11.2500035815
Ni      2.4573004768     2.8374481654    11.2500035815
Ni      3.6859507398     4.9655343107    11.2500035815
Ni      4.9146010028     7.0936204560    11.2500035815
Ni      3.6859507398     0.7093620201    11.2500035815
Ni      4.9146010028     2.8374481654    11.2500035815
Ni      6.1432512658     4.9655343107    11.2500035815
Ni      7.3719015288     7.0936204560    11.2500035815
Ni      6.1432512658     0.7093620201    11.2500035815
Ni      7.3719015288     2.8374481654    11.2500035815
Ni      8.6005517918     4.9655343107    11.2500035815
Ni      9.8292020548     7.0936204560    11.2500035815
Ni      8.6005517918     0.7093620201    11.2500035815
Ni      9.8292020548     2.8374481654    11.2500035815
Ni     11.0578523178     4.9655343107    11.2500035815
Ni     12.2865025808     7.0936204560    11.2500035815
Ni      7.3614319542    -0.0015210709    13.3013352080
Ni      8.5894811615     2.1278541839    13.2995593319
Ni      9.8178112873     4.2547147219    13.3023253700
Ni     13.5044210260     6.3827239156    13.3009054421
Ni      2.4469376965    -0.0020782038    13.3021715509
Ni      3.6751846182     2.1294230090    13.3032992998
Ni      4.9068831625     4.2530611989    13.3040768978
Ni      6.1352230193     6.3807504987    13.3023114567
Ni      4.9041472041    -0.0015446500    13.2973637385
Ni      6.1345832365     2.1287790502    13.3027667303
Ni      7.3639827796     4.2540792753    13.3135514574
Ni      8.5913530347     6.3801111365    13.3069356911
Ni      7.3614427663     0.0001921236    13.2990569078
Ni      8.5887112892     2.1323252929    13.3080008302
Ni      9.8131995731     4.2528214913    13.3143827761
Ni     11.0451382940     6.3810789050    13.3009460225
Ni      2.4406376203     1.4160544837    15.3323735375
Ni      3.6721161379     3.5419510838    15.3433712152
Ni      4.8989106966     5.6707320918    15.3299058621
Ni      6.1253961270     7.7984974068    15.3335588720
Ni      4.8976272977     1.4180226229    15.3261473431
Ni      6.1333542422     3.5396151262    15.3471421015
Ni      7.3626507261     5.6661274241    15.3442334523
Ni      8.5840234970     7.7983036659    15.3255598934
Ni      7.3561148964     1.4240851147    15.3402186970
Ni      8.5713672689     3.5480391977    15.3896541394
Ni      9.8023938398     5.6608942049    15.3547333436
Ni     11.0426117959     7.7952003204    15.3217005031
Ni      9.8099962853     1.4189512346    15.3256951614
Ni     11.0380775358     3.5431024635    15.3310939019
Ni     12.2668468796     5.6712983329    15.3295062416
Ni     13.4963143916     7.7988993597    15.3256947749
Ni      1.2068101199     0.7084830354    17.3878455253
Ni      2.4330231831     2.8312240241    17.3892932798
Ni      3.6562940221     4.9656922147    17.3852190066
Ni      4.8866150037     7.0955747201    17.3827289153
Ni      3.6586147459     0.7054085467    17.3818639728
Ni      4.8693486833     2.8312548388    17.3964586208
Ni      6.0934436025     4.9869008914    17.3515797788
Ni      7.3406267278     7.1162315415    17.3724303801
Ni      6.1116548533     0.6699152194    17.3497486361
Ni      7.3319513266     2.7843190477    17.4844620716
Ni      8.5932378825     4.9940046984    17.5050135373
Ni      9.8203846216     7.1054511679    17.3596684208
Ni      8.5929592246     0.6828133793    17.3624209320
Ni      9.8285183355     2.8191505402    17.3710491002
Ni     11.0550987651     4.9595429821    17.3775392605
Ni     12.2667129075     7.0838381547    17.3867494678
O       9.0305819394     3.6865618580    21.6984180662
O       8.2405323477     5.0236141229    19.3833280723
O       8.9237894770     5.3833173737    24.0983477849
C       8.7187881977     5.0904564575    21.7308901241
C       8.9852954143     5.7264428334    20.3662242587
C       9.4402818077     5.8324371861    22.8463246360
H       7.6386762963     5.1241712155    21.9358262205
H      10.0575051286     5.6850964179    20.1219908658
H       8.6847653975     6.7772144798    20.3553135390
H       9.2772232082     6.9164428985    22.7128869713
H      10.5264213199     5.6424636169    22.7709134798
H       9.9882193779     3.5906849375    21.5735548490
H       7.8493550701     3.8118462901    19.6745222754
H       9.4146713793     5.8192874013    24.8124551789
O       6.9283259052     2.8134248819    19.3525909235
H       7.3583218472     2.1201638765    19.8134452521
80
Step 2 | ATOMIC_POSITIONS (crystal) | Cartesian Angstrom
Ni      1.2286502138     0.7093620201    11.2500035815
Ni      2.4573004768     2.8374481654    11.2500035815
Ni      3.6859507398     4.9655343107    11.2500035815
Ni      4.9146010028     7.0936204560    11.2500035815
Ni      3.6859507398     0.7093620201    11.2500035815
Ni      4.9146010028     2.8374481654    11.2500035815
Ni      6.1432512658     4.9655343107    11.2500035815
Ni      7.3719015288     7.0936204560    11.2500035815
Ni      6.1432512658     0.7093620201    11.2500035815
Ni      7.3719015288     2.8374481654    11.2500035815
Ni      8.6005517918     4.9655343107    11.2500035815
Ni      9.8292020548     7.0936204560    11.2500035815
Ni      8.6005517918     0.7093620201    11.2500035815
Ni      9.8292020548     2.8374481654    11.2500035815
Ni     11.0578523178     4.9655343107    11.2500035815
Ni     12.2865025808     7.0936204560    11.2500035815
Ni      7.3607319784    -0.0422641279    13.3555180636
Ni      8.5895201947     2.1250560886    13.2942760755
Ni      9.8185123645     4.2551843624    13.2993351232
Ni     13.5044210604     6.3827241846    13.3009052875
Ni      2.4469379447    -0.0020778846    13.3021714041
Ni      3.6751848069     2.1294233751    13.3032996747
Ni      4.9068830249     4.2530614117    13.3040770988
Ni      6.1352231426     6.3807507839    13.3023113176
Ni      4.9041474346    -0.0015442355    13.2973637926
Ni      6.1345832630     2.1287793140    13.3027666066
Ni      7.3639829098     4.2540795128    13.3135513337
Ni      8.5913532200     6.3801113740    13.3069355133
Ni      7.3617001115     0.0409357766    13.2448739091
Ni      8.5882297320     2.1351239765    13.3132839475
Ni      9.8120561199     4.2523521555    13.3173729804
Ni     11.0451383913     6.3810790599    13.3009461539
Ni      2.4406379741     1.4160548276    15.3323736032
Ni      3.6721171734     3.5419509689    15.3433733022
Ni      4.8989108755     5.6707326178    15.3299054910
Ni      6.1253964602     7.7984979635    15.3335586671
Ni      4.8976276668     1.4180233150    15.3261479731
Ni      6.1333542225     3.5396156897    15.3471414136
Ni      7.3626512628     5.6661278787    15.3442333943
Ni      8.5840240872     7.7983040906    15.3255595455
Ni      7.3561154213     1.4240853327    15.3402177463
Ni      8.5713677004     3.5480392607    15.3896540118
Ni      9.8023941091     5.6608944245    15.3547336180
Ni     11.0426121753     7.7952006813    15.3217002789
Ni      9.8099967896     1.4189515308    15.3256953778
Ni     11.0380782101     3.5431027751    15.3310938555
Ni     12.2668473769     5.6712984249    15.3295060909
Ni     13.4963147326     7.7988997785    15.3256948174
Ni      1.2068107701     0.7084837291    17.3878460161
Ni      2.4330237660     2.8312244498    17.3892934962
Ni      3.6562945588     4.9656935801    17.3852188790
Ni      4.8866156043     7.0955758233    17.3827288805
Ni      3.6586153499     0.7054086395    17.3818634665
Ni      4.8693503046     2.8312560518    17.3964640083
Ni      6.0934446651     4.9869032732    17.3515788319
Ni      7.3406277245     7.1162324473    17.3724294719
Ni      6.1116562112     0.6699143605    17.3497473800
Ni      7.3319528978     2.7843210762    17.4844586165
Ni      8.5932381056     4.9940046371    17.5050134291
Ni      9.8203849592     7.1054512028    17.3596685135
Ni      8.5929597264     0.6828144186    17.3624214577
Ni      9.8285188810     2.8191510714    17.3710490655
Ni     11.0550993062     4.9595433421    17.3775393185
Ni     12.2667135076     7.0838384041    17.3867491740
O       9.0305867488     3.6865635145    21.6984226460
O       8.2405377695     5.0236048002    19.3833358907
O       8.9237953534     5.3833150438    24.0983550971
C       8.7187881436     5.0904569580    21.7308979812
C       8.9852909867     5.7264445111    20.3662320269
C       9.4402812799     5.8324392853    22.8463313105
H       7.6386766098     5.1241673492    21.9358359096
H      10.0575003914     5.6851103756    20.1219992408
H       8.6847472105     6.7772105999    20.3553167081
H       9.2772167489     6.9164441422    22.7128957946
H      10.5264213189     5.6424717819    22.7709163088
H       9.9882251402     3.5906891843    21.5735680434
H       7.8493931725     3.8118546331    19.6745322273
H       9.4146749233     5.8192884696    24.8124618882
O       6.9282803911     2.8134220541    19.3525687280
H       7.3582498738     2.1201517293    19.8134245175
80
Step 3 | ATOMIC_POSITIONS (crystal) | Cartesian Angstrom
Ni      1.2286502138     0.7093620201    11.2500035815
Ni      2.4573004768     2.8374481654    11.2500035815
Ni      3.6859507398     4.9655343107    11.2500035815
Ni      4.9146010028     7.0936204560    11.2500035815
Ni      3.6859507398     0.7093620201    11.2500035815
Ni      4.9146010028     2.8374481654    11.2500035815
Ni      6.1432512658     4.9655343107    11.2500035815
Ni      7.3719015288     7.0936204560    11.2500035815
Ni      6.1432512658     0.7093620201    11.2500035815
Ni      7.3719015288     2.8374481654    11.2500035815
Ni      8.6005517918     4.9655343107    11.2500035815
Ni      9.8292020548     7.0936204560    11.2500035815
Ni      8.6005517918     0.7093620201    11.2500035815
Ni      9.8292020548     2.8374481654    11.2500035815
Ni     11.0578523178     4.9655343107    11.2500035815
Ni     12.2865025808     7.0936204560    11.2500035815
Ni      7.3436945658    -0.0437828621    13.3577162774
Ni      8.5791744341     2.0718959374    13.1938575931
Ni      9.8483777203     4.2757489824    13.1683599860
Ni     13.5044223932     6.3827345390    13.3008993666
Ni      2.4469474736    -0.0020656311    13.3021658117
Ni      3.6751920412     2.1294374272    13.3033140557
Ni      4.9068777136     4.2530695861    13.3040848400
Ni      6.1352278896     6.3807617504    13.3023060189
Ni      4.9041708300    -0.0015118869    13.2971846552
Ni      6.1347271188     2.1289000268    13.3030080137
Ni      7.3639950818     4.2540891684    13.3135744414
Ni      8.5913603393     6.3801204788    13.3069287538
Ni      7.3617262872     0.0424608389    13.2428513815
Ni      8.5814401453     2.1881961542    13.4134509203
Ni      9.7651967293     4.2317987309    13.4483185634
Ni     11.0451421190     6.3810849802    13.3009512014
Ni      2.4406515669     1.4160680371    15.3323761462
Ni      3.6721569315     3.5419465476    15.3434535045
Ni      4.8989177692     5.6707528338    15.3298913034
Ni      6.1254092377     7.7985193406    15.3335507984
Ni      4.8976418361     1.4180498897    15.3261721938
Ni      6.1333534490     3.5396373315    15.3471149822
Ni      7.3626718648     5.6661453426    15.3442311914
Ni      8.5840467244     7.7983203909    15.3255462081
Ni      7.3561355702     1.4240937122    15.3401812703
Ni      8.5713842602     3.5480416825    15.3896490842
Ni      9.8024044558     5.6609028407    15.3547441534
Ni     11.0426267230     7.7952145335    15.3216916643
Ni      9.8100161644     1.4189629144    15.3257036214
Ni     11.0381041149     3.5431147570    15.3310919888
Ni     12.2668664849     5.6713019626    15.3295002435
Ni     13.4963278251     7.7989158498    15.3256965102
Ni      1.2068357427     0.7085103821    17.3878649112
Ni      2.4330461574     2.8312407807    17.3893017862
Ni      3.6563151475     4.9657459982    17.3852139591
Ni      4.8866386818     7.0956181969    17.3827276051
Ni      3.6586385247     0.7054121968    17.3818440691
Ni      4.8694125795     2.8313026416    17.3966709530
Ni      6.0934854425     4.9869947145    17.3515423946
Ni      7.3406659974     7.1162672304    17.3723946036
Ni      6.1117083409     0.6698813743    17.3496991357
Ni      7.3320132289     2.7843989667    17.4843259108
Ni      8.5932466796     4.9940022945    17.5050093054
Ni      9.8203979392     7.1054525571    17.3596721155
Ni      8.5929789956     0.6828543177    17.3624415778
Ni      9.8285398236     2.8191714525    17.3710478055
Ni     11.0551200876     4.9595571534    17.3775414982
Ni     12.2667365360     7.0838479763    17.3867379236
O       9.0307714037     3.6866271128    21.6985984829
O       8.2407459535     5.0232467718    19.3836361626
O       8.9240209788     5.3832255706    24.0986359445
C       8.7187860696     5.0904761891    21.7311996483
C       8.9851209612     5.7265089309    20.3665303934
C       9.4402610322     5.8325199065    22.8465876241
H       7.6386886299     5.1240188718    21.9362080358
H      10.0573185084     5.6856463426    20.1223207961
H       8.6840488580     6.7770616211    20.3554383257
H       9.2769687346     6.9164919135    22.7132345908
H      10.5264212796     5.6427853222    22.7710248981
H       9.9884464084     3.5908522604    21.5740746531
H       7.8508562670     3.8121750292    19.6749142860
H       9.4148110081     5.8193294966    24.8127194849
O       6.9265327167     2.8133135183    19.3517164273
H       7.3554861705     2.1196852648    19.8126283917
80
Step 4 | ATOMIC_POSITIONS (crystal) | Cartesian Angstrom
Ni      1.2286502138     0.7093620201    11.2500035815
Ni      2.4573004768     2.8374481654    11.2500035815
Ni      3.6859507398     4.9655343107    11.2500035815
Ni      4.9146010028     7.0936204560    11.2500035815
Ni      3.6859507398     0.7093620201    11.2500035815
Ni      4.9146010028     2.8374481654    11.2500035815
Ni      6.1432512658     4.9655343107    11.2500035815
Ni      7.3719015288     7.0936204560    11.2500035815
Ni      6.1432512658     0.7093620201    11.2500035815
Ni      7.3719015288     2.8374481654    11.2500035815
Ni      8.6005517918     4.9655343107    11.2500035815
Ni      9.8292020548     7.0936204560    11.2500035815
Ni      8.6005517918     0.7093620201    11.2500035815
Ni      9.8292020548     2.8374481654    11.2500035815
Ni     11.0578523178     4.9655343107    11.2500035815
Ni     12.2865025808     7.0936204560    11.2500035815
Ni      7.3293363057    -0.0803493314    13.4064837198
Ni      8.5747032264     2.0423607899    13.1380708837
Ni      9.8632213243     4.2855956217    13.1056401405
Ni     13.5044229869     6.3827390352    13.3008969705
Ni      2.4469506617    -0.0020603151    13.3021635778
Ni      3.6751942773     2.1294434591    13.3033198683
Ni      4.9068750401     4.2530729094    13.3040879318
Ni      6.1352295355     6.3807665471    13.3023040517
Ni      4.9041803481    -0.0014987106    13.2971101341
Ni      6.1347848595     2.1289495516    13.3031072076
Ni      7.3639938811     4.2540942119    13.3136002505
Ni      8.5913624766     6.3801254798    13.3069261605
Ni      7.3692608792     0.0790219249    13.1941570534
Ni      8.5790421011     2.2176923373    13.4691342694
Ni      9.7435515155     4.2219621626    13.5110099562
Ni     11.0451444014     6.3810881485    13.3009532768
Ni      2.4406568339     1.4160733820    15.3323767260
Ni      3.6721726499     3.5419448476    15.3434852577
Ni      4.8989205052     5.6707609571    15.3298853477
Ni      6.1254142516     7.7985280436    15.3335472350
Ni      4.8976473060     1.4180605829    15.3261819253
Ni      6.1333531079     3.5396461179    15.3471044004
Ni      7.3626801429     5.6661524215    15.3442302677
Ni      8.5840557245     7.7983269105    15.3255407819
Ni      7.3561430497     1.4240967418    15.3401679290
Ni      8.5713902181     3.5480428121    15.3896492079
Ni      9.8024086686     5.6609071615    15.3547495371
Ni     11.0426323709     7.7952200869    15.3216884565
Ni      9.8100248623     1.4189672965    15.3257072234
Ni     11.0381154284     3.5431189792    15.3310917647
Ni     12.2668741836     5.6713029611    15.3294976231
Ni     13.4963334760     7.7989222665    15.3256969006
Ni      1.2068457881     0.7085210055    17.3878725828
Ni      2.4330551968     2.8312473037    17.3893051756
Ni      3.6563234586     4.9657669990    17.3852120499
Ni      4.8866480028     7.0956351909    17.3827271104
Ni      3.6586478845     0.7054135580    17.3818363588
Ni      4.8694375584     2.8313212496    17.3967538529
Ni      6.0935017816     4.9870313482    17.3515276967
Ni      7.3406813890     7.1162811685    17.3723806517
Ni      6.1117292073     0.6698681802    17.3496800397
Ni      7.3320372682     2.7844302070    17.4842727582
Ni      8.5932501130     4.9940014330    17.5050077710
Ni      9.8204031088     7.1054531964    17.3596736460
Ni      8.5929867130     0.6828702605    17.3624497635
Ni      9.8285481971     2.8191795988    17.3710474693
Ni     11.0551284507     4.9595627333    17.3775423756
Ni     12.2667457101     7.0838518724    17.3867335680
O       9.0308452156     3.6866526404    21.6986690077
O       8.2408289724     5.0231017717    19.3837566980
O       8.9241113878     5.3831896570    24.0987485493
C       8.7187852863     5.0904838621    21.7313205895
C       8.9850529273     5.7265345037    20.3666502177
C       9.4402528996     5.8325522245    22.8466903505
H       7.6386934182     5.1239593475    21.9363572133
H      10.0572457665     5.6858612095    20.1224497104
H       8.6837687867     6.7770021556    20.3554870531
H       9.2768693122     6.9165111139    22.7133704115
H      10.5264213248     5.6429110155    22.7710684042
H       9.9885352791     3.5909176165    21.5742777059
H       7.8514420796     3.8123043403    19.6750666751
H       9.4148655847     5.8193459629    24.8128227679
O       6.9258326371     2.8132722394    19.3513744890
H       7.3543788819     2.1194966031    19.8123100558
80
Step 5 | ATOMIC_POSITIONS (crystal) | Cartesian Angstrom
Ni      1.2286502138     0.7093620201    11.2500035815
Ni      2.4573004768     2.8374481654    11.2500035815
Ni      3.6859507398     4.9655343107    11.2500035815
Ni      4.9146010028     7.0936204560    11.2500035815
Ni      3.6859507398     0.7093620201    11.2500035815
Ni      4.9146010028     2.8374481654    11.2500035815
Ni      6.1432512658     4.9655343107    11.2500035815
Ni      7.3719015288     7.0936204560    11.2500035815
Ni      6.1432512658     0.7093620201    11.2500035815
Ni      7.3719015288     2.8374481654    11.2500035815
Ni      8.6005517918     4.9655343107    11.2500035815
Ni      9.8292020548     7.0936204560    11.2500035815
Ni      8.6005517918     0.7093620201    11.2500035815
Ni      9.8292020548     2.8374481654    11.2500035815
Ni     11.0578523178     4.9655343107    11.2500035815
Ni     12.2865025808     7.0936204560    11.2500035815
Ni      7.3107868444    -0.1229943927    13.4634077359
Ni      8.5687086300     2.0045937421    13.0667404665
Ni      9.8816112292     4.2980009483    13.0266113914
Ni     13.5044255966     6.3827418698    13.3008938091
Ni      2.4469534355    -0.0020528532    13.3021610502
Ni      3.6751960554     2.1294517212    13.3033273081
Ni      4.9068709910     4.2530773213    13.3040922488
Ni      6.1352311745     6.3807732999    13.3023017290
Ni      4.9041906305    -0.0014771403    13.2969644427
Ni      6.1348669716     2.1290258613    13.3032571465
Ni      7.3639775647     4.2541040369    13.3136762673
Ni      8.5913638891     6.3801342288    13.3069230996
Ni      7.3790948760     0.1216437909    13.1373772872
Ni      8.5762605598     2.2553990581    13.5403099169
Ni      9.7165000804     4.2095770358    13.5899589822
Ni     11.0451469968     6.3810901004    13.3009558391
Ni      2.4406630391     1.4160804115    15.3323767066
Ni      3.6721923446     3.5419428285    15.3435251231
Ni      4.8989237046     5.6707715754    15.3298772471
Ni      6.1254204042     7.7985394221    15.3335420253
Ni      4.8976542823     1.4180740877    15.3261940724
Ni      6.1333526037     3.5396572725    15.3470906842
Ni      7.3626907157     5.6661614488    15.3442289923
Ni      8.5840671755     7.7983352441    15.3255336088
Ni      7.3561515382     1.4241011018    15.3401543867
Ni      8.5713959795     3.5480450840    15.3896554379
Ni      9.8024141769     5.6609144004    15.3547583489
Ni     11.0426371518     7.7952259843    15.3216875947
Ni      9.8100377763     1.4189715553    15.3257129240
Ni     11.0381316736     3.5431233145    15.3310924023
Ni     12.2668840865     5.6713039724    15.3294935458
Ni     13.4963428933     7.7989293981    15.3256994977
Ni      1.2068587224     0.7085344993    17.3878824342
Ni      2.4330668208     2.8312555879    17.3893095892
Ni      3.6563341085     4.9657937363    17.3852095958
Ni      4.8866600436     7.0956568412    17.3827267201
Ni      3.6586599759     0.7054151813    17.3818267857
Ni      4.8694695038     2.8313449028    17.3968597446
Ni      6.0935226844     4.9870781219    17.3515088056
Ni      7.3407011368     7.1162989883    17.3723628736
Ni      6.1117557594     0.6698513777    17.3496558654
Ni      7.3320677997     2.7844703239    17.4842050507
Ni      8.5932544742     4.9940005461    17.5050059121
Ni      9.8204096792     7.1054541795    17.3596758296
Ni      8.5929964601     0.6828904645    17.3624604767
Ni      9.8285588048     2.8191899992    17.3710471640
Ni     11.0551391390     4.9595699807    17.3775435930
Ni     12.2667572019     7.0838570147    17.3867282229
O       9.0309390737     3.6866852955    21.6987590963
O       8.2409341817     5.0229140702    19.3839108456
O       8.9242267334     5.3831437295    24.0988923199
C       8.7187843726     5.0904935636    21.7314750076
C       8.9849662662     5.7265667280    20.3668035073
C       9.4402424973     5.8325934855    22.8468214407
H       7.6386994809     5.1238833544    21.9365476552
H      10.0571532225     5.6861355130    20.1226142930
H       8.6834110558     6.7769266834    20.3555492223
H       9.2767423941     6.9165357120    22.7135437981
H      10.5264214870     5.6430714766    22.7711239027
H       9.9886490226     3.5910010187    21.5745368640
H       7.8521886836     3.8124709107    19.6752598881
H       9.4149352954     5.8193670173    24.8129546426
O       6.9249398340     2.8132233325    19.3509374960
H       7.3529663769     2.1192528904    19.8119051019
80
Step 6 | ATOMIC_POSITIONS (crystal) | Cartesian Angstrom
Ni      1.2286502138     0.7093620201    11.2500035815
Ni      2.4573004768     2.8374481654    11.2500035815
Ni      3.6859507398     4.9655343107    11.2500035815
Ni      4.9146010028     7.0936204560    11.2500035815
Ni      3.6859507398     0.7093620201    11.2500035815
Ni      4.9146010028     2.8374481654    11.2500035815
Ni      6.1432512658     4.9655343107    11.2500035815
Ni      7.3719015288     7.0936204560    11.2500035815
Ni      6.1432512658     0.7093620201    11.2500035815
Ni      7.3719015288     2.8374481654    11.2500035815
Ni      8.6005517918     4.9655343107    11.2500035815
Ni      9.8292020548     7.0936204560    11.2500035815
Ni      8.6005517918     0.7093620201    11.2500035815
Ni      9.8292020548     2.8374481654    11.2500035815
Ni     11.0578523178     4.9655343107    11.2500035815
Ni     12.2865025808     7.0936204560    11.2500035815
Ni      7.2918337768    -0.1639036074    13.5180673186
Ni      8.5622263714     1.9662819741    12.9943813474
Ni      9.9001325122     4.3107085074    12.9456427364
Ni     13.5044297873     6.3827424206    13.3008904351
Ni      2.4469552067    -0.0020441689    13.3021586154
Ni      3.6751969632     2.1294610379    13.3033352734
Ni      4.9068660552     4.2530819818    13.3040971378
Ni      6.1352325944     6.3807809857    13.3022994217
Ni      4.9041996006    -0.0014503520    13.2967680606
Ni      6.1349646174     2.1291204786    13.3034418144
Ni      7.3639485715     4.2541158214    13.3137979196
Ni      8.5913650165     6.3801445322    13.3069199034
Ni      7.3888008715     0.1625200483    13.0829105232
Ni      8.5734230603     2.2936389913    13.6124790075
Ni      9.6888017413     4.1968897599    13.6707997317
Ni     11.0451487228     6.3810895846    13.3009583551
Ni      2.4406692098     1.4160881475    15.3323759491
Ni      3.6722128051     3.5419408536    15.3435667393
Ni      4.8989268691     5.6707830186    15.3298683619
Ni      6.1254265066     7.7985517965    15.3335358493
Ni      4.8976615318     1.4180885085    15.3262067335
Ni      6.1333518748     3.5396691413    15.3470760520
Ni      7.3627018207     5.6661711886    15.3442274850
Ni      8.5840792556     7.7983441565    15.3255257865
Ni      7.3561603776     1.4241072085    15.3401421314
Ni      8.5714013330     3.5480489325    15.3896658806
Ni      9.8024203998     5.6609222863    15.3547673925
Ni     11.0426399015     7.7952312117    15.3216902034
Ni      9.8100519137     1.4189761996    15.3257185280
Ni     11.0381493612     3.5431276507    15.3310926536
Ni     12.2668946780     5.6713045453    15.3294885679
Ni     13.4963552290     7.7989363152    15.3257040814
Ni      1.2068723840     0.7085488477    17.3878928382
Ni      2.4330792081     2.8312644280    17.3893144705
Ni      3.6563454681     4.9658220364    17.3852070064
Ni      4.8866729906     7.0956796883    17.3827263181
Ni      3.6586728640     0.7054168361    17.3818165826
Ni      4.8695033708     2.8313699010    17.3969719321
Ni      6.0935447932     4.9871277965    17.3514887086
Ni      7.3407221590     7.1163178252    17.3723440018
Ni      6.1117841093     0.6698336609    17.3496302650
Ni      7.3321001378     2.7845131257    17.4841331423
Ni      8.5932590335     4.9939995441    17.5050042347
Ni      9.8204165223     7.1054551125    17.3596784770
Ni      8.5930067321     0.6829117309    17.3624720054
Ni      9.8285700680     2.8192010448    17.3710468587
Ni     11.0551505458     4.9595777627    17.3775449572
Ni     12.2667692240     7.0838625324    17.3867227001
O       9.0310383107     3.6867199978    21.6988547346
O       8.2410450826     5.0227125166    19.3840747132
O       8.9243490534     5.3830949291    24.0990448791
C       8.7187834900     5.0905038142    21.7316388674
C       8.9848745062     5.7266004667    20.3669664782
C       9.4402314341     5.8326372500    22.8469604847
H       7.6387058645     5.1238027212    21.9367497109
H      10.0570553262     5.6864265543    20.1227889279
H       8.6830312982     6.7768470462    20.3556151442
H       9.2766077335     6.9165618952    22.7137277665
H      10.5264217602     5.6432417303    22.7711827443
H       9.9887699813     3.5910894850    21.5748117711
H       7.8529796872     3.8126491260    19.6754636018
H       9.4150092965     5.8193893877    24.8130945871
O       6.9239933610     2.8131750003    19.3504734184
H       7.3514687098     2.1189915742    19.8114768240
80
Step 7 | ATOMIC_POSITIONS (crystal) | Cartesian Angstrom
Ni      1.2286502138     0.7093620201    11.2500035815
Ni      2.4573004768     2.8374481654    11.2500035815
Ni      3.6859507398     4.9655343107    11.2500035815
Ni      4.9146010028     7.0936204560    11.2500035815
Ni      3.6859507398     0.7093620201    11.2500035815
Ni      4.9146010028     2.8374481654    11.2500035815
Ni      6.1432512658     4.9655343107    11.2500035815
Ni      7.3719015288     7.0936204560    11.2500035815
Ni      6.1432512658     0.7093620201    11.2500035815
Ni      7.3719015288     2.8374481654    11.2500035815
Ni      8.6005517918     4.9655343107    11.2500035815
Ni      9.8292020548     7.0936204560    11.2500035815
Ni      8.6005517918     0.7093620201    11.2500035815
Ni      9.8292020548     2.8374481654    11.2500035815
Ni     11.0578523178     4.9655343107    11.2500035815
Ni     12.2865025808     7.0936204560    11.2500035815
Ni      7.2724802671    -0.2093267762    13.5787592721
Ni      8.5562070098     1.9313480329    12.9283902764
Ni      9.9161129105     4.3218477377    12.8746394746
Ni     13.5044343387     6.3827387577    13.3008888467
Ni      2.4469527455    -0.0020343525    13.3021572280
Ni      3.6751940527     2.1294711217    13.3033423228
Ni      4.9068597940     4.2530858515    13.3041022007
Ni      6.1352324872     6.3807903016    13.3022983434
Ni      4.9042028604    -0.0014198480    13.2965118745
Ni      6.1350698100     2.1292299022    13.3036526084
Ni      7.3638923190     4.2541332462    13.3139881104
Ni      8.5913637097     6.3801581579    13.3069174879
Ni      7.4001073157     0.2078869812    13.0224693451
Ni      8.5713180285     2.3284812111    13.6782551106
Ni      9.6648850761     4.1857831455    13.7416031949
Ni     11.0451505264     6.3810870428    13.3009618102
Ni      2.4406728358     1.4160958222    15.3323730621
Ni      3.6722291609     3.5419395649    15.3436008037
Ni      4.8989287637     5.6707933926    15.3298589898
Ni      6.1254306074     7.7985638772    15.3335280540
Ni      4.8976678427     1.4181010889    15.3262169211
Ni      6.1333507632     3.5396793680    15.3470627030
Ni      7.3627113708     5.6661800857    15.3442259507
Ni      8.5840899031     7.7983518219    15.3255179757
Ni      7.3561651767     1.4241122385    15.3401398899
Ni      8.5714017635     3.5480542135    15.3896918173
Ni      9.8024265199     5.6609337073    15.3547799028
Ni     11.0426367016     7.7952355334    15.3216977475
Ni      9.8100689792     1.4189772807    15.3257247117
Ni     11.0381697986     3.5431281350    15.3310950188
Ni     12.2669045740     5.6713034182    15.3294821292
Ni     13.4963703227     7.7989409800    15.3257096853
Ni      1.2068845526     0.7085610118    17.3879028403
Ni      2.4330903588     2.8312722210    17.3893192744
Ni      3.6563555062     4.9658464643    17.3852049580
Ni      4.8866844401     7.0956993714    17.3827263143
Ni      3.6586844432     0.7054180014    17.3818080337
Ni      4.8695331415     2.8313912262    17.3970692246
Ni      6.0935641415     4.9871709464    17.3514707450
Ni      7.3407408198     7.1163342030    17.3723274527
Ni      6.1118083137     0.6698181446    17.3496092714