2
Step 1 | ATOMIC_POSITIONS angstrom | Cartesian Angstrom
O       5.2084084500     3.0950103760     5.1689407290
H       6.1898687300     3.0605327850     5.1838784550
