125
Step 1 | ATOMIC_POSITIONS (angstrom) | Cartesian Angstrom
NI      0.0000000000     0.0000000000     1.1900000730
NI      1.2286496050     2.1280835410     1.1900000730
NI      2.4572992100     4.2561670810     1.1900000730
NI      3.6859488150     6.3842506220     1.1900000730
NI      4.9145984200     8.5123341620     1.1900000730
NI      2.4572992100     0.0000000000     1.1900000730
NI      3.6859488150     2.1280835410     1.1900000730
NI      4.9145984200     4.2561670810     1.1900000730
NI      6.1432480250     6.3842506220     1.1900000730
NI      7.3718976300     8.5123341620     1.1900000730
NI      4.9145984200     0.0000000000     1.1900000730
NI      6.1432480250     2.1280835410     1.1900000730
NI      7.3718976300     4.2561670810     1.1900000730
NI      8.6005472350     6.3842506220     1.1900000730
NI      9.8291968400     8.5123341620     1.1900000730
NI      7.3718976300     0.0000000000     1.1900000730
NI      8.6005472350     2.1280835410     1.1900000730
NI      9.8291968400     4.2561670810     1.1900000730
NI     11.0578464450     6.3842506220     1.1900000730
NI     12.2864960500     8.5123341620     1.1900000730
NI      9.8291968400     0.0000000000     1.1900000730
NI     11.0578464450     2.1280835410     1.1900000730
NI     12.2864960500     4.2561670810     1.1900000730
NI     13.5151456550     6.3842506220     1.1900000730
NI     14.7437952600     8.5123341620     1.1900000730
NI      1.2253324314     0.6996361532     3.1989489103
NI      2.4549311417     2.8289058428     3.2012891321
NI      3.6836487533     4.9582179911     3.1971645431
NI      4.9113056515     7.0852655003     3.2059672149
NI      6.1417735236     9.2143976619     3.2084443041
NI      3.6818341586     0.7008101728     3.2010225708
NI      4.9160041358     2.8339983962     3.2032360109
NI      6.1438516730     4.9623100434     3.2150405896
NI      7.3718438947     7.0792385909     3.2139422781
NI      8.5927311092     9.2091650673     3.2079598385
NI      6.1394609909     0.7023538323     3.1963070626
NI      7.3699791434     2.8350595246     3.2073213979
NI      8.5938160888     4.9588176041     3.2088927738
NI      9.8236683255     7.0855898898     3.2000760614
NI     11.0537809761     9.2124446830     3.2003718462
NI      8.6000636564     0.7017237228     3.1967200423
NI      9.8214437415     2.8325533065     3.2039587459
NI     11.0539637977     4.9569808838     3.1936704146
NI     12.2830597857     7.0861230634     3.2017891190
NI     13.5133685295     9.2127062619     3.2009766314
NI     11.0564800027     0.6997156725     3.2007164552
NI     12.2822872385     2.8291660662     3.1949789126
NI     13.5107313606     4.9568417136     3.1955436939
NI     14.7427647594     7.0851106855     3.2014673753
NI     15.9750147015     9.2108095430     3.2067402823
NI      2.4498553528     1.4046642313     5.2092423387
NI      3.6809645263     3.5343731920     5.2048421943
NI      4.9162905136     5.6676250900     5.2186294129
NI      6.1400541065     7.7895557887     5.2074607547
NI      7.3673243383     9.9071646769     5.2304179984
NI      4.9068437110     1.4087738885     5.2098722942
NI      6.1537076257     3.5412846991     5.2347564561
NI      7.3582389698     5.6493383659     5.2688396774
NI      8.5863057534     7.7918149510     5.2325998139
NI      9.8253164106     9.9185862741     5.2041515356
NI      7.3681524312     1.4053220056     5.2021343803
NI      8.5819727569     3.5432859109     5.2408678719
NI      9.8248715941     5.6617290583     5.1994937518
NI     11.0521241057     7.7889480302     5.2095018105
NI     12.2813630830     9.9168470843     5.2124868994
NI      9.8277973494     1.4056336746     5.2041466882
NI     11.0511036114     3.5323055302     5.2019370759
NI     12.2805593666     5.6606394285     5.2026763402
NI     13.5127982266     7.7890582144     5.2102939542
NI     14.7396360402     9.9193477814     5.2021028718
NI     12.2820687132     1.4061102473     5.2045094383
NI     13.5084732678     3.5329228810     5.2032559182
NI     14.7367779534     5.6596807001     5.2011248424
NI     15.9782610147     7.7958207577     5.2309698440
NI     17.1982024933     9.9068368433     5.2310517204
NI     -0.0044187245     0.0297956986     7.2000095916
NI      1.2274072307     2.1185239881     7.2210970237
NI      2.4426205108     4.2321082935     7.2251548407
NI      3.6358851556     6.3466741803     7.1974186450
NI      4.8607807533     8.5280554431     7.3826730735
NI      2.4661558491    -0.0076958924     7.2112781970
NI      3.6782662941     2.1130112579     7.2320395926
NI      4.8906756603     4.2319998829     7.1867621998
NI      6.1179550695     6.3384156979     7.3283667617
NI      7.4139938545     8.5224957074     7.3696773636
NI      4.9147347529    -0.0150913587     7.2304987727
NI      6.1311657630     2.0882174003     7.2019306151
NI      7.3761041881     4.2205673988     7.4028222846
NI      8.6475795581     6.3538689644     7.1963159238
NI      9.8400274114     8.5062569667     7.2130057194
NI      7.3625102353    -0.0164111981     7.2265687418
NI      8.6024570273     2.0941666525     7.2050166600
NI      9.8448249382     4.2363114504     7.2067850879
NI     11.0658229769     6.3705932223     7.2245150125
NI     12.2819491043     8.4950656487     7.2308429565
NI      9.8123134440    -0.0116310685     7.2122042729
NI     11.0468751257     2.1175360246     7.2233729387
NI     12.2817662039     4.2384363704     7.2173545699
NI     13.4995472871     6.3677959734     7.2185751826
NI     14.7248515862     8.5039827847     7.2094365049
C       7.9389339474     3.7248057550    10.3126095628
C       7.3410785601     3.4221163763    11.6571963230
C       7.9653211183     4.3384434874    12.7500699662
C       8.0669045169     3.6317613035    14.1170635248
C       8.2692435335     4.6383405643    15.2662310212
C       8.6072661703     3.9621814482    16.5981999230
O       7.1846530774     4.0888470895     9.3975266156
O       5.9369260861     3.5372474745    11.6415531435
O       9.2618100599     4.7361464742    12.3005694080
O       6.8802297879     2.8781171488    14.3331322094
O       9.3749511825     5.5085566841    14.9322377870
O       7.4929733192     3.1463033135    17.0101888925
H       9.0163871151     3.5765725377    10.1398915205
H       7.6301905363     2.3723058911    11.8788775288
H       7.2788346945     5.2019114429    12.8251383944
H       8.9586829343     2.9717577601    14.0640774341
H       7.3333536498     5.2152048747    15.3652183323
H       9.5184465739     3.3558936621    16.4613101155
H       8.8168754349     4.7389207108    17.3545956931
H       5.6898813364     3.8177321249    10.7350860021
H       9.6575137391     5.2471684801    13.0358468133
H       6.8548019558     2.6381671567    15.2823567529
H       9.2605957463     6.3575915327    15.3892774159
H       7.7734980365     2.5758607398    17.7440031731
O       6.1434306265     7.7827172928     8.4475061574
