125
Step 1 | ATOMIC_POSITIONS (angstrom) | Cartesian Angstrom
NI      0.0000000000     0.0000000000     1.1900000730
NI      1.2286496050     2.1280835410     1.1900000730
NI      2.4572992100     4.2561670810     1.1900000730
NI      3.6859488150     6.3842506220     1.1900000730
NI      4.9145984200     8.5123341620     1.1900000730
NI      2.4572992100     0.0000000000     1.1900000730
NI      3.6859488150     2.1280835410     1.1900000730
NI      4.9145984200     4.2561670810     1.1900000730
NI      6.1432480250     6.3842506220     1.1900000730
NI      7.3718976300     8.5123341620     1.1900000730
NI      4.9145984200     0.0000000000     1.1900000730
NI      6.1432480250     2.1280835410     1.1900000730
NI      7.3718976300     4.2561670810     1.1900000730
NI      8.6005472350     6.3842506220     1.1900000730
NI      9.8291968400     8.5123341620     1.1900000730
NI      7.3718976300     0.0000000000     1.1900000730
NI      8.6005472350     2.1280835410     1.1900000730
NI      9.8291968400     4.2561670810     1.1900000730
NI     11.0578464450     6.3842506220     1.1900000730
NI     12.2864960500     8.5123341620     1.1900000730
NI      9.8291968400     0.0000000000     1.1900000730
NI     11.0578464450     2.1280835410     1.1900000730
NI     12.2864960500     4.2561670810     1.1900000730
NI     13.5151456550     6.3842506220     1.1900000730
NI     14.7437952600     8.5123341620     1.1900000730
NI      1.2253324314     0.6996361532     3.1989489103
NI      2.4549311417     2.8289058428     3.2012891321
NI      3.6836487533     4.9582179911     3.1971645431
NI      4.9113056515     7.0852655003     3.2059672149
NI      6.1417735236     9.2143976619     3.2084443041
NI      3.6818341586     0.7008101728     3.2010225708
NI      4.9160041358     2.8339983962     3.2032360109
NI      6.1438516730     4.9623100434     3.2150405896
NI      7.3718438947     7.0792385909     3.2139422781
NI      8.5927311092     9.2091650673     3.2079598385
NI      6.1394609909     0.7023538323     3.1963070626
NI      7.3699791434     2.8350595246     3.2073213979
NI      8.5938160888     4.9588176041     3.2088927738
NI      9.8236683255     7.0855898898     3.2000760614
NI     11.0537809761     9.2124446830     3.2003718462
NI      8.6000636564     0.7017237228     3.1967200423
NI      9.8214437415     2.8325533065     3.2039587459
NI     11.0539637977     4.9569808838     3.1936704146
NI     12.2830597857     7.0861230634     3.2017891190
NI     13.5133685295     9.2127062619     3.2009766314
NI     11.0564800027     0.6997156725     3.2007164552
NI     12.2822872385     2.8291660662     3.1949789126
NI     13.5107313606     4.9568417136     3.1955436939
NI     14.7427647594     7.0851106855     3.2014673753
NI     15.9750147015     9.2108095430     3.2067402823
NI      2.4498553528     1.4046642313     5.2092423387
NI      3.6809645263     3.5343731920     5.2048421943
NI      4.9162905136     5.6676250900     5.2186294129
NI      6.1400541065     7.7895557887     5.2074607547
NI      7.3673243383     9.9071646769     5.2304179984
NI      4.9068437110     1.4087738885     5.2098722942
NI      6.1537076257     3.5412846991     5.2347564561
NI      7.3582389698     5.6493383659     5.2688396774
NI      8.5863057534     7.7918149510     5.2325998139
NI      9.8253164106     9.9185862741     5.2041515356
NI      7.3681524312     1.4053220056     5.2021343803
NI      8.5819727569     3.5432859109     5.2408678719
NI      9.8248715941     5.6617290583     5.1994937518
NI     11.0521241057     7.7889480302     5.2095018105
NI     12.2813630830     9.9168470843     5.2124868994
NI      9.8277973494     1.4056336746     5.2041466882
NI     11.0511036114     3.5323055302     5.2019370759
NI     12.2805593666     5.6606394285     5.2026763402
NI     13.5127982266     7.7890582144     5.2102939542
NI     14.7396360402     9.9193477814     5.2021028718
NI     12.2820687132     1.4061102473     5.2045094383
NI     13.5084732678     3.5329228810     5.2032559182
NI     14.7367779534     5.6596807001     5.2011248424
NI     15.9782610147     7.7958207577     5.2309698440
NI     17.1982024933     9.9068368433     5.2310517204
NI     -0.0044187245     0.0297956986     7.2000095916
NI      1.2274072307     2.1185239881     7.2210970237
NI      2.4426205108     4.2321082935     7.2251548407
NI      3.6358851556     6.3466741803     7.1974186450
NI      4.8607807533     8.5280554431     7.3826730735
NI      2.4661558491    -0.0076958924     7.2112781970
NI      3.6782662941     2.1130112579     7.2320395926
NI      4.8906756603     4.2319998829     7.1867621998
NI      6.1179550695     6.3384156979     7.3283667617
NI      7.4139938545     8.5224957074     7.3696773636
NI      4.9147347529    -0.0150913587     7.2304987727
NI      6.1311657630     2.0882174003     7.2019306151
NI      7.3761041881     4.2205673988     7.4028222846
NI      8.6475795581     6.3538689644     7.1963159238
NI      9.8400274114     8.5062569667     7.2130057194
NI      7.3625102353    -0.0164111981     7.2265687418
NI      8.6024570273     2.0941666525     7.2050166600
NI      9.8448249382     4.2363114504     7.2067850879
NI     11.0658229769     6.3705932223     7.2245150125
NI     12.2819491043     8.4950656487     7.2308429565
NI      9.8123134440    -0.0116310685     7.2122042729
NI     11.0468751257     2.1175360246     7.2233729387
NI     12.2817662039     4.2384363704     7.2173545699
NI     13.4995472871     6.3677959734     7.2185751826
NI     14.7248515862     8.5039827847     7.2094365049
C       7.9389339474     3.7248057550    10.3126095628
C       7.3410785601     3.4221163763    11.6571963230
C       7.9653211183     4.3384434874    12.7500699662
C       8.0669045169     3.6317613035    14.1170635248
C       8.2692435335     4.6383405643    15.2662310212
C       8.6072661703     3.9621814482    16.5981999230
O       7.1846530774     4.0888470895     9.3975266156
O       5.9369260861     3.5372474745    11.6415531435
O       9.2618100599     4.7361464742    12.3005694080
O       6.8802297879     2.8781171488    14.3331322094
O       9.3749511825     5.5085566841    14.9322377870
O       7.4929733192     3.1463033135    17.0101888925
H       9.0163871151     3.5765725377    10.1398915205
H       7.6301905363     2.3723058911    11.8788775288
H       7.2788346945     5.2019114429    12.8251383944
H       8.9586829343     2.9717577601    14.0640774341
H       7.3333536498     5.2152048747    15.3652183323
H       9.5184465739     3.3558936621    16.4613101155
H       8.8168754349     4.7389207108    17.3545956931
H       5.6898813364     3.8177321249    10.7350860021
H       9.6575137391     5.2471684801    13.0358468133
H       6.8548019558     2.6381671567    15.2823567529
H       9.2605957463     6.3575915327    15.3892774159
H       7.7734980365     2.5758607398    17.7440031731
O       6.1434306265     7.7827172928     8.4475061574
125
Step 2 | ATOMIC_POSITIONS (angstrom) | Cartesian Angstrom
NI      0.0000000000     0.0000000000     1.1900000730
NI      1.2286496050     2.1280835410     1.1900000730
NI      2.4572992100     4.2561670810     1.1900000730
NI      3.6859488150     6.3842506220     1.1900000730
NI      4.9145984200     8.5123341620     1.1900000730
NI      2.4572992100     0.0000000000     1.1900000730
NI      3.6859488150     2.1280835410     1.1900000730
NI      4.9145984200     4.2561670810     1.1900000730
NI      6.1432480250     6.3842506220     1.1900000730
NI      7.3718976300     8.5123341620     1.1900000730
NI      4.9145984200     0.0000000000     1.1900000730
NI      6.1432480250     2.1280835410     1.1900000730
NI      7.3718976300     4.2561670810     1.1900000730
NI      8.6005472350     6.3842506220     1.1900000730
NI      9.8291968400     8.5123341620     1.1900000730
NI      7.3718976300     0.0000000000     1.1900000730
NI      8.6005472350     2.1280835410     1.1900000730
NI      9.8291968400     4.2561670810     1.1900000730
NI     11.0578464450     6.3842506220     1.1900000730
NI     12.2864960500     8.5123341620     1.1900000730
NI      9.8291968400     0.0000000000     1.1900000730
NI     11.0578464450     2.1280835410     1.1900000730
NI     12.2864960500     4.2561670810     1.1900000730
NI     13.5151456550     6.3842506220     1.1900000730
NI     14.7437952600     8.5123341620     1.1900000730
NI      1.2251943119     0.6995342248     3.1989792649
NI      2.4550004550     2.8289788809     3.2014513138
NI      3.6837746009     4.9582831733     3.1971074584
NI      4.9113492808     7.0853624637     3.2058698839
NI      6.1418051358     9.2143287368     3.2083010394
NI      3.6818626860     0.7008233397     3.2010165160
NI      4.9160869218     2.8341096476     3.2032157903
NI      6.1439610205     4.9622949343     3.2149256827
NI      7.3718377126     7.0793640200     3.2138291582
NI      8.5927073197     9.2091205806     3.2079003360
NI      6.1394724451     0.7023925418     3.1964103251
NI      7.3700073502     2.8350793491     3.2072287123
NI      8.5938167906     4.9588716627     3.2088602271
NI      9.8235691942     7.0855584876     3.2000354107
NI     11.0537625337     9.2125134981     3.2004369531
NI      8.6000227065     0.7017431472     3.1967310145
NI      9.8213491818     2.8326209560     3.2040847507
NI     11.0538639694     4.9570008746     3.1937896616
NI     12.2830775963     7.0861730448     3.2019293441
NI     13.5133877670     9.2127786036     3.2010351997
NI     11.0564791218     0.6996392593     3.2007652874
NI     12.2822634528     2.8292242725     3.1951820556
NI     13.5108434125     4.9569387603     3.1955622907
NI     14.7429050438     7.0851991698     3.2014238275
NI     15.9751443483     9.2108456019     3.2067842939
NI      2.4498494791     1.4046680469     5.2091168317
NI      3.6809380137     3.5343638434     5.2049406858
NI      4.9162754677     5.6676924185     5.2186643520
NI      6.1400841954     7.7895995525     5.2074740515
NI      7.3673637731     9.9072108933     5.2305385495
NI      4.9069767334     1.4087157383     5.2098040228
NI      6.1537519354     3.5414616342     5.2346798876
NI      7.3582967604     5.6494318082     5.2688073051
NI      8.5861605570     7.7918161780     5.2327037604
NI      9.8252404644     9.9185164892     5.2042047220
NI      7.3681904200     1.4053979833     5.2021782249
NI      8.5820809866     3.5433784972     5.2408920841
NI      9.8249232371     5.6617872133     5.1995638776
NI     11.0520872453     7.7891099518     5.2094056060
NI     12.2812893161     9.9169172315     5.2123702544
NI      9.8278095025     1.4056906579     5.2042412281
NI     11.0512633486     3.5324136767     5.2018826189
NI     12.2806071920     5.6607249398     5.2026830985
NI     13.5127230128     7.7892091191     5.2103532710
NI     14.7397048037     9.9194040548     5.2021205739
NI     12.2820932073     1.4062030315     5.2044798445
NI     13.5085437383     3.5329931853     5.2032774028
NI     14.7367483808     5.6597203459     5.2012895223
NI     15.9783383608     7.7959156204     5.2311256420
NI     17.1982201032     9.9069309033     5.2311009324
NI     -0.0044556452     0.0298107848     7.1999062325
NI      1.2272839947     2.1186035919     7.2210805178
NI      2.4427338879     4.2322873645     7.2250254030
NI      3.6358389997     6.3467556889     7.1973836722
NI      4.8606823572     8.5281164452     7.3825013622
NI      2.4660611800    -0.0077944428     7.2112066952
NI      3.6785114335     2.1130824421     7.2319532350
NI      4.8906733127     4.2320558467     7.1867707030
NI      6.1180031661     6.3385672660     7.3282525548
NI      7.4141433079     8.5225756134     7.3697285364
NI      4.9146849837    -0.0150723018     7.2303548055
NI      6.1312554692     2.0882595147     7.2019088266
NI      7.3762033010     4.2206381417     7.4027114098
NI      8.6475217564     6.3539742840     7.1962259290
NI      9.8398836804     8.5062818833     7.2129886985
NI      7.3624669099    -0.0162135169     7.2265339171
NI      8.6024470249     2.0944481997     7.2048763747
NI      9.8449283105     4.2364538602     7.2066652693
NI     11.0656743746     6.3705273377     7.2244500437
NI     12.2819669274     8.4952947551     7.2307800525
NI      9.8123543005    -0.0115944333     7.2120752725
NI     11.0470481726     2.1178143074     7.2231759424
NI     12.2819658456     4.2385321013     7.2172881788
NI     13.4996932425     6.3678684206     7.2185444420
NI     14.7249628053     8.5041528177     7.2093825768
C       7.9388540263     3.7251158647    10.3124349297
C       7.3411963030     3.4221607580    11.6569819584
C       7.9652928906     4.3383499899    12.7500579887
C       8.0669548332     3.6317242209    14.1170254112
C       8.2692833328     4.6383295324    15.2661820770
C       8.6073016733     3.9622100833    16.5981691166
O       7.1842720158     4.0889201962     9.3974035133
O       5.9371113121     3.5372901239    11.6415570609
O       9.2617265487     4.7360213062    12.3006067536
O       6.8803005310     2.8781674449    14.3331061920
O       9.3749677698     5.5085328814    14.9321899056
O       7.4930030599     3.1463533964    17.0101818229
H       9.0163172506     3.5768400892    10.1398905167
H       7.6301609000     2.3722993919    11.8787722759
H       7.2790902158     5.2020184399    12.8251842004
H       8.9587539233     2.9717164767    14.0639896012
H       7.3333658999     5.2151958021    15.3651213562
H       9.5185363076     3.3559479140    16.4613421433
H       8.8169299046     4.7389986427    17.3545023444
H       5.6897356131     3.8177401955    10.7351914673
H       9.6576454060     5.2470421309    13.0357570762
H       6.8547887631     2.6381971229    15.2822958394
H       9.2606048166     6.3575751298    15.3891987959
H       7.7735765128     2.5759587982    17.7440062417
O       6.1434700034     7.7825210293     8.4476378651
125
Step 3 | ATOMIC_POSITIONS (angstrom) | Cartesian Angstrom
NI      0.0000000000     0.0000000000     1.1900000730
NI      1.2286496050     2.1280835410     1.1900000730
NI      2.4572992100     4.2561670810     1.1900000730
NI      3.6859488150     6.3842506220     1.1900000730
NI      4.9145984200     8.5123341620     1.1900000730
NI      2.4572992100     0.0000000000     1.1900000730
NI      3.6859488150     2.1280835410     1.1900000730
NI      4.9145984200     4.2561670810     1.1900000730
NI      6.1432480250     6.3842506220     1.1900000730
NI      7.3718976300     8.5123341620     1.1900000730
NI      4.9145984200     0.0000000000     1.1900000730
NI      6.1432480250     2.1280835410     1.1900000730
NI      7.3718976300     4.2561670810     1.1900000730
NI      8.6005472350     6.3842506220     1.1900000730
NI      9.8291968400     8.5123341620     1.1900000730
NI      7.3718976300     0.0000000000     1.1900000730
NI      8.6005472350     2.1280835410     1.1900000730
NI      9.8291968400     4.2561670810     1.1900000730
NI     11.0578464450     6.3842506220     1.1900000730
NI     12.2864960500     8.5123341620     1.1900000730
NI      9.8291968400     0.0000000000     1.1900000730
NI     11.0578464450     2.1280835410     1.1900000730
NI     12.2864960500     4.2561670810     1.1900000730
NI     13.5151456550     6.3842506220     1.1900000730
NI     14.7437952600     8.5123341620     1.1900000730
NI      1.2251943119     0.6995342248     3.1989792649
NI      2.4550004550     2.8289788809     3.2014513138
NI      3.6837746009     4.9582831733     3.1971074584
NI      4.9113492808     7.0853624637     3.2058698839
NI      6.1418051358     9.2143287368     3.2083010394
NI      3.6818626860     0.7008233397     3.2010165160
NI      4.9160869218     2.8341096476     3.2032157903
NI      6.1439610205     4.9622949343     3.2149256827
NI      7.3718377126     7.0793640200     3.2138291582
NI      8.5927073197     9.2091205806     3.2079003360
NI      6.1394724451     0.7023925418     3.1964103251
NI      7.3700073502     2.8350793491     3.2072287123
NI      8.5938167906     4.9588716627     3.2088602271
NI      9.8235691942     7.0855584876     3.2000354107
NI     11.0537625337     9.2125134981     3.2004369531
NI      8.6000227065     0.7017431472     3.1967310145
NI      9.8213491818     2.8326209560     3.2040847507
NI     11.0538639694     4.9570008746     3.1937896616
NI     12.2830775963     7.0861730448     3.2019293441
NI     13.5133877670     9.2127786036     3.2010351997
NI     11.0564791218     0.6996392593     3.2007652874
NI     12.2822634528     2.8292242725     3.1951820556
NI     13.5108434125     4.9569387603     3.1955622907
NI     14.7429050438     7.0851991698     3.2014238275
NI     15.9751443483     9.2108456019     3.2067842939
NI      2.4498494791     1.4046680469     5.2091168317
NI      3.6809380137     3.5343638434     5.2049406858
NI      4.9162754677     5.6676924185     5.2186643520
NI      6.1400841954     7.7895995525     5.2074740515
NI      7.3673637731     9.9072108933     5.2305385495
NI      4.9069767334     1.4087157383     5.2098040228
NI      6.1537519354     3.5414616342     5.2346798876
NI      7.3582967604     5.6494318082     5.2688073051
NI      8.5861605570     7.7918161780     5.2327037604
NI      9.8252404644     9.9185164892     5.2042047220
NI      7.3681904200     1.4053979833     5.2021782249
NI      8.5820809866     3.5433784972     5.2408920841
NI      9.8249232371     5.6617872133     5.1995638776
NI     11.0520872453     7.7891099518     5.2094056060
NI     12.2812893161     9.9169172315     5.2123702544
NI      9.8278095025     1.4056906579     5.2042412281
NI     11.0512633486     3.5324136767     5.2018826189
NI     12.2806071920     5.6607249398     5.2026830985
NI     13.5127230128     7.7892091191     5.2103532710
NI     14.7397048037     9.9194040548     5.2021205739
NI     12.2820932073     1.4062030315     5.2044798445
NI     13.5085437383     3.5329931853     5.2032774028
NI     14.7367483808     5.6597203459     5.2012895223
NI     15.9783383608     7.7959156204     5.2311256420
NI     17.1982201032     9.9069309033     5.2311009324
NI     -0.0044556452     0.0298107848     7.1999062325
NI      1.2272839947     2.1186035919     7.2210805178
NI      2.4427338879     4.2322873645     7.2250254030
NI      3.6358389997     6.3467556889     7.1973836722
NI      4.8606823572     8.5281164452     7.3825013622
NI      2.4660611800    -0.0077944428     7.2112066952
NI      3.6785114335     2.1130824421     7.2319532350
NI      4.8906733127     4.2320558467     7.1867707030
NI      6.1180031661     6.3385672660     7.3282525548
NI      7.4141433079     8.5225756134     7.3697285364
NI      4.9146849837    -0.0150723018     7.2303548055
NI      6.1312554692     2.0882595147     7.2019088266
NI      7.3762033010     4.2206381417     7.4027114098
NI      8.6475217564     6.3539742840     7.1962259290
NI      9.8398836804     8.5062818833     7.2129886985
NI      7.3624669099    -0.0162135169     7.2265339171
NI      8.6024470249     2.0944481997     7.2048763747
NI      9.8449283105     4.2364538602     7.2066652693
NI     11.0656743746     6.3705273377     7.2244500437
NI     12.2819669274     8.4952947551     7.2307800525
NI      9.8123543005    -0.0115944333     7.2120752725
NI     11.0470481726     2.1178143074     7.2231759424
NI     12.2819658456     4.2385321013     7.2172881788
NI     13.4996932425     6.3678684206     7.2185444420
NI     14.7249628053     8.5041528177     7.2093825768
C       7.9388540263     3.7251158647    10.3124349297
C       7.3411963030     3.4221607580    11.6569819584
C       7.9652928906     4.3383499899    12.7500579887
C       8.0669548332     3.6317242209    14.1170254112
C       8.2692833328     4.6383295324    15.2661820770
C       8.6073016733     3.9622100833    16.5981691166
O       7.1842720158     4.0889201962     9.3974035133
O       5.9371113121     3.5372901239    11.6415570609
O       9.2617265487     4.7360213062    12.3006067536
O       6.8803005310     2.8781674449    14.3331061920
O       9.3749677698     5.5085328814    14.9321899056
O       7.4930030599     3.1463533964    17.0101818229
H       9.0163172506     3.5768400892    10.1398905167
H       7.6301609000     2.3722993919    11.8787722759
H       7.2790902158     5.2020184399    12.8251842004
H       8.9587539233     2.9717164767    14.0639896012
H       7.3333658999     5.2151958021    15.3651213562
H       9.5185363076     3.3559479140    16.4613421433
H       8.8169299046     4.7389986427    17.3545023444
H       5.6897356131     3.8177401955    10.7351914673
H       9.6576454060     5.2470421309    13.0357570762
H       6.8547887631     2.6381971229    15.2822958394
H       9.2606048166     6.3575751298    15.3891987959
H       7.7735765128     2.5759587982    17.7440062417
O       6.1434700034     7.7825210293     8.4476378651
