88
Step 1 | ATOMIC_POSITIONS (angstrom) | Cartesian Angstrom
Ni      1.2285271350     0.7092904721     8.0000000000
Ni      8.6004271350     0.7092904721     8.0000000000
Ni      2.4570542700     2.8371618884     8.0000000000
Ni      9.8289542700     2.8371618884     8.0000000000
Ni      3.6859500000     4.9656717300     8.0000000000
Ni     11.0578500000     4.9656717300     8.0000000000
Ni      3.6855814050     0.7092904721     8.0000000000
Ni     11.0574814050     0.7092904721     8.0000000000
Ni      4.9141085400     2.8371618884     8.0000000000
Ni     12.2860085400     2.8371618884     8.0000000000
Ni      6.1430042700     4.9656717300     8.0000000000
Ni     13.5149042700     4.9656717300     8.0000000000
Ni      6.1433728650     0.7092904721     8.0000000000
Ni     13.5152728650     0.7092904721     8.0000000000
Ni      7.3719000000     2.8371618884     8.0000000000
Ni     14.7438000000     2.8371618884     8.0000000000
Ni      8.6007957300     4.9656717300     8.0000000000
Ni     15.9726957300     4.9656717300     8.0000000000
Ni      0.0016178909    -0.0009546221    10.0329996843
Ni      7.3736928611    -0.0010816061    10.0327811801
Ni      1.2302612203     2.1268392866    10.0324843766
Ni      8.6021671697     2.1271113602    10.0326087016
Ni      2.4592281637     4.2553048972    10.0325849440
Ni      9.8308786468     4.2552638432    10.0326555884
Ni      2.4585924161    -0.0014521596    10.0324169722
Ni      9.8309020944    -0.0010071661    10.0326106822
Ni      3.6874044754     2.1269403347    10.0331425561
Ni     11.0592936540     2.1268950126    10.0333208939
Ni      4.9164944316     4.2555923730    10.0325348363
Ni     12.2882150872     4.2551675632    10.0326041097
Ni      4.9166500919    -0.0013382400    10.0322044174
Ni     12.2885859193    -0.0009660706    10.0329982477
Ni      6.1453911779     2.1270078447    10.0320699593
Ni     13.5170064221     2.1268252649    10.0330083811
Ni      7.3736632467     4.2555307444    10.0324181707
Ni     14.7461039644     4.2551744910    10.0325882093
Ni      1.2265022912     0.7107871785    12.0690098727
Ni      8.5975241260     0.7089128544    12.0694644605
Ni      2.4554448024     2.8380340350    12.0697363948
Ni      9.8270125181     2.8383881247    12.0705858459
Ni      3.6838199516     4.9666278224    12.0689151787
Ni     11.0566677679     4.9683273280    12.0695870822
Ni      3.6847165332     0.7114461306    12.0710572225
Ni     11.0552221698     0.7097648584    12.0701195512
Ni      4.9125847741     2.8373861342    12.0697465755
Ni     12.2844499696     2.8389879454    12.0700995722
Ni      6.1415661200     4.9660669531    12.0693753814
Ni     13.5125766971     4.9669518642    12.0693366642
Ni      6.1422665643     0.7100553684    12.0695122429
Ni     13.5133047590     0.7104461243    12.0689206043
Ni      7.3695888487     2.8381067292    12.0695970135
Ni     14.7421765365     2.8382275083    12.0698015675
Ni      8.5988876267     4.9667037786    12.0691523679
Ni     15.9708839985     4.9665020170    12.0697287235
Ni      0.0008637338    -0.0006869603    14.0987035271
Ni      7.3723687317    -0.0003816839    14.1340265927
Ni      1.2254291840     2.1275651046    14.0953138664
Ni      8.6031777998     2.1310990724    14.0965818237
Ni      2.4556984049     4.2598914229    14.0942030426
Ni      9.8278763124     4.2525273608    14.0967203471
Ni      2.4556372932    -0.0055952563    14.0946173154
Ni      9.8335375783    -0.0000343828    14.0967551082
Ni      3.6874301037     2.1350910504    14.1020226359
Ni     11.0583491562     2.1273703940    14.0985288710
Ni      4.9180482237     4.2608827642    14.0935993825
Ni     12.2887214857     4.2524257106    14.0966250533
Ni      4.9147256624    -0.0048527208    14.0920283928
Ni     12.2875626599    -0.0007876883    14.0977564808
Ni      6.1463473018     2.1300064641    14.0932291365
Ni     13.5162198418     2.1276335917    14.0975567025
Ni      7.3724028847     4.2565886313    14.0996563710
Ni     14.7455914543     4.2555354566    14.0978215527
O       7.3690175325     0.0020395338    16.0771411411
O       3.6732550921     2.1234833189    16.1026548014
H       4.0219671350     1.2037959387    16.1666474310
H       7.3738376109    -0.0013594001    17.0661649168
H       5.2591517491     2.8539602298    17.1974072953
H       3.7827498246     3.8594479484    17.1946771580
C       4.1572260844     2.8424677682    17.2523446970
O       4.1662705082     0.7709054694    18.4712184290
H       5.1461936432     0.8285712612    18.4804111215
C       3.6875875224     2.1189992367    18.5080588258
H       2.5735564677     2.0357443786    18.5041246897
C       4.1608215382     2.8147285729    19.7703281511
H       3.8167857685     3.8541772021    19.8025556694
H       5.2696475590     2.8024327914    19.8026382584
O       3.6786056123     2.1171730408    20.9194268147
H       4.0226330477     2.5937590228    21.6919099690
88
Step 2 | ATOMIC_POSITIONS (angstrom) | Cartesian Angstrom
Ni      1.2285271350     0.7092904721     8.0000000000
Ni      8.6004271350     0.7092904721     8.0000000000
Ni      2.4570542700     2.8371618884     8.0000000000
Ni      9.8289542700     2.8371618884     8.0000000000
Ni      3.6859500000     4.9656717300     8.0000000000
Ni     11.0578500000     4.9656717300     8.0000000000
Ni      3.6855814050     0.7092904721     8.0000000000
Ni     11.0574814050     0.7092904721     8.0000000000
Ni      4.9141085400     2.8371618884     8.0000000000
Ni     12.2860085400     2.8371618884     8.0000000000
Ni      6.1430042700     4.9656717300     8.0000000000
Ni     13.5149042700     4.9656717300     8.0000000000
Ni      6.1433728650     0.7092904721     8.0000000000
Ni     13.5152728650     0.7092904721     8.0000000000
Ni      7.3719000000     2.8371618884     8.0000000000
Ni     14.7438000000     2.8371618884     8.0000000000
Ni      8.6007957300     4.9656717300     8.0000000000
Ni     15.9726957300     4.9656717300     8.0000000000
Ni      0.0053538325    -0.0031688984    10.0309530245
Ni      7.3778588313    -0.0035884451    10.0304485815
Ni      1.2343297702     2.1244350894    10.0293282312
Ni      8.6062860016     2.1252608424    10.0298802910
Ni      2.4634218837     4.2527870591    10.0296532444
Ni      9.8346121270     4.2526387444    10.0299885955
Ni      2.4622892894    -0.0046377358    10.0292245970
Ni      9.8353804421    -0.0032728293    10.0297553024
Ni      3.6916122437     2.1247288992    10.0314732659
Ni     11.0635055401     2.1246032835    10.0321603501
Ni      4.9210705153     4.2536746690    10.0294725172
Ni     12.2923968650     4.2523658584    10.0297302771
Ni      4.9208162450    -0.0043021065    10.0284982569
Ni     12.2927896577    -0.0032025979    10.0310255338
Ni      6.1500050679     2.1248934121    10.0279808103
Ni     13.5209871904     2.1244365384    10.0310652325
Ni      7.3769728221     4.2535122717    10.0291351477
Ni     14.7505520094     4.2524137554    10.0296685987
Ni      1.2218853546     0.7141390239    12.0702496792
Ni      8.5902570802     0.7077003773    12.0732033547
Ni      2.4517519055     2.8399911890    12.0729161603
Ni      9.8225922440     2.8411350617    12.0754113045
Ni      3.6789317634     4.9689350507    12.0698082902
Ni     11.0539472312     4.9751405921    12.0735952570
Ni      3.6824822645     0.7164687169    12.0770460964
Ni     11.0500294026     0.7110656935    12.0738793743
Ni      4.9089158705     2.8379022009    12.0726577220
Ni     12.2806894608     2.8430652047    12.0737972100
Ni      6.1384144826     4.9671522535    12.0710299502
Ni     13.5072499802     4.9698974610    12.0713427934
Ni      6.1405077160     0.7113688362    12.0734168613
Ni     13.5087458328     0.7130986586    12.0701753636
Ni      7.3644973709     2.8403868961    12.0719494321
Ni     14.7383166984     2.8407697085    12.0726915115
Ni      8.5944372659     4.9688955095    12.0704250034
Ni     15.9665315810     4.9685297467    12.0723833705
Ni      0.0026963193    -0.0020094468    14.0915336416
Ni      7.3735945000    -0.0013342728    14.2044805446
Ni      1.2190156224     2.1267408664    14.0803715732
Ni      8.6094293987     2.1378779180    14.0834665245
Ni      2.4520091589     4.2677272559    14.0767901906
Ni      9.8250461239     4.2439831748    14.0839356562
Ni      2.4529660776    -0.0171362664    14.0779584337
Ni      9.8437633518    -0.0003016253    14.0847681887
Ni      3.6915505882     2.1508997852    14.1032590488
Ni     11.0604720970     2.1261648605    14.0908885150
Ni      4.9257713903     4.2704640390    14.0748094536
Ni     12.2941151739     4.2436797314    14.0843541971
Ni      4.9143462830    -0.0150496934    14.0695691924
Ni     12.2895098772    -0.0023644846    14.0882642992
Ni      6.1528266485     2.1346865213    14.0734251349
Ni     13.5182863051     2.1268752792    14.0876353435
Ni      7.3728094589     4.2570317914    14.0945944777
Ni     14.7487575569     4.2536540409    14.0885759544
O       7.3619657815     0.0070542629    16.0486960449
O       3.6521714306     2.1048037516    16.1131191876
H       4.0183145712     1.1869374330    16.1815776104
H       7.3786390681    -0.0047456855    17.0269698242
H       5.2677994476     2.8617732023    17.2048310658
H       3.7766426771     3.8711414923    17.1852078168
C       4.1629655832     2.8528980031    17.2596136152
O       4.1673217235     0.7524086542    18.4585257544
H       5.1413925158     0.8223864886    18.4830446991
C       3.6998932474     2.1151362854    18.5194235686
H       2.5851425994     2.0370588890    18.5045204311
C       4.1610608705     2.8186879282    19.7850912714
H       3.8167767588     3.8713829205    19.7907433975
H       5.2779774108     2.8103035012    19.7868115981
O       3.6667778747     2.1083616121    20.9265172244
H       4.0186516083     2.5892002315    21.6934901745
