88
Step 1 | ATOMIC_POSITIONS (angstrom) | Cartesian Angstrom
Ni      1.2285271350     0.7092904721     8.0000000000
Ni      8.6004271350     0.7092904721     8.0000000000
Ni      2.4570542700     2.8371618884     8.0000000000
Ni      9.8289542700     2.8371618884     8.0000000000
Ni      3.6859500000     4.9656717300     8.0000000000
Ni     11.0578500000     4.9656717300     8.0000000000
Ni      3.6855814050     0.7092904721     8.0000000000
Ni     11.0574814050     0.7092904721     8.0000000000
Ni      4.9141085400     2.8371618884     8.0000000000
Ni     12.2860085400     2.8371618884     8.0000000000
Ni      6.1430042700     4.9656717300     8.0000000000
Ni     13.5149042700     4.9656717300     8.0000000000
Ni      6.1433728650     0.7092904721     8.0000000000
Ni     13.5152728650     0.7092904721     8.0000000000
Ni      7.3719000000     2.8371618884     8.0000000000
Ni     14.7438000000     2.8371618884     8.0000000000
Ni      8.6007957300     4.9656717300     8.0000000000
Ni     15.9726957300     4.9656717300     8.0000000000
Ni      0.0016178909    -0.0009546221    10.0329996843
Ni      7.3736928611    -0.0010816061    10.0327811801
Ni      1.2302612203     2.1268392866    10.0324843766
Ni      8.6021671697     2.1271113602    10.0326087016
Ni      2.4592281637     4.2553048972    10.0325849440
Ni      9.8308786468     4.2552638432    10.0326555884
Ni      2.4585924161    -0.0014521596    10.0324169722
Ni      9.8309020944    -0.0010071661    10.0326106822
Ni      3.6874044754     2.1269403347    10.0331425561
Ni     11.0592936540     2.1268950126    10.0333208939
Ni      4.9164944316     4.2555923730    10.0325348363
Ni     12.2882150872     4.2551675632    10.0326041097
Ni      4.9166500919    -0.0013382400    10.0322044174
Ni     12.2885859193    -0.0009660706    10.0329982477
Ni      6.1453911779     2.1270078447    10.0320699593
Ni     13.5170064221     2.1268252649    10.0330083811
Ni      7.3736632467     4.2555307444    10.0324181707
Ni     14.7461039644     4.2551744910    10.0325882093
Ni      1.2265022912     0.7107871785    12.0690098727
Ni      8.5975241260     0.7089128544    12.0694644605
Ni      2.4554448024     2.8380340350    12.0697363948
Ni      9.8270125181     2.8383881247    12.0705858459
Ni      3.6838199516     4.9666278224    12.0689151787
Ni     11.0566677679     4.9683273280    12.0695870822
Ni      3.6847165332     0.7114461306    12.0710572225
Ni     11.0552221698     0.7097648584    12.0701195512
Ni      4.9125847741     2.8373861342    12.0697465755
Ni     12.2844499696     2.8389879454    12.0700995722
Ni      6.1415661200     4.9660669531    12.0693753814
Ni     13.5125766971     4.9669518642    12.0693366642
Ni      6.1422665643     0.7100553684    12.0695122429
Ni     13.5133047590     0.7104461243    12.0689206043
Ni      7.3695888487     2.8381067292    12.0695970135
Ni     14.7421765365     2.8382275083    12.0698015675
Ni      8.5988876267     4.9667037786    12.0691523679
Ni     15.9708839985     4.9665020170    12.0697287235
Ni      0.0008637338    -0.0006869603    14.0987035271
Ni      7.3723687317    -0.0003816839    14.1340265927
Ni      1.2254291840     2.1275651046    14.0953138664
Ni      8.6031777998     2.1310990724    14.0965818237
Ni      2.4556984049     4.2598914229    14.0942030426
Ni      9.8278763124     4.2525273608    14.0967203471
Ni      2.4556372932    -0.0055952563    14.0946173154
Ni      9.8335375783    -0.0000343828    14.0967551082
Ni      3.6874301037     2.1350910504    14.1020226359
Ni     11.0583491562     2.1273703940    14.0985288710
Ni      4.9180482237     4.2608827642    14.0935993825
Ni     12.2887214857     4.2524257106    14.0966250533
Ni      4.9147256624    -0.0048527208    14.0920283928
Ni     12.2875626599    -0.0007876883    14.0977564808
Ni      6.1463473018     2.1300064641    14.0932291365
Ni     13.5162198418     2.1276335917    14.0975567025
Ni      7.3724028847     4.2565886313    14.0996563710
Ni     14.7455914543     4.2555354566    14.0978215527
O       7.3690175325     0.0020395338    16.0771411411
O       3.6732550921     2.1234833189    16.1026548014
H       4.0219671350     1.2037959387    16.1666474310
H       7.3738376109    -0.0013594001    17.0661649168
H       5.2591517491     2.8539602298    17.1974072953
H       3.7827498246     3.8594479484    17.1946771580
C       4.1572260844     2.8424677682    17.2523446970
O       4.1662705082     0.7709054694    18.4712184290
H       5.1461936432     0.8285712612    18.4804111215
C       3.6875875224     2.1189992367    18.5080588258
H       2.5735564677     2.0357443786    18.5041246897
C       4.1608215382     2.8147285729    19.7703281511
H       3.8167857685     3.8541772021    19.8025556694
H       5.2696475590     2.8024327914    19.8026382584
O       3.6786056123     2.1171730408    20.9194268147
H       4.0226330477     2.5937590228    21.6919099690
88
Step 2 | ATOMIC_POSITIONS (angstrom) | Cartesian Angstrom
Ni      1.2285271350     0.7092904721     8.0000000000
Ni      8.6004271350     0.7092904721     8.0000000000
Ni      2.4570542700     2.8371618884     8.0000000000
Ni      9.8289542700     2.8371618884     8.0000000000
Ni      3.6859500000     4.9656717300     8.0000000000
Ni     11.0578500000     4.9656717300     8.0000000000
Ni      3.6855814050     0.7092904721     8.0000000000
Ni     11.0574814050     0.7092904721     8.0000000000
Ni      4.9141085400     2.8371618884     8.0000000000
Ni     12.2860085400     2.8371618884     8.0000000000
Ni      6.1430042700     4.9656717300     8.0000000000
Ni     13.5149042700     4.9656717300     8.0000000000
Ni      6.1433728650     0.7092904721     8.0000000000
Ni     13.5152728650     0.7092904721     8.0000000000
Ni      7.3719000000     2.8371618884     8.0000000000
Ni     14.7438000000     2.8371618884     8.0000000000
Ni      8.6007957300     4.9656717300     8.0000000000
Ni     15.9726957300     4.9656717300     8.0000000000
Ni      0.0053538325    -0.0031688984    10.0309530245
Ni      7.3778588313    -0.0035884451    10.0304485815
Ni      1.2343297702     2.1244350894    10.0293282312
Ni      8.6062860016     2.1252608424    10.0298802910
Ni      2.4634218837     4.2527870591    10.0296532444
Ni      9.8346121270     4.2526387444    10.0299885955
Ni      2.4622892894    -0.0046377358    10.0292245970
Ni      9.8353804421    -0.0032728293    10.0297553024
Ni      3.6916122437     2.1247288992    10.0314732659
Ni     11.0635055401     2.1246032835    10.0321603501
Ni      4.9210705153     4.2536746690    10.0294725172
Ni     12.2923968650     4.2523658584    10.0297302771
Ni      4.9208162450    -0.0043021065    10.0284982569
Ni     12.2927896577    -0.0032025979    10.0310255338
Ni      6.1500050679     2.1248934121    10.0279808103
Ni     13.5209871904     2.1244365384    10.0310652325
Ni      7.3769728221     4.2535122717    10.0291351477
Ni     14.7505520094     4.2524137554    10.0296685987
Ni      1.2218853546     0.7141390239    12.0702496792
Ni      8.5902570802     0.7077003773    12.0732033547
Ni      2.4517519055     2.8399911890    12.0729161603
Ni      9.8225922440     2.8411350617    12.0754113045
Ni      3.6789317634     4.9689350507    12.0698082902
Ni     11.0539472312     4.9751405921    12.0735952570
Ni      3.6824822645     0.7164687169    12.0770460964
Ni     11.0500294026     0.7110656935    12.0738793743
Ni      4.9089158705     2.8379022009    12.0726577220
Ni     12.2806894608     2.8430652047    12.0737972100
Ni      6.1384144826     4.9671522535    12.0710299502
Ni     13.5072499802     4.9698974610    12.0713427934
Ni      6.1405077160     0.7113688362    12.0734168613
Ni     13.5087458328     0.7130986586    12.0701753636
Ni      7.3644973709     2.8403868961    12.0719494321
Ni     14.7383166984     2.8407697085    12.0726915115
Ni      8.5944372659     4.9688955095    12.0704250034
Ni     15.9665315810     4.9685297467    12.0723833705
Ni      0.0026963193    -0.0020094468    14.0915336416
Ni      7.3735945000    -0.0013342728    14.2044805446
Ni      1.2190156224     2.1267408664    14.0803715732
Ni      8.6094293987     2.1378779180    14.0834665245
Ni      2.4520091589     4.2677272559    14.0767901906
Ni      9.8250461239     4.2439831748    14.0839356562
Ni      2.4529660776    -0.0171362664    14.0779584337
Ni      9.8437633518    -0.0003016253    14.0847681887
Ni      3.6915505882     2.1508997852    14.1032590488
Ni     11.0604720970     2.1261648605    14.0908885150
Ni      4.9257713903     4.2704640390    14.0748094536
Ni     12.2941151739     4.2436797314    14.0843541971
Ni      4.9143462830    -0.0150496934    14.0695691924
Ni     12.2895098772    -0.0023644846    14.0882642992
Ni      6.1528266485     2.1346865213    14.0734251349
Ni     13.5182863051     2.1268752792    14.0876353435
Ni      7.3728094589     4.2570317914    14.0945944777
Ni     14.7487575569     4.2536540409    14.0885759544
O       7.3619657815     0.0070542629    16.0486960449
O       3.6521714306     2.1048037516    16.1131191876
H       4.0183145712     1.1869374330    16.1815776104
H       7.3786390681    -0.0047456855    17.0269698242
H       5.2677994476     2.8617732023    17.2048310658
H       3.7766426771     3.8711414923    17.1852078168
C       4.1629655832     2.8528980031    17.2596136152
O       4.1673217235     0.7524086542    18.4585257544
H       5.1413925158     0.8223864886    18.4830446991
C       3.6998932474     2.1151362854    18.5194235686
H       2.5851425994     2.0370588890    18.5045204311
C       4.1610608705     2.8186879282    19.7850912714
H       3.8167767588     3.8713829205    19.7907433975
H       5.2779774108     2.8103035012    19.7868115981
O       3.6667778747     2.1083616121    20.9265172244
H       4.0186516083     2.5892002315    21.6934901745
88
Step 3 | ATOMIC_POSITIONS (angstrom) | Cartesian Angstrom
Ni      1.2285271350     0.7092904721     8.0000000000
Ni      8.6004271350     0.7092904721     8.0000000000
Ni      2.4570542700     2.8371618884     8.0000000000
Ni      9.8289542700     2.8371618884     8.0000000000
Ni      3.6859500000     4.9656717300     8.0000000000
Ni     11.0578500000     4.9656717300     8.0000000000
Ni      3.6855814050     0.7092904721     8.0000000000
Ni     11.0574814050     0.7092904721     8.0000000000
Ni      4.9141085400     2.8371618884     8.0000000000
Ni     12.2860085400     2.8371618884     8.0000000000
Ni      6.1430042700     4.9656717300     8.0000000000
Ni     13.5149042700     4.9656717300     8.0000000000
Ni      6.1433728650     0.7092904721     8.0000000000
Ni     13.5152728650     0.7092904721     8.0000000000
Ni      7.3719000000     2.8371618884     8.0000000000
Ni     14.7438000000     2.8371618884     8.0000000000
Ni      8.6007957300     4.9656717300     8.0000000000
Ni     15.9726957300     4.9656717300     8.0000000000
Ni      0.0099458899    -0.0059099100    10.0290493725
Ni      7.3830170367    -0.0066714879    10.0288593662
Ni      1.2394933385     2.1214544987    10.0263212798
Ni      8.6116027433     2.1226472606    10.0278265891
Ni      2.4686056421     4.2496060570    10.0268812567
Ni      9.8396392450     4.2493444855    10.0278795782
Ni      2.4672259533    -0.0080444606    10.0264783496
Ni      9.8407550997    -0.0058825508    10.0271992476
Ni      3.6967444436     2.1218571935    10.0301945613
Ni     11.0687344037     2.1216951653    10.0316798443
Ni      4.9264335617     4.2510513141    10.0264766411
Ni     12.2973195004     4.2489871449    10.0271497284
Ni      4.9259627395    -0.0075340040    10.0251467591
Ni     12.2978012510    -0.0059530817    10.0294352339
Ni      6.1555045096     2.1219139644    10.0239839795
Ni     13.5258001049     2.1215879339    10.0295322618
Ni      7.3813176582     4.2508590490    10.0260172269
Ni     14.7559084732     4.2491218767    10.0269342740
Ni      1.2163441019     0.7178952439    12.0685992233
Ni      8.5803851541     0.7056385442    12.0781278824
Ni      2.4474173895     2.8422013933    12.0745656821
Ni      9.8176088932     2.8441223712    12.0775371613
Ni      3.6730708023     4.9721008293    12.0673540202
Ni     11.0506044489     4.9846835988    12.0787986904
Ni      3.6791227377     0.7228254744    12.0811780064
Ni     11.0437597816     0.7133207670    12.0750675331
Ni      4.9038965736     2.8384530004    12.0730386001
Ni     12.2755782176     2.8476040335    12.0748634629
Ni      6.1351557049     4.9689254322    12.0684959043
Ni     13.5009392249     4.9734299444    12.0706684898
Ni      6.1400588107     0.7120013335    12.0784607435
Ni     13.5031708054     0.7162807666    12.0692297883
Ni      7.3590532214     2.8435041606    12.0707997057
Ni     14.7332375190     2.8441361227    12.0725060425
Ni      8.5889021628     4.9709831476    12.0678255158
Ni     15.9606655769     4.9713607501    12.0716773215
Ni      0.0044497785    -0.0028264909    14.0839450377
Ni      7.3758718049    -0.0029840840    14.2739212403
Ni      1.2134257473     2.1254448076    14.0637023643
Ni      8.6163773088     2.1438471982    14.0663083115
Ni      2.4484632412     4.2763541381    14.0575667095
Ni      9.8232018101     4.2351121550    14.0671674935
Ni      2.4513309095    -0.0270611683    14.0588564107
Ni      9.8549654630    -0.0013272274    14.0707857022
Ni      3.6958487625     2.1676946926    14.1089885902
Ni     11.0634595649     2.1245198076    14.0826328100
Ni      4.9334103490     4.2795450231    14.0539308885
Ni     12.3006470187     4.2344254496    14.0700918226
Ni      4.9139183899    -0.0246631860    14.0439986567
Ni     12.2920431318    -0.0035515412    14.0775849384
Ni      6.1595901754     2.1396029283    14.0508460843
Ni     13.5204755601     2.1253558562    14.0765420154
Ni      7.3735752519     4.2574139761    14.0893464283
Ni     14.7522010009     4.2515863574    14.0784527844
O       7.3512748155     0.0147231222    16.0246155676
O       3.6372590305     2.0852062596    16.1351176106
H       4.0101061565     1.1730848381    16.2011830769
H       7.3859979054    -0.0099912688    16.9849839297
H       5.2744730253     2.8723966848    17.2100797686
H       3.7712013776     3.8791724814    17.1745685214
C       4.1637811019     2.8525577022    17.2625618944
O       4.1643642163     0.7463902828    18.4463212410
H       5.1432291064     0.8102442791    18.4867051949
C       3.7041072757     2.1123352558    18.5250042559
H       2.6028167951     2.0382885427    18.5063399215
C       4.1644173804     2.8198692094    19.7928857951
H       3.8190368870     3.8801460821    19.7791527103
H       5.2809294968     2.8203478526    19.7750442386
O       3.6607468375     2.1095985156    20.9309401527
H       4.0116641125     2.5807117648    21.6990166704
88
Step 4 | ATOMIC_POSITIONS (angstrom) | Cartesian Angstrom
Ni      1.2285271350     0.7092904721     8.0000000000
Ni      8.6004271350     0.7092904721     8.0000000000
Ni      2.4570542700     2.8371618884     8.0000000000
Ni      9.8289542700     2.8371618884     8.0000000000
Ni      3.6859500000     4.9656717300     8.0000000000
Ni     11.0578500000     4.9656717300     8.0000000000
Ni      3.6855814050     0.7092904721     8.0000000000
Ni     11.0574814050     0.7092904721     8.0000000000
Ni      4.9141085400     2.8371618884     8.0000000000
Ni     12.2860085400     2.8371618884     8.0000000000
Ni      6.1430042700     4.9656717300     8.0000000000
Ni     13.5149042700     4.9656717300     8.0000000000
Ni      6.1433728650     0.7092904721     8.0000000000
Ni     13.5152728650     0.7092904721     8.0000000000
Ni      7.3719000000     2.8371618884     8.0000000000
Ni     14.7438000000     2.8371618884     8.0000000000
Ni      8.6007957300     4.9656717300     8.0000000000
Ni     15.9726957300     4.9656717300     8.0000000000
Ni      0.0113627399    -0.0067464450    10.0287465507
Ni      7.3846057112    -0.0076075583    10.0292575771
Ni      1.2411969970     2.1205573725    10.0259466355
Ni      8.6134111175     2.1214825638    10.0281190256
Ni      2.4701804088     4.2485383449    10.0265302575
Ni      9.8415962917     4.2483442454    10.0280484487
Ni      2.4690520169    -0.0086522031    10.0263809327
Ni      9.8422166452    -0.0065445069    10.0270885632
Ni      3.6982485045     2.1208821419    10.0302501429
Ni     11.0703743241     2.1207331523    10.0320268148
Ni      4.9278575574     4.2500204895    10.0259815484
Ni     12.2986148556     4.2480742875    10.0270349694
Ni      4.9276084620    -0.0081289066    10.0250185375
Ni     12.2992115385    -0.0067876016    10.0293980097
Ni      6.1570200042     2.1206333613    10.0235239570
Ni     13.5272134264     2.1207793294    10.0295382769
Ni      7.3829020499     4.2498783747    10.0255289529
Ni     14.7574167187     4.2482122016    10.0265667135
Ni      1.2146958934     0.7187007250    12.0654534376
Ni      8.5771327529     0.7048750969    12.0793402835
Ni      2.4463539134     2.8427308165    12.0733601074
Ni      9.8167157824     2.8445791677    12.0745320876
Ni      3.6714568000     4.9733766202    12.0636894330
Ni     11.0495458724     4.9879205558    12.0800512125
Ni      3.6776812130     0.7250487205    12.0797581786
Ni     11.0419537217     0.7145818638    12.0724879438
Ni      4.9018685806     2.8384862242    12.0706444107
Ni     12.2736080419     2.8485678935    12.0722135727
Ni      6.1347065998     4.9697632375    12.0639630727
Ni     13.4993177944     4.9743647987    12.0678340518
Ni      6.1409122571     0.7116418468    12.0794702302
Ni     13.5015529386     0.7171639902    12.0669049832
Ni      7.3580935504     2.8447550611    12.0669542556
Ni     14.7314097026     2.8453508135    12.0693833686
Ni      8.5871903151     4.9711000408    12.0634771274
Ni     15.9584409648     4.9725084252    12.0681783909
Ni      0.0046005389    -0.0023981150    14.0824976238
Ni      7.3778014593    -0.0043210666    14.2691334342
Ni      1.2137160485     2.1248455893    14.0601183159
Ni      8.6176673028     2.1435772449    14.0606972553
Ni      2.4482835723     4.2780610437    14.0536658948
Ni      9.8240098677     4.2340522575    14.0616342534
Ni      2.4521938477    -0.0263717208    14.0542764528
Ni      9.8571442455    -0.0023225024    14.0673073755
Ni      3.6963375451     2.1704978870    14.1141584782
Ni     11.0646551998     2.1238935445    14.0810395391
Ni      4.9340460442     4.2799188508    14.0494717750
Ni     12.3025910346     4.2329896994    14.0665995611
Ni      4.9138007071    -0.0250311747    14.0382899654
Ni     12.2928869551    -0.0032992886    14.0751185879
Ni      6.1604880492     2.1404376612    14.0457052501
Ni     13.5208877546     2.1244736604    14.0740423899
Ni      7.3740444332     4.2573874447    14.0884273595
Ni     14.7528439281     4.2511702601    14.0763161541
O       7.3448852240     0.0193063095    16.0341624991
O       3.6378948542     2.0825767118    16.1422352686
H       4.0059676367     1.1708047709    16.2090009117
H       7.3903798074    -0.0131186307    16.9820339635
H       5.2712474011     2.8757484526    17.2092734222
H       3.7712669628     3.8747479893    17.1721112362
C       4.1630781119     2.8492419899    17.2610316442
O       4.1700421618     0.7520237612    18.4453079754
H       5.1401510279     0.8035073168    18.4880195080
C       3.7030544592     2.1147796147    18.5234360320
H       2.6054835989     2.0383221758    18.5077653453
C       4.1666031116     2.8192866677    19.7886003293
H       3.8209935204     3.8752697653    19.7773787043
H       5.2784383334     2.8232732865    19.7764745058
O       3.6622069725     2.1141497814    20.9261111162
H       4.0100578234     2.5789096077    21.7059939077
88
Step 5 | ATOMIC_POSITIONS (angstrom) | Cartesian Angstrom
Ni      1.2285271350     0.7092904721     8.0000000000
Ni      8.6004271350     0.7092904721     8.0000000000
Ni      2.4570542700     2.8371618884     8.0000000000
Ni      9.8289542700     2.8371618884     8.0000000000
Ni      3.6859500000     4.9656717300     8.0000000000
Ni     11.0578500000     4.9656717300     8.0000000000
Ni      3.6855814050     0.7092904721     8.0000000000
Ni     11.0574814050     0.7092904721     8.0000000000
Ni      4.9141085400     2.8371618884     8.0000000000
Ni     12.2860085400     2.8371618884     8.0000000000
Ni      6.1430042700     4.9656717300     8.0000000000
Ni     13.5149042700     4.9656717300     8.0000000000
Ni      6.1433728650     0.7092904721     8.0000000000
Ni     13.5152728650     0.7092904721     8.0000000000
Ni      7.3719000000     2.8371618884     8.0000000000
Ni     14.7438000000     2.8371618884     8.0000000000
Ni      8.6007957300     4.9656717300     8.0000000000
Ni     15.9726957300     4.9656717300     8.0000000000
Ni      0.0134089379    -0.0079357641    10.0281218687
Ni      7.3868915009    -0.0089582370    10.0297017521
Ni      1.2436515502     2.1192933989    10.0252580865
Ni      8.6160072371     2.1197351205    10.0283884006
Ni      2.4724268445     4.2469747979    10.0258675232
Ni      9.8444700170     4.2469445231    10.0281369307
Ni      2.4717081890    -0.0095317518    10.0260498032
Ni      9.8442789717    -0.0075033255    10.0268166784
Ni      3.7004071357     2.1194940798    10.0301656699
Ni     11.0727507512     2.1193392085    10.0322691834
Ni      4.9299366768     4.2485103794    10.0250907917
Ni     12.3004633855     4.2467976301    10.0267600301
Ni      4.9300200071    -0.0089566886    10.0247385347
Ni     12.3012557602    -0.0079885769    10.0291412263
Ni      6.1592015797     2.1187480202    10.0227646189
Ni     13.5292625978     2.1196046838    10.0293505745
Ni      7.3852152618     4.2484385231    10.0245513095
Ni     14.7595656488     4.2469058637    10.0258278352
Ni      1.2122848674     0.7198598721    12.0609413983
Ni      8.5727134210     0.7039739106    12.0808926908
Ni      2.4448592116     2.8435317392    12.0717858048
Ni      9.8154910841     2.8452115880    12.0701043412
Ni      3.6691548791     4.9752129495    12.0584722871
Ni     11.0479736510     4.9922433731    12.0816554538
Ni      3.6756767013     0.7282861039    12.0777347039
Ni     11.0393311473     0.7163845862    12.0688037661
Ni      4.8989341973     2.8385221637    12.0673215515
Ni     12.2707838248     2.8499792811    12.0684335956
Ni      6.1340187202     4.9709506757    12.0576228376
Ni     13.4970608285     4.9756569492    12.0637474676
Ni      6.1419414387     0.7112487445    12.0807254314
Ni     13.4992441690     0.7184318829    12.0635790122
Ni      7.3566557766     2.8465601204    12.0614291716
Ni     14.7287954312     2.8470792504    12.0649691823
Ni      8.5847325822     4.9713545084    12.0572785546
Ni     15.9552645405     4.9741488155    12.0632182266
Ni      0.0048781616    -0.0017890595    14.0802436085
Ni      7.3808381538    -0.0064145593    14.2667251910
Ni      1.2141969829     2.1240143994    14.0548669347
Ni      8.6194876973     2.1431252822    14.0527058391
Ni      2.4480625566     4.2804924485    14.0479676389
Ni      9.8251979452     4.2326195366    14.0537383977
Ni      2.4534042421    -0.0253646932    14.0475340345
Ni      9.8602088216    -0.0037683013    14.0623573884
Ni      3.6969870781     2.1744107060    14.1215877018
Ni     11.0663595364     2.1230040718    14.0786076753
Ni      4.9349652313     4.2805195350    14.0428656905
Ni     12.3053646741     4.2309819754    14.0616306528
Ni      4.9136603837    -0.0255419276    14.0301926992
Ni     12.2940990466    -0.0029622818    14.0714257519
Ni      6.1618053976     2.1416339678    14.0383983717
Ni     13.5215378888     2.1232447617    14.0703016320
Ni      7.3746995548     4.2574107463    14.0868428301
Ni     14.7538067341     4.2505499839    14.0730627548
O       7.3340870752     0.0270226557    16.0362155939
O       3.6381408339     2.0775116423    16.1504373878
H       3.9998898071     1.1675650936    16.2207340232
H       7.3979180037    -0.0184795473    16.9848339865
H       5.2670702861     2.8804344433    17.2080863444
H       3.7705097355     3.8698598651    17.1684024006
C       4.1631384116     2.8448838744    17.2593718456
O       4.1726612733     0.7582880876    18.4433326997
H       5.1407057853     0.7946599991    18.4902959883
C       3.7016262246     2.1172579353    18.5215408499
H       2.6095832000     2.0383649080    18.5097622644
C       4.1705123115     2.8188094856    19.7843198426
H       3.8232048905     3.8703812755    19.7743391975
H       5.2759273305     2.8274575588    19.7779897265
O       3.6644781508     2.1207827752    20.9229923508
H       4.0066831376     2.5749559803    21.7123532109
88
Step 6 | ATOMIC_POSITIONS (angstrom) | Cartesian Angstrom
Ni      1.2285271350     0.7092904721     8.0000000000
Ni      8.6004271350     0.7092904721     8.0000000000
Ni      2.4570542700     2.8371618884     8.0000000000
Ni      9.8289542700     2.8371618884     8.0000000000
Ni      3.6859500000     4.9656717300     8.0000000000
Ni     11.0578500000     4.9656717300     8.0000000000
Ni      3.6855814050     0.7092904721     8.0000000000
Ni     11.0574814050     0.7092904721     8.0000000000
Ni      4.9141085400     2.8371618884     8.0000000000
Ni     12.2860085400     2.8371618884     8.0000000000
Ni      6.1430042700     4.9656717300     8.0000000000
Ni     13.5149042700     4.9656717300     8.0000000000
Ni      6.1433728650     0.7092904721     8.0000000000
Ni     13.5152728650     0.7092904721     8.0000000000
Ni      7.3719000000     2.8371618884     8.0000000000
Ni     14.7438000000     2.8371618884     8.0000000000
Ni      8.6007957300     4.9656717300     8.0000000000
Ni     15.9726957300     4.9656717300     8.0000000000
Ni      0.0161120113    -0.0094798603    10.0269828335
Ni      7.3898976645    -0.0107404316    10.0300602673
Ni      1.2468823102     2.1176759219    10.0240990713
Ni      8.6194062285     2.1173474853    10.0284633986
Ni      2.4753506925     4.2448807783    10.0247279454
Ni      9.8483146463     4.2451604177    10.0279745625
Ni      2.4752330284    -0.0107103748    10.0252829113
Ni      9.8469377114    -0.0087823970    10.0262494360
Ni      3.7032323504     2.1177012551    10.0297778182
Ni     11.0759037101     2.1174925909    10.0321524684
Ni      4.9327221687     4.2464921224    10.0236220242
Ni     12.3028816960     4.2451704176    10.0261926720
Ni      4.9332531792    -0.0100145911    10.0241754291
Ni     12.3039708413    -0.0095671951    10.0284664892
Ni      6.1620719734     2.1162201461    10.0215797814
Ni     13.5319822653     2.1180409027    10.0287768932
Ni      7.3883016451     4.2465089988    10.0228042434
Ni     14.7623609306     4.2451897728    10.0245020654
Ni      1.2090568645     0.7214008264    12.0551112071
Ni      8.5673206489     0.7030710201    12.0825998287
Ni      2.4429384894     2.8446521837    12.0700132095
Ni      9.8139610070     2.8460180553    12.0642225361
Ni      3.6661517075     4.9776180123    12.0517889349
Ni     11.0458604527     4.9974052293    12.0834187486
Ni      3.6731619676     0.7325726147    12.0751703747
Ni     11.0358585018     0.7187139566    12.0640924866
Ni      4.8950794609     2.8385647809    12.0632311911
Ni     12.2671117076     2.8518748081    12.0636066096
Ni      6.1330331451     4.9724778427    12.0496794968
Ni     13.4941946890     4.9772819089    12.0584489119
Ni      6.1429660247     0.7109383155    12.0820478645
Ni     13.4962331212     0.7200977973    12.0592953095
Ni      7.3546653300     2.8489199403    12.0543077359
Ni     14.7253955449     2.8493123660    12.0593881356
Ni      8.5815284449     4.9718398576    12.0493536861
Ni     15.9511461029     4.9762815383    12.0569215593
Ni      0.0053475388    -0.0010235186    14.0769800178
Ni      7.3853841233    -0.0095313698    14.2663968999
Ni      1.2148401759     2.1229810062    14.0477720082
Ni      8.6218729806     2.1425935485    14.0422818601
Ni      2.4478048273     4.2836882293    14.0402967581
Ni      9.8266923170     4.2307630931    14.0434171928
Ni      2.4548892958    -0.0241558051    14.0383887146
Ni      9.8642329781    -0.0056859921    14.0558502642
Ni      3.6977937713     2.1794499629    14.1311433920
Ni     11.0685541873     2.1218648462    14.0751529078
Ni      4.9362303371     4.2814771746    14.0338355681
Ni     12.3090219084     4.2283426292    14.0551000648
Ni      4.9134671168    -0.0262740883    14.0195953660
Ni     12.2956656868    -0.0025859580    14.0663159972
Ni      6.1635678939     2.1432810892    14.0288159235
Ni     13.5224871716     2.1217308263    14.0651264637
Ni      7.3755436774     4.2575240266    14.0843253362
Ni     14.7551414046     4.2496978121    14.0684834261
O       7.3178323686     0.0385937333    16.0405019546
O       3.6368630801     2.0712145075    16.1582664024
H       3.9925000625     1.1609251420    16.2369201960
H       7.4091745191    -0.0264569152    16.9842498677
H       5.2636063288     2.8862223532    17.2065738479
H       3.7689659934     3.8640303926    17.1632310797
C       4.1618321544     2.8418729385    17.2582171185
O       4.1737569412     0.7632058333    18.4402735208
H       5.1428061902     0.7840157468    18.4935571199
C       3.7040169322     2.1198574826    18.5204399685
H       2.6130422076     2.0384380153    18.5122995835
C       4.1736751564     2.8193074999    19.7808362142
H       3.8257034825     3.8663450803    19.7697181868
H       5.2755571198     2.8327907715    19.7791150423
O       3.6662249384     2.1273210383    20.9201949877
H       4.0024816916     2.5701521171    21.7192449944
88
Step 7 | ATOMIC_POSITIONS (angstrom) | Cartesian Angstrom
Ni      1.2285271350     0.7092904721     8.0000000000
Ni      8.6004271350     0.7092904721     8.0000000000
Ni      2.4570542700     2.8371618884     8.0000000000
Ni      9.8289542700     2.8371618884     8.0000000000
Ni      3.6859500000     4.9656717300     8.0000000000
Ni     11.0578500000     4.9656717300     8.0000000000
Ni      3.6855814050     0.7092904721     8.0000000000
Ni     11.0574814050     0.7092904721     8.0000000000
Ni      4.9141085400     2.8371618884     8.0000000000