116
Step 1 | ATOMIC_POSITIONS (angstrom) | Cartesian Angstrom
NI      0.0009872020    -0.0000024260    12.0382123380
NI      1.2296369450     2.1280796380    12.0382123380
NI      2.4582866880     4.2561617010    12.0382123380
NI      3.6869364310     6.3842437650    12.0382123380
NI      4.9155861730     8.5123258290    12.0382123380
NI      2.4583643270    -0.0000024260    12.0382123380
NI      3.6870140700     2.1280796380    12.0382123380
NI      4.9156638130     4.2561617010    12.0382123380
NI      6.1443135560     6.3842437650    12.0382123380
NI      7.3729632980     8.5123258290    12.0382123380
NI      4.9156185770    -0.0000024260    12.0382123380
NI      6.1442683200     2.1280796380    12.0382123380
NI      7.3729180630     4.2561617010    12.0382123380
NI      8.6015678060     6.3842437650    12.0382123380
NI      9.8302175480     8.5123258290    12.0382123380
NI      7.3728728270    -0.0000024260    12.0382123380
NI      8.6015225700     2.1280796380    12.0382123380
NI      9.8301723130     4.2561617010    12.0382123380
NI     11.0588220560     6.3842437650    12.0382123380
NI     12.2874717980     8.5123258290    12.0382123380
NI      9.8302499520    -0.0000024260    12.0382123380
NI     11.0588996950     2.1280796380    12.0382123380
NI     12.2875494380     4.2561617010    12.0382123380
NI     13.5161991810     6.3842437650    12.0382123380
NI     14.7448489230     8.5123258290    12.0382123380
NI      2.4582140657     1.4187005543    14.0470947054
NI      3.6867637960     3.5467255904    14.0469894658
NI      4.9154512926     5.6748776573    14.0469152161
NI      6.1438275560     7.8030848094    14.0466411035
NI      7.3727567864     9.9311616197    14.0469521308
NI      4.9154310708     1.4186937524    14.0469573692
NI      6.1442481669     3.5467562154    14.0470882043
NI      7.3729941586     5.6748716423    14.0471373768
NI      8.6015250220     7.8029998527    14.0472292655
NI      9.8300776391     9.9312212149    14.0468027637
NI      7.3729843048     1.4189511426    14.0467332836
NI      8.6014431122     3.5466326322    14.0466732459
NI      9.8302027494     5.6748926349    14.0470935598
NI     11.0587678648     7.8028244541    14.0466621184
NI     12.2871247840     9.9311847046    14.0472537852
NI      9.8301636182     1.4189756958    14.0469445161
NI     11.0590405279     3.5466040753    14.0470227602
NI     12.2873267000     5.6746056293    14.0472119932
NI     13.5159532856     7.8028562728    14.0472069985
NI     14.7448276167     9.9311659242    14.0470602405
NI     12.2876436873     1.4187459501    14.0469296069
NI     13.5162189062     3.5466122922    14.0468978688
NI     14.7450123167     5.6746278189    14.0471265702
NI     15.9740195421     7.8028756441    14.0471036868
NI     17.2025805491     9.9307985963    14.0468800157
NI      1.2295892161     0.7094146584    16.0489997615
NI      2.4582869212     2.8374774022    16.0489149142
NI      3.6870662983     4.9655563218    16.0495241611
NI      4.9159523263     7.0933424904    16.0499173818
NI      6.1441395620     9.2216484637    16.0491504598
NI      3.6869499225     0.7094361833    16.0487114984
NI      4.9159911040     2.8376567632    16.0485009899
NI      6.1454430806     4.9648885274    16.0480843779
NI      7.3738261392     7.0926329997    16.0486838886
NI      8.6015193058     9.2214735557    16.0485968817
NI      6.1442771576     0.7096097815    16.0495782860
NI      7.3728850253     2.8391214476    16.0488128039
NI      8.5999983482     4.9659710626    16.0489663403
NI      9.8299209461     7.0933882893    16.0483437010
NI     11.0589492731     9.2214165255    16.0491812600
NI      8.6012820521     0.7095775180    16.0495598643
NI      9.8295117296     2.8373825940    16.0484189731
NI     11.0583053915     4.9655988246    16.0492716441
NI     12.2872038007     7.0937545252    16.0491067218
NI     13.5159854213     9.2214107644    16.0491281148
NI     11.0588975407     0.7094973559    16.0487142578
NI     12.2874619842     2.8374580224    16.0487562967
NI     13.5162077408     4.9656566312    16.0487796613
NI     14.7445895458     7.0936952772    16.0488659415
NI     15.9733641015     9.2216099901    16.0489557125
NI      0.0011669703    -0.0000985540    18.0589938508
NI      1.2296213624     2.1280091323    18.0587834188
NI      2.4581750301     4.2561145193    18.0587399094
NI      3.6864537932     6.3845125388    18.0588078953
NI      4.9156444652     8.5124599300    18.0588346965
NI      2.4582780362     0.0000423268    18.0594802982
NI      3.6862958492     2.1276727107    18.0590978945
NI      4.9110634645     4.2563000421    18.0572807481
NI      6.1381219923     6.3880511564    18.0547760040
NI      7.3706944147     8.5167713953    18.0554802207
NI      4.9153876657    -0.0002973970    18.0590087655
NI      6.1423138780     2.1239540400    18.0569727620
NI      7.3694521255     4.2500584436    18.0770028378
NI      8.6061252712     6.3992021060    18.0466663618
NI      9.8325250262     8.5166087499    18.0545032072
NI      7.3729689149    -0.0006317667    18.0588066703
NI      8.6036840603     2.1241829335    18.0574890269
NI      9.8382491846     4.2511177655    18.0507038566
NI     11.0638950080     6.3840842378    18.0549388276
NI     12.2875652612     8.5121192118    18.0591472727
NI      9.8303200920     0.0000134519    18.0589810719
NI     11.0594776963     2.1280913606    18.0592906342
NI     12.2872436124     4.2560906704    18.0595990550
NI     13.5158098736     6.3844136786    18.0591323434
NI     14.7446214868     8.5123506559    18.0588578472
O       7.4085591128     4.3102564859    19.9024154385
O       8.6565194235     6.3459327577    19.9738566443
H       8.9818452832     5.3955800138    20.0208973174
H       7.4128551390     4.3195994488    20.8789520870
H      10.2273093737     7.0512920055    21.0517518808
H       8.7508525055     8.0568585128    21.0493343794
C       9.1255319899     7.0420385921    21.1032844968
O       9.1338710780     4.9685922870    22.3271799221
H      10.1135891077     5.0242416319    22.3347173583
C       8.6552947586     6.3169180699    22.3618347193
H       7.5409186526     6.2333927483    22.3585748040
C       9.1280468717     7.0112997912    23.6253081357
H       8.7843882126     8.0510905404    23.6561833630
H      10.2373345022     6.9991223170    23.6564008077
O       8.6465609497     6.3143926237    24.7722146348
H       8.9903172790     6.7906227978    25.5460687195
116
Step 2 | ATOMIC_POSITIONS (angstrom) | Cartesian Angstrom
NI      0.0009872020    -0.0000024260    12.0382123380
NI      1.2296369450     2.1280796380    12.0382123380
NI      2.4582866880     4.2561617010    12.0382123380
NI      3.6869364310     6.3842437650    12.0382123380
NI      4.9155861730     8.5123258290    12.0382123380
NI      2.4583643270    -0.0000024260    12.0382123380
NI      3.6870140700     2.1280796380    12.0382123380
NI      4.9156638130     4.2561617010    12.0382123380
NI      6.1443135560     6.3842437650    12.0382123380
NI      7.3729632980     8.5123258290    12.0382123380
NI      4.9156185770    -0.0000024260    12.0382123380
NI      6.1442683200     2.1280796380    12.0382123380
NI      7.3729180630     4.2561617010    12.0382123380
NI      8.6015678060     6.3842437650    12.0382123380
NI      9.8302175480     8.5123258290    12.0382123380
NI      7.3728728270    -0.0000024260    12.0382123380
NI      8.6015225700     2.1280796380    12.0382123380
NI      9.8301723130     4.2561617010    12.0382123380
NI     11.0588220560     6.3842437650    12.0382123380
NI     12.2874717980     8.5123258290    12.0382123380
NI      9.8302499520    -0.0000024260    12.0382123380
NI     11.0588996950     2.1280796380    12.0382123380
NI     12.2875494380     4.2561617010    12.0382123380
NI     13.5161991810     6.3842437650    12.0382123380
NI     14.7448489230     8.5123258290    12.0382123380
NI      2.4581517591     1.4187186411    14.0519690636
NI      3.6864384756     3.5465955916    14.0516225739
NI      4.9152848564     5.6749520486    14.0514335786
NI      6.1431183052     7.8033746468    14.0506352665
NI      7.3726022956     9.9314578161    14.0515113715
NI      4.9150672767     1.4186815931    14.0515274574
NI      6.1441513956     3.5466619842    14.0518532604
NI      7.3731425158     5.6749696423    14.0518823907
NI      8.6014212618     7.8032052785    14.0522256824
NI      9.8297720886     9.9316295204    14.0510016606
NI      7.3732217103     1.4194815103    14.0509114916
NI      8.6012741800     3.5463788872    14.0506830867
NI      9.8302524569     5.6749019520    14.0519007511
NI     11.0586915131     7.8026143729    14.0505471855
NI     12.2863883160     9.9315668042    14.0525552091
NI      9.8302626361     1.4195284136    14.0514695178
NI     11.0595920643     3.5462257134    14.0517023043
NI     12.2871033533     5.6740960507    14.0523081465
NI     13.5156930201     7.8027110659    14.0522545650
NI     14.7450398178     9.9315158713    14.0518931985
NI     12.2879442304     1.4188513982    14.0514320692
NI     13.5163276141     3.5462306600    14.0513121709
NI     14.7454934802     5.6741817877    14.0520680191
NI     15.9752431899     7.8027246951    14.0520484326
NI     17.2036288027     9.9303669266    14.0512793949
NI      1.2294712345     0.7094308749    16.0453246494
NI      2.4582593153     2.8374972470    16.0449687621
NI      3.6872633742     4.9656752868    16.0467911901
NI      4.9165683422     7.0928489429    16.0477378995
NI      6.1436884809     9.2215662831    16.0453248855
NI      3.6867806583     0.7094789541    16.0443437271
NI      4.9166608461     2.8380435177    16.0435441084
NI      6.1483655986     4.9630992320    16.0433074561
NI      7.3752158599     7.0907722386    16.0433675787
NI      8.6012457585     9.2211037401    16.0435159380
NI      6.1443641925     0.7099616482    16.0469212453
NI      7.3728764216     2.8432119367    16.0454789027
NI      8.5960204893     4.9663096220    16.0461987641
NI      9.8300161350     7.0931436367    16.0421077146
NI     11.0594184533     9.2208788867    16.0453433602
NI      8.6012530498     0.7098633768    16.0468540293
NI      9.8285783265     2.8368724535    16.0426494447
NI     11.0579905921     4.9657787000    16.0454262127
NI     12.2874541793     7.0942232319    16.0451422330
NI     13.5162977627     9.2207728921    16.0456015289
NI     11.0589030928     0.7096902275    16.0442946174
NI     12.2872772891     2.8374489622    16.0444783468
NI     13.5161860792     4.9658860040    16.0445252220
NI     14.7440876372     7.0938659524    16.0447882528
NI     15.9730365207     9.2213574928    16.0450445207
NI      0.0014364837     0.0000296480    18.0621221898
NI      1.2295804316     2.1278190958    18.0613873269
NI      2.4575824929     4.2559342894    18.0613258820
NI      3.6848220857     6.3853019512    18.0615769519
NI      4.9154187203     8.5131979372    18.0617734346
NI      2.4580473482     0.0004582863    18.0637963350
NI      3.6844878384     2.1266442440    18.0624236158
NI      4.9007101451     4.2565905666    18.0559837857
NI      6.1250597528     6.3961585515    18.0478588059
NI      7.3653563671     8.5270245124    18.0507121525
NI      4.9148753292    -0.0008929287    18.0622581281
NI      6.1377351903     2.1144517453    18.0549503330
NI      7.3621535611     4.2374272397    18.1140172911
NI      8.6162220547     6.4308830323    18.0287017337
NI      9.8381380814     8.5267282232    18.0475011201
NI      7.3732100444    -0.0023838075    18.0615239762
NI      8.6085313830     2.1154010192    18.0567497191
NI      9.8551735261     4.2410600751    18.0350337410
NI     11.0750255660     6.3836611361    18.0490846260
NI     12.2880042566     8.5118149394    18.0627404914
NI      9.8306154239    -0.0002448703    18.0621326693
NI     11.0611498388     2.1276049977    18.0631500711
NI     12.2871971485     4.2558871403    18.0643031010
NI     13.5152998569     6.3848462318    18.0626249076
NI     14.7441008575     8.5123695638    18.0616807118
O       7.3950405509     4.2712059278    19.8964368559
O       8.6670137931     6.3506157225    19.9986838692
H       8.9521684458     5.3888888944    20.0363868079
H       7.4070093386     4.3013232558    20.8595581635
H      10.2387988403     7.0624759829    21.0631185141
H       8.7456035822     8.0743215679    21.0434148530
C       9.1418665725     7.0629604365    21.1197885274
O       9.1355519875     4.9527025827    22.3179553695
H      10.1075438341     5.0147598904    22.3380178009
C       8.6650865813     6.3168366824    22.3743772307
H       7.5537518389     6.2367145248    22.3599563081
C       9.1297665887     7.0146330886    23.6406890231
H       8.7840086945     8.0684691431    23.6438783237
H      10.2445375402     7.0068700406    23.6402887125
O       8.6352695658     6.3067325009    24.7787804729
H       8.9857044404     6.7850672995    25.5478403215
116
Step 3 | ATOMIC_POSITIONS (angstrom) | Cartesian Angstrom
NI      0.0009872020    -0.0000024260    12.0382123380
NI      1.2296369450     2.1280796380    12.0382123380
NI      2.4582866880     4.2561617010    12.0382123380
NI      3.6869364310     6.3842437650    12.0382123380
NI      4.9155861730     8.5123258290    12.0382123380
NI      2.4583643270    -0.0000024260    12.0382123380
NI      3.6870140700     2.1280796380    12.0382123380
NI      4.9156638130     4.2561617010    12.0382123380
NI      6.1443135560     6.3842437650    12.0382123380
NI      7.3729632980     8.5123258290    12.0382123380
NI      4.9156185770    -0.0000024260    12.0382123380
NI      6.1442683200     2.1280796380    12.0382123380
NI      7.3729180630     4.2561617010    12.0382123380
NI      8.6015678060     6.3842437650    12.0382123380
NI      9.8302175480     8.5123258290    12.0382123380
NI      7.3728728270    -0.0000024260    12.0382123380
NI      8.6015225700     2.1280796380    12.0382123380
NI      9.8301723130     4.2561617010    12.0382123380
NI     11.0588220560     6.3842437650    12.0382123380
NI     12.2874717980     8.5123258290    12.0382123380
NI      9.8302499520    -0.0000024260    12.0382123380
NI     11.0588996950     2.1280796380    12.0382123380
NI     12.2875494380     4.2561617010    12.0382123380
NI     13.5161991810     6.3842437650    12.0382123380
NI     14.7448489230     8.5123258290    12.0382123380
NI      2.4580913411     1.4187338844    14.0552984467
NI      3.6861508941     3.5465604913    14.0546657777
NI      4.9152175655     5.6749477324    14.0545223599
NI      6.1425780627     7.8035371799    14.0532619701
NI      7.3724730383     9.9316946297    14.0544856778
NI      4.9148517683     1.4186298792    14.0545159036
NI      6.1440214230     3.5465550368    14.0547983195
NI      7.3731834201     5.6750507508    14.0545127576
NI      8.6012650706     7.8034937182    14.0551182128
NI      9.8295184349     9.9319453767    14.0535908896
NI      7.3733648471     1.4199111534    14.0538222542
NI      8.6011314681     3.5463922093    14.0531631460
NI      9.8301354326     5.6746049298    14.0550087639
NI     11.0587595454     7.8025130037    14.0527023683
NI     12.2858183912     9.9319777899    14.0563656136
NI      9.8303453472     1.4197851295    14.0543703710
NI     11.0601158325     3.5459542753    14.0546268708
NI     12.2869143260     5.6736635439    14.0556944441
NI     13.5155138202     7.8026446482    14.0555218963
NI     14.7451793504     9.9318782586    14.0551944001
NI     12.2881795832     1.4189009268    14.0543900681
NI     13.5164614690     3.5459590348    14.0541596886
NI     14.7459812495     5.6738313458    14.0554130226
NI     15.9762665781     7.8025157585    14.0554903667
NI     17.2044835507     9.9300621886    14.0541326237
NI      1.2293582350     0.7094096802    16.0438979871
NI      2.4582114370     2.8375513359    16.0430890812
NI      3.6872695167     4.9660275709    16.0456263574
NI      4.9165241757     7.0926000902    16.0463425285
NI      6.1426809704     9.2217533406    16.0426244529
NI      3.6866245656     0.7094337567    16.0421621373
NI      4.9171261320     2.8383221215    16.0403834517
NI      6.1515611275     4.9609065295    16.0424161788
NI      7.3755972676     7.0896057750    16.0386655997
NI      8.6008848624     9.2211794945    16.0396657605
NI      6.1446514693     0.7100493095    16.0457365111
NI      7.3729865518     2.8475665806    16.0457168213
NI      8.5916418402     4.9657009965    16.0472795316
NI      9.8315077947     7.0933310978    16.0359110014
NI     11.0606162839     9.2208164318    16.0423936738
NI      8.6009516918     0.7098329867    16.0456493641
NI      9.8275785496     2.8356958037    16.0374498274
NI     11.0582459998     4.9660949697    16.0419152395
NI     12.2882007484     7.0949817215    16.0422434892
NI     13.5166199400     9.2203023723    16.0439790503
NI     11.0589331605     0.7097654885    16.0419355679
NI     12.2871701498     2.8374995613    16.0423870081
NI     13.5161507963     4.9660936525    16.0423519517
NI     14.7437311013     7.0939718424    16.0427173767
NI     15.9726893063     9.2211257682    16.0430571581
NI      0.0013572634     0.0010363368    18.0645863836
NI      1.2295453693     2.1275624014    18.0632346750
NI      2.4561933059     4.2555367748    18.0633335130
NI      3.6819777600     6.3864728491    18.0638585024
NI      4.9143530416     8.5149425537    18.0644439660
NI      2.4577423973     0.0016139465    18.0676195383
NI      3.6822733457     2.1254054037    18.0649889050
NI      4.8908474013     4.2568164732    18.0530895094
NI      6.1145107135     6.4029571604    18.0394040613
NI      7.3598498692     8.5373487576    18.0455847881
NI      4.9144346381    -0.0012695033    18.0650484093
NI      6.1329719519     2.1048812417    18.0512830877
NI      7.3559287094     4.2275894974    18.1365695280
NI      8.6253449705     6.4582797571    18.0207287469
NI      9.8443924068     8.5376737513    18.0401168232
NI      7.3735413149    -0.0048466857    18.0636133362
NI      8.6131774589     2.1069565842    18.0545550734
NI      9.8690584470     4.2332903024    18.0180689404
NI     11.0851585078     6.3833196227    18.0427862767
NI     12.2889955612     8.5118770571    18.0659194561
NI      9.8312339905    -0.0012023956    18.0647512579
NI     11.0636545022     2.1259041701    18.0664429210
NI     12.2887916654     4.2555377708    18.0687330391
NI     13.5156972589     6.3853627084    18.0655901162
NI     14.7435923884     8.5123000426    18.0638600270
O       7.3822508561     4.2283640410    19.8910087416
O       8.6738247476     6.3500453733    20.0081238375
H       8.9195386072     5.3888481935    20.0577985060
H       7.4006317626     4.2822988014    20.8540763125
H      10.2553209254     7.0791529118    21.0770529634
H       8.7431613818     8.0910196378    21.0403062828
C       9.1532740070     7.0716605680    21.1388685936
O       9.1295170278     4.9515065787    22.3095320656
H      10.1098252115     5.0011219594    22.3418201197
C       8.6717080881     6.3184927965    22.3838586345
H       7.5695827899     6.2407226447    22.3618385787
C       9.1323264322     7.0167660991    23.6485787995
H       8.7861297831     8.0755736454    23.6336514295
H      10.2467064706     7.0154280943    23.6298253120
O       8.6300340920     6.3081803786    24.7822703654
H       8.9793218560     6.7771151638    25.5539994599
116
Step 4 | ATOMIC_POSITIONS (angstrom) | Cartesian Angstrom
NI      0.0009872020    -0.0000024260    12.0382123380
NI      1.2296369450     2.1280796380    12.0382123380
NI      2.4582866880     4.2561617010    12.0382123380
NI      3.6869364310     6.3842437650    12.0382123380
NI      4.9155861730     8.5123258290    12.0382123380
NI      2.4583643270    -0.0000024260    12.0382123380
NI      3.6870140700     2.1280796380    12.0382123380
NI      4.9156638130     4.2561617010    12.0382123380
NI      6.1443135560     6.3842437650    12.0382123380
NI      7.3729632980     8.5123258290    12.0382123380
NI      4.9156185770    -0.0000024260    12.0382123380
NI      6.1442683200     2.1280796380    12.0382123380
NI      7.3729180630     4.2561617010    12.0382123380
NI      8.6015678060     6.3842437650    12.0382123380
NI      9.8302175480     8.5123258290    12.0382123380
NI      7.3728728270    -0.0000024260    12.0382123380
NI      8.6015225700     2.1280796380    12.0382123380
NI      9.8301723130     4.2561617010    12.0382123380
NI     11.0588220560     6.3842437650    12.0382123380
NI     12.2874717980     8.5123258290    12.0382123380
NI      9.8302499520    -0.0000024260    12.0382123380
NI     11.0588996950     2.1280796380    12.0382123380
NI     12.2875494380     4.2561617010    12.0382123380
NI     13.5161991810     6.3842437650    12.0382123380
NI     14.7448489230     8.5123258290    12.0382123380
NI      2.4580070035     1.4187638297    14.0577495940
NI      3.6858386300     3.5466334132    14.0566818717
NI      4.9153535067     5.6747540316    14.0569039793
NI      6.1420405916     7.8036108088    14.0548576423
NI      7.3722876228     9.9319899188    14.0563308874
NI      4.9147410600     1.4185278804    14.0564663876
NI      6.1438778902     3.5464224679    14.0565152220
NI      7.3731163436     5.6750019404    14.0555337161
NI      8.6010107871     7.8039151200    14.0562196979
NI      9.8292909224     9.9322839711    14.0549593383
NI      7.3734528697     1.4204864030    14.0561980811
NI      8.6008732276     3.5467350671    14.0545608349
NI      9.8295929998     5.6737787331    14.0570249018
NI     11.0591067824     7.8025589720    14.0532160036
NI     12.2854360022     9.9325341269    14.0592782946
NI      9.8304140706     1.4196547410    14.0560591389
NI     11.0607649423     3.5456642288    14.0561609523
NI     12.2868384398     5.6732493383    14.0578467227
NI     13.5155041709     7.8026974555    14.0575137874
NI     14.7452860014     9.9322882161    14.0575248357
NI     12.2884053160     1.4189035902    14.0563850475
NI     13.5166614740     3.5457536256    14.0559874587
NI     14.7465517101     5.6735274342    14.0577692322
NI     15.9772017365     7.8022495224    14.0580012721
NI     17.2051979347     9.9298598304    14.0558900774
NI      1.2292079715     0.7093462148    16.0445324723
NI      2.4581504494     2.8376739620    16.0429762824
NI      3.6870331802     4.9667507936    16.0456997129
NI      4.9155874769     7.0926036095    16.0452736958
NI      6.1407403019     9.2223137614    16.0404851140
NI      3.6864910368     0.7092824265    16.0418799148
NI      4.9173572751     2.8384867670    16.0382446901
NI      6.1551348610     4.9580866417    16.0448996820
NI      7.3754064861     7.0889738282    16.0338640007
NI      8.6003516566     9.2217006093    16.0363090380
NI      6.1452769268     0.7098567046    16.0456152092
NI      7.3732166835     2.8525196504    16.0493779327
NI      8.5864312095     4.9647646771    16.0524674238
NI      9.8344196893     7.0938622393    16.0286974872
NI     11.0629802918     9.2213756634    16.0395926685
NI      8.6002828899     0.7093608195    16.0456133665
NI      9.8264612058     2.8333881134    16.0314712544
NI     11.0593261255     4.9666086843    16.0376294012
NI     12.2898387727     7.0962617797    16.0398064799
NI     13.5171191811     9.2198929341    16.0439985257
NI     11.0589168882     0.7097124921    16.0412257958
NI     12.2870559717     2.8376608655    16.0422503013
NI     13.5161060593     4.9663410971    16.0419382170
NI     14.7434550681     7.0940692572    16.0422584336
NI     15.9722051634     9.2208837025    16.0426569646
NI      0.0008271573     0.0033605128    18.0669835557
NI      1.2295040517     2.1271939873    18.0647930349
NI      2.4535930307     4.2547754983    18.0652812578
NI      3.6772155962     6.3883456496    18.0662596289
NI      4.9120744362     8.5181683738    18.0674683349
NI      2.4572404311     0.0038919618    18.0718588233
NI      3.6791215937     2.1237506438    18.0674129547
NI      4.8795377958     4.2570652738    18.0480684942
NI      6.1047086967     6.4096955111    18.0275279345
NI      7.3530754899     8.5498153875    18.0389059757
NI      4.9140522054    -0.0013878082    18.0680992353
NI      6.1270415899     2.0933293283    18.0453174860
NI      7.3494247568     4.2195603518    18.1451122316
NI      8.6353960629     6.4872358989    18.0196465030
NI      9.8526222240     8.5518201564    18.0306961573
NI      7.3741112636    -0.0086177458    18.0656052517
NI      8.6186322542     2.0972057413    18.0505441394
NI      9.8824363266     4.2262687602    17.9963131113
NI     11.0961265163     6.3830494359    18.0345407042
NI     12.2908841493     8.5123284851    18.0694020870
NI      9.8323288132    -0.0032104944    18.0674891515
NI     11.0675852265     2.1225221396    18.0699455394
NI     12.2925980276     4.2549547214    18.0739029167
NI     13.5172490736     6.3861252100    18.0687542460
NI     14.7430135822     8.5121094216    18.0659223083
O       7.3671489857     4.1690157426    19.9041077074
O       8.6807734378     6.3549992350    20.0150832470
H       8.8771564508     5.3871985988    20.0901784006
H       7.3919006771     4.2578561379    20.8483538745
H      10.2731852247     7.1037669017    21.0973094521
H       8.7460704992     8.1020501297    21.0407983019
C       9.1643786065     7.0823802010    21.1524911727
O       9.1341370243     4.9575870930    22.3011862463
H      10.1030104478     4.9795444168    22.3466226726
C       8.6789520410     6.3235617745    22.3918460120
H       7.5865673800     6.2471189702    22.3649942106
C       9.1369188881     7.0198515496    23.6533762969
H       8.7904295129     8.0767726987    23.6229637790
H      10.2466158798     7.0265759246    23.6226538403
O       8.6267651882     6.3146236672    24.7813708065
H       8.9714889703     6.7674843837    25.5682389959
116
Step 5 | ATOMIC_POSITIONS (angstrom) | Cartesian Angstrom
NI      0.0009872020    -0.0000024260    12.0382123380
NI      1.2296369450     2.1280796380    12.0382123380
NI      2.4582866880     4.2561617010    12.0382123380
NI      3.6869364310     6.3842437650    12.0382123380
NI      4.9155861730     8.5123258290    12.0382123380
NI      2.4583643270    -0.0000024260    12.0382123380
NI      3.6870140700     2.1280796380    12.0382123380
NI      4.9156638130     4.2561617010    12.0382123380
NI      6.1443135560     6.3842437650    12.0382123380
NI      7.3729632980     8.5123258290    12.0382123380
NI      4.9156185770    -0.0000024260    12.0382123380
NI      6.1442683200     2.1280796380    12.0382123380
NI      7.3729180630     4.2561617010    12.0382123380
NI      8.6015678060     6.3842437650    12.0382123380
NI      9.8302175480     8.5123258290    12.0382123380
NI      7.3728728270    -0.0000024260    12.0382123380
NI      8.6015225700     2.1280796380    12.0382123380
NI      9.8301723130     4.2561617010    12.0382123380
NI     11.0588220560     6.3842437650    12.0382123380
NI     12.2874717980     8.5123258290    12.0382123380
NI      9.8302499520    -0.0000024260    12.0382123380
NI     11.0588996950     2.1280796380    12.0382123380
NI     12.2875494380     4.2561617010    12.0382123380
NI     13.5161991810     6.3842437650    12.0382123380
NI     14.7448489230     8.5123258290    12.0382123380
NI      2.4578818474     1.4187966983    14.0595741554
NI      3.6854079738     3.5468515186    14.0576644089
NI      4.9159572006     5.6740949795    14.0589233237
NI      6.1413791306     7.8036016574    14.0551152860
NI      7.3719607169     9.9325291729    14.0568569956
NI      4.9147266857     1.4182684549    14.0573507646
NI      6.1437681215     3.5462029152    14.0569650171
NI      7.3729104961     5.6745924791    14.0546410982
NI      8.6006336588     7.8046111363    14.0547643754
NI      9.8291193425     9.9327743004    14.0548290096
NI      7.3734884893     1.4215909781    14.0585380219
NI      8.6002418917     3.5476998785    14.0547993686
NI      9.8280630297     5.6719100568    14.0579205300
NI     11.0600638897     7.8029091141    14.0511595013
NI     12.2854344477     9.9334282004    14.0612962573
NI      9.8304409038     1.4187452133    14.0561708456
NI     11.0617940669     3.5451949767    14.0557910813
NI     12.2870492252     5.6728849786    14.0584567476
NI     13.5158604566     7.8030336809    14.0579785970
NI     14.7453230712     9.9327878945    14.0588916217
NI     12.2886916734     1.4188523058    14.0575428984
NI     13.5169833913     3.5456184120    14.0568551716
NI     14.7472660634     5.6732669982    14.0592035885
NI     15.9780117697     7.8019336207    14.0595775929
NI     17.2056732063     9.9298253087    14.0563706524
NI      1.2289884949     0.7091964671    16.0481476633
NI      2.4580673579     2.8379378536    16.0453020671
NI      3.6862371063     4.9681989123    16.0472457132
NI      4.9129156617     7.0931186302    16.0440984385
NI      6.1369247477     9.2235914701    16.0385893199
NI      3.6864597739     0.7088702384    16.0443077839
NI      4.9170944414     2.8383529505    16.0368338802
NI      6.1591489105     4.9541840475    16.0519162232
NI      7.3750130655     7.0891884002    16.0282749137
NI      8.5995546669     9.2229303394    16.0329202069
NI      6.1465536493     0.7090975004    16.0465438279
NI      7.3736610642     2.8583641779    16.0580247662
NI      8.5797597088     4.9643039211    16.0642713257
NI      9.8394219058     7.0948971035    16.0190575131
NI     11.0676696807     9.2230944112    16.0361340674
NI      8.5989383322     0.7079591175    16.0469540239
NI      9.8252402833     2.8287573495    16.0227455160
NI     11.0621442781     4.9675171074    16.0307007785
NI     12.2933171507     7.0986519302    16.0374212394
NI     13.5180670470     9.2194633279    16.0462779218
NI     11.0586989486     0.7094455433    16.0426581741
NI     12.2868193447     2.8380976800    16.0449884227
NI     13.5160200737     4.9667473896    16.0439614868
NI     14.7431745794     7.0942457129    16.0438706718
NI     15.9713279744     9.2206261525    16.0443778870