88
Step 1 | ATOMIC_POSITIONS (angstrom) | Cartesian Angstrom
NI      1.2285271350     0.7092904720     2.0000000000
NI      8.6004271350     0.7092904720     2.0000000000
NI      2.4570542700     2.8371618880     2.0000000000
NI      9.8289542700     2.8371618880     2.0000000000
NI      3.6859500000     4.9656717300     2.0000000000
NI     11.0578500000     4.9656717300     2.0000000000
NI      3.6855814050     0.7092904720     2.0000000000
NI     11.0574814050     0.7092904720     2.0000000000
NI      4.9141085400     2.8371618880     2.0000000000
NI     12.2860085400     2.8371618880     2.0000000000
NI      6.1430042700     4.9656717300     2.0000000000
NI     13.5149042700     4.9656717300     2.0000000000
NI      6.1433728650     0.7092904720     2.0000000000
NI     13.5152728650     0.7092904720     2.0000000000
NI      7.3719000000     2.8371618880     2.0000000000
NI     14.7438000000     2.8371618880     2.0000000000
NI      8.6007957300     4.9656717300     2.0000000000
NI     15.9726957300     4.9656717300     2.0000000000
NI      0.0017907850    -0.0010240772     4.0330848480
NI      7.3737378175    -0.0013088939     4.0327542952
NI      1.2305059910     2.1269858676     4.0330243434
NI      8.6025835953     2.1271345765     4.0321119351
NI      2.4591776034     4.2550929211     4.0329781295
NI      9.8309626895     4.2550848937     4.0326308893
NI      2.4588086312    -0.0010853807     4.0327359997
NI      9.8310722223    -0.0010198718     4.0325240804
NI      3.6875231848     2.1268512820     4.0323110840
NI     11.0596356708     2.1270962710     4.0331923784
NI      4.9164307350     4.2551007027     4.0324278980
NI     12.2882583917     4.2550383216     4.0325564651
NI      4.9162112207    -0.0013189327     4.0320638999
NI     12.2885408901    -0.0009605670     4.0330812803
NI      6.1449937381     2.1274035984     4.0325516114
NI     13.5170419591     2.1270220947     4.0331107356
NI      7.3733038640     4.2552606531     4.0321744222
NI     14.7459851214     4.2550447100     4.0327705262
NI      1.2265015760     0.7105251454     6.0690163446
NI      8.5973661218     0.7092795507     6.0692542028
NI      2.4553549820     2.8382491117     6.0700564638
NI      9.8265588817     2.8382166038     6.0712374405
NI      3.6842769806     4.9664767912     6.0698483540
NI     11.0565184350     4.9680381506     6.0694293970
NI      3.6841440089     0.7104683351     6.0702314432
NI     11.0552502978     0.7098153976     6.0701583799
NI      4.9128430727     2.8378092539     6.0704241859
NI     12.2844941179     2.8390194323     6.0700868507
NI      6.1410025138     4.9664763523     6.0689506416
NI     13.5127090131     4.9668988369     6.0692643957
NI      6.1431598653     0.7109760044     6.0716525174
NI     13.5134218315     0.7103467037     6.0690287508
NI      7.3699438447     2.8376605593     6.0687847058
NI     14.7418262912     2.8383496507     6.0690714075
NI      8.5991941928     4.9664975168     6.0695949600
NI     15.9705434434     4.9668365052     6.0691253838
NI      0.0009839299    -0.0006552115     8.0979147621
NI      7.3768640105    -0.0066204029     8.1258180354
NI      1.2295055899     2.1276074072     8.0978353894
NI      8.6071225140     2.1313255062     8.0931520212
NI      2.4580045169     4.2558498816     8.0979682594
NI      9.8279944684     4.2519674817     8.0974718848
NI      2.4579714393    -0.0006627323     8.0983246996
NI      9.8335361592     0.0001546010     8.0968544699
NI      3.6832018834     2.1278560486     8.0960875308
NI     11.0583208179     2.1275687151     8.0986060928
NI      4.9130968894     4.2589473679     8.0948130382
NI     12.2887048010     4.2524561121     8.0962191244
NI      4.9095641620    -0.0037485336     8.0939623340
NI     12.2873094899    -0.0005872820     8.0976524219
NI      6.1420656536     2.1392607955     8.1110461754
NI     13.5161670432     2.1278217777     8.0975510070
NI      7.3744008006     4.2600052788     8.0948854661
NI     14.7453816799     4.2554058157     8.0976126437
O       6.1541836354     2.1967133637    10.1953182600
H       6.5409875540     1.2037578369    10.2562901545
H       7.7602804701     2.8829748854    11.2981852258
H       6.2837698488     3.8901205392    11.2975258683
C       6.6508164074     2.8689951490    11.3398492071
O       6.6691903431     0.7970202178    12.5819900387
H       7.6480713208     0.8628739071    12.5875879287
C       6.1855436016     2.1536688116    12.6060851726
H       5.0740108072     2.0645802019    12.6038938148
C       6.6610743503     2.8426721322    13.8705527072
H       6.3167004921     3.8831845307    13.9020533684
H       7.7696319927     2.8319015634    13.9027164146
O       6.1786813849     2.1465723667    15.0199915223
H       6.5226077773     2.6230796843    15.7920251660
O       7.3729986863    -0.0021252818    10.0738948505
H       7.3702600895    -0.0134190871    11.0701548822
88
Step 2 | ATOMIC_POSITIONS (angstrom) | Cartesian Angstrom
NI      1.2285271350     0.7092904720     2.0000000000
NI      8.6004271350     0.7092904720     2.0000000000
NI      2.4570542700     2.8371618880     2.0000000000
NI      9.8289542700     2.8371618880     2.0000000000
NI      3.6859500000     4.9656717300     2.0000000000
NI     11.0578500000     4.9656717300     2.0000000000
NI      3.6855814050     0.7092904720     2.0000000000
NI     11.0574814050     0.7092904720     2.0000000000
NI      4.9141085400     2.8371618880     2.0000000000
NI     12.2860085400     2.8371618880     2.0000000000
NI      6.1430042700     4.9656717300     2.0000000000
NI     13.5149042700     4.9656717300     2.0000000000
NI      6.1433728650     0.7092904720     2.0000000000
NI     13.5152728650     0.7092904720     2.0000000000
NI      7.3719000000     2.8371618880     2.0000000000
NI     14.7438000000     2.8371618880     2.0000000000
NI      8.6007957300     4.9656717300     2.0000000000
NI     15.9726957300     4.9656717300     2.0000000000
NI      0.0044788847    -0.0025956981     4.0319047824
NI      7.3763840679    -0.0032071169     4.0313715561
NI      1.2333219615     2.1253461759     4.0317760793
NI      8.6057076917     2.1256558045     4.0296052798
NI      2.4620383964     4.2534610344     4.0316887285
NI      9.8336665143     4.2533847326     4.0309800790
NI      2.4614955149    -0.0026877004     4.0311149012
NI      9.8339098732    -0.0025181895     4.0305849396
NI      3.6903069380     2.1250205361     4.0301019113
NI     11.0623478207     2.1255927243     4.0323589524
NI      4.9194756332     4.2534160987     4.0303754676
NI     12.2909028964     4.2533065024     4.0306409250
NI      4.9188067960    -0.0031823897     4.0296151847
NI     12.2912328872    -0.0024063825     4.0319312358
NI      6.1476073958     2.1261785328     4.0307802505
NI     13.5195115959     2.1254261473     4.0319991875
NI      7.3755273553     4.2538485006     4.0297833444
NI     14.7488969661     4.2533607099     4.0311530966
NI      1.2234721234     0.7123718041     6.0698136534
NI      8.5923480296     0.7089811906     6.0712609319
NI      2.4527324218     2.8399183180     6.0721328036
NI      9.8231941399     2.8398176630     6.0748349511
NI      3.6816869000     4.9677200453     6.0716385324
NI     11.0544185262     4.9719331203     6.0714735017
NI      3.6819940407     0.7122201758     6.0724079342
NI     11.0519305295     0.7108314970     6.0723511112
NI      4.9111047592     2.8385889287     6.0734281069
NI     12.2820083939     2.8416176851     6.0721649985
NI      6.1379939224     4.9677769119     6.0693106756
NI     13.5094104184     4.9687886548     6.0702508838
NI      6.1432242599     0.7137333529     6.0781411630
NI     13.5106010182     0.7119443853     6.0698437428
NI      7.3667563142     2.8382053393     6.0693359777
NI     14.7388808522     2.8401303742     6.0699204936
NI      8.5968765449     4.9678173731     6.0707817607
NI     15.9673239564     4.9685944934     6.0700131128
NI      0.0023670080    -0.0014703457     8.0920848664
NI      7.3842643244    -0.0162534799     8.1553807048
NI      1.2306290960     2.1268624753     8.0918301622
NI      8.6160413093     2.1355329145     8.0794934417
NI      2.4589225378     4.2554571913     8.0921785101
NI      9.8266139653     4.2463068043     8.0902077009
NI      2.4590254741    -0.0013641853     8.0930170693
NI      9.8399470769     0.0001695949     8.0891236636
NI      3.6798260840     2.1274131937     8.0876711092
NI     11.0594683965     2.1266576916     8.0937813929
NI      4.9111105002     4.2632699277     8.0844433801
NI     12.2921991189     4.2468313275     8.0874571521
NI      4.9030251064    -0.0085156257     8.0818501463
NI     12.2883462600    -0.0014724977     8.0913855062
NI      6.1407526768     2.1555833134     8.1252059564
NI     13.5174019218     2.1272877575     8.0911825924
NI      7.3780382240     4.2651644355     8.0844308725
NI     14.7473982955     4.2542512784     8.0913673510
O       6.1299132452     2.1906321544    10.1904265145
H       6.5528373938     1.1887068570    10.2419736317
H       7.7628175357     2.8868446298    11.3027462496
H       6.2821883612     3.9026270773    11.2985683454
C       6.6523707988     2.8795721885    11.3334895961
O       6.6762208798     0.7843414401    12.5875739869
H       7.6469325897     0.8655542584    12.6007940475
C       6.1853877939     2.1532473807    12.6082973058
H       5.0843180510     2.0647930254    12.6040029068
C       6.6642649463     2.8446104019    13.8796113680
H       6.3167203267     3.8929360946    13.8940311563
H       7.7731969393     2.8371671577    13.8930568909
O       6.1710506843     2.1409269342    15.0235628079
H       6.5202456949     2.6203875887    15.7941443895
O       7.3671312447     0.0056990422    10.0673219506
H       7.3680609321    -0.0349761942    11.0427149453
88
Step 3 | ATOMIC_POSITIONS (angstrom) | Cartesian Angstrom
NI      1.2285271350     0.7092904720     2.0000000000
NI      8.6004271350     0.7092904720     2.0000000000
NI      2.4570542700     2.8371618880     2.0000000000
NI      9.8289542700     2.8371618880     2.0000000000
NI      3.6859500000     4.9656717300     2.0000000000
NI     11.0578500000     4.9656717300     2.0000000000
NI      3.6855814050     0.7092904720     2.0000000000
NI     11.0574814050     0.7092904720     2.0000000000
NI      4.9141085400     2.8371618880     2.0000000000
NI     12.2860085400     2.8371618880     2.0000000000
NI      6.1430042700     4.9656717300     2.0000000000
NI     13.5149042700     4.9656717300     2.0000000000
NI      6.1433728650     0.7092904720     2.0000000000
NI     13.5152728650     0.7092904720     2.0000000000
NI      7.3719000000     2.8371618880     2.0000000000
NI     14.7438000000     2.8371618880     2.0000000000
NI      8.6007957300     4.9656717300     2.0000000000
NI     15.9726957300     4.9656717300     2.0000000000
NI      0.0079984579    -0.0046863975     4.0306347822
NI      7.3797007929    -0.0056014320     4.0301976323
NI      1.2370426382     2.1232039101     4.0304410083
NI      8.6098797585     2.1236297372     4.0267997576
NI      2.4658222424     4.2512974685     4.0303287676
NI      9.8373162866     4.2510785337     4.0293253498
NI      2.4650639453    -0.0047532762     4.0293746888
NI      9.8376363700    -0.0044390342     4.0284299983
NI      3.6940065042     2.1226795343     4.0276539252
NI     11.0659405144     2.1236014335     4.0317202089
NI      4.9233360818     4.2511153816     4.0280736079
NI     12.2943604467     4.2510075738     4.0284803668
NI      4.9225048373    -0.0054349274     4.0270923345
NI     12.2947669856    -0.0043162429     4.0307180374
NI      6.1510129597     2.1242517670     4.0290809807
NI     13.5227744579     2.1233339175     4.0308180323
NI      7.3786293564     4.2519388965     4.0270701809
NI     14.7527103763     4.2511431198     4.0293271401
NI      1.2194994148     0.7147871547     6.0698016391
NI      8.5854137822     0.7082779687     6.0737936740
NI      2.4491886527     2.8421599144     6.0733782530
NI      9.8191903627     2.8419440166     6.0775404966
NI      3.6781131287     4.9694594318     6.0724688673
NI     11.0515264053     4.9773650693     6.0738521637
NI      3.6791393453     0.7144968603     6.0734680666
NI     11.0476396620     0.7124686321     6.0736924309
NI      4.9090587400     2.8393656464     6.0766191377
NI     12.2785058358     2.8447369874     6.0733371141
NI      6.1340462538     4.9696688935     6.0682663192
NI     13.5051688580     4.9712546336     6.0701864760
NI      6.1436982273     0.7174571506     6.0874943798
NI     13.5068937849     0.7140477686     6.0698622756
NI      7.3621855444     2.8386243359     6.0692529594
NI     14.7350593356     2.8424471058     6.0699344261
NI      8.5940578079     4.9697263377     6.0704469163
NI     15.9631495224     4.9708854413     6.0700162495
NI      0.0040086302    -0.0022650875     8.0848407184
NI      7.3939237659    -0.0287785087     8.1892712031
NI      1.2318512650     2.1258424859     8.0842940851
NI      8.6261830926     2.1399178559     8.0615949306
NI      2.4599478245     4.2550527485     8.0849708909
NI      9.8255746658     4.2400961336     8.0804407333
NI      2.4598407532    -0.0018643569     8.0863289021
NI      9.8479762598    -0.0001318337     8.0793482817
NI      3.6760273691     2.1268123869     8.0773156533
NI     11.0616280820     2.1252497192     8.0878190634
NI      4.9084814168     4.2691006689     8.0716022335
NI     12.2968911893     4.2396391324     8.0763316798
NI      4.8960600208    -0.0135440310     8.0662625845
NI     12.2900544052    -0.0026375133     8.0835363377
NI      6.1392623947     2.1759427544     8.1447238608
NI     13.5191986771     2.1263259065     8.0832835564
NI      7.3824148639     4.2709890372     8.0711402568
NI     14.7500965066     4.2526841129     8.0836219297
O       6.1081710216     2.1765022658    10.1911638230
H       6.5650235555     1.1774930366    10.2220231302
H       7.7638361721     2.8920493481    11.3053013960
H       6.2805433764     3.9182781713    11.2994113692
C       6.6498994300     2.8840305389    11.3261605635
O       6.6782820671     0.7775898432    12.5937135998
H       7.6516169925     0.8679028220    12.6186108384
C       6.1921331703     2.1510795510    12.6093480767
H       5.0937954256     2.0642230691    12.6043575896
C       6.6645614562     2.8469834573    13.8846219636
H       6.3181379211     3.9007190741    13.8852263354
H       7.7768235211     2.8438836123    13.8831407287
O       6.1655144465     2.1394174258    15.0272368217
H       6.5156380371     2.6148359157    15.7970159849
O       7.3560538788     0.0225479884    10.0500252628
H       7.3660484070    -0.0668036207    11.0212164811
