88
Step 1 | ATOMIC_POSITIONS (angstrom) | Cartesian Angstrom
Ni      1.2285271350     0.7092904721     8.0000000000
Ni      8.6004271350     0.7092904721     8.0000000000
Ni      2.4570542700     2.8371618884     8.0000000000
Ni      9.8289542700     2.8371618884     8.0000000000
Ni      3.6859500000     4.9656717300     8.0000000000
Ni     11.0578500000     4.9656717300     8.0000000000
Ni      3.6855814050     0.7092904721     8.0000000000
Ni     11.0574814050     0.7092904721     8.0000000000
Ni      4.9141085400     2.8371618884     8.0000000000
Ni     12.2860085400     2.8371618884     8.0000000000
Ni      6.1430042700     4.9656717300     8.0000000000
Ni     13.5149042700     4.9656717300     8.0000000000
Ni      6.1433728650     0.7092904721     8.0000000000
Ni     13.5152728650     0.7092904721     8.0000000000
Ni      7.3719000000     2.8371618884     8.0000000000
Ni     14.7438000000     2.8371618884     8.0000000000
Ni      8.6007957300     4.9656717300     8.0000000000
Ni     15.9726957300     4.9656717300     8.0000000000
Ni      0.0016194792    -0.0009555474    10.0329888361
Ni      7.3736904583    -0.0010802250    10.0327708367
Ni      1.2302633718     2.1268411323    10.0324727469
Ni      8.6021634835     2.1271106891    10.0325985959
Ni      2.4592274313     4.2553020974    10.0325730408
Ni      9.8308770538     4.2552674664    10.0326461026
Ni      2.4585875988    -0.0014467908    10.0324063699
Ni      9.8309077636    -0.0010137638    10.0326003449
Ni      3.6873980631     2.1269436986    10.0331312397
Ni     11.0592999422     2.1268910591    10.0333116401
Ni      4.9164871745     4.2555940309    10.0325240875
Ni     12.2882237102     4.2551660518    10.0325935967
Ni      4.9166427995    -0.0013316315    10.0321935264
Ni     12.2885920661    -0.0009739316    10.0329889917
Ni      6.1453819325     2.1270102980    10.0320585778
Ni     13.5170162739     2.1268235476    10.0329991708
Ni      7.3736551263     4.2555357391    10.0324103418
Ni     14.7461119822     4.2551699559    10.0325783170
Ni      1.2265017437     0.7107908881    12.0690164498
Ni      8.5975233210     0.7089088866    12.0694739563
Ni      2.4554433614     2.8380363276    12.0697419062
Ni      9.8270139089     2.8383872659    12.0705975772
Ni      3.6838171902     4.9666244438    12.0689250638
Ni     11.0566710110     4.9683298823    12.0695959380
Ni      3.6847116839     0.7114524939    12.0710616154
Ni     11.0552267407     0.7097591913    12.0701297485
Ni      4.9125774683     2.8373889891    12.0697523880
Ni     12.2844572234     2.8389866064    12.0701097375
Ni      6.1415586450     4.9660688651    12.0693839398
Ni     13.5125822637     4.9669488339    12.0693455657
Ni      6.1422636831     0.7100580743    12.0695196944
Ni     13.5133090926     0.7104434019    12.0689281517
Ni      7.3695821230     2.8381071512    12.0696063225
Ni     14.7421832678     2.8382265248    12.0698104028
Ni      8.5988843462     4.9667078432    12.0691599030
Ni     15.9708887678     4.9664963777    12.0697383714
Ni      0.0008626713    -0.0006878911    14.0987037036
Ni      7.3723677385    -0.0003808207    14.1340380076
Ni      1.2254299180     2.1275660606    14.0953119576
Ni      8.6031731144     2.1310968992    14.0965924089
Ni      2.4556961496     4.2598928183    14.0941968081
Ni      9.8278759931     4.2525318656    14.0967314527
Ni      2.4556354151    -0.0055908417    14.0946233299
Ni      9.8335388203    -0.0000382699    14.0967611595
Ni      3.6874268361     2.1350889764    14.1020344725
Ni     11.0583522691     2.1273680532    14.0985354317
Ni      4.9180452163     4.2608852309    14.0936013700
Ni     12.2887256013     4.2524269116    14.0966311912
Ni      4.9147236343    -0.0048470330    14.0920361001
Ni     12.2875668540    -0.0007942627    14.0977599762
Ni      6.1463429049     2.1300049459    14.0932362535
Ni     13.5162269649     2.1276332298    14.0975603864
Ni      7.3723990997     4.2565901597    14.0996671513
Ni     14.7455955093     4.2555331928    14.0978228582
O       7.3690165015     0.0020400688    16.0771407823
O       3.6732571203     2.1234823373    16.1026488087
H       4.0219671862     1.2037955570    16.1666455366
H       7.3738373422    -0.0013593780    17.0661641158
H       5.2591509572     2.8539600570    17.1974053226
H       3.7827503607     3.8594475585    17.1946751402
C       4.1572260583     2.8424660094    17.2523434570
O       4.1662688117     0.7709092029    18.4712162566
H       5.1461952677     0.8285720838    18.4804094161
C       3.6875862622     2.1189969297    18.5080569374
H       2.5735620806     2.0357442891    18.5041230657
C       4.1608209706     2.8147265926    19.7703263003
H       3.8167864992     3.8541766744    19.8025535059
H       5.2696466398     2.8024328329    19.8026359595
O       3.6786081036     2.1171752837    20.9194277899
H       4.0226335737     2.5937600001    21.6919100994
88
Step 2 | ATOMIC_POSITIONS (angstrom) | Cartesian Angstrom
Ni      1.2285271350     0.7092904721     8.0000000000
Ni      8.6004271350     0.7092904721     8.0000000000
Ni      2.4570542700     2.8371618884     8.0000000000
Ni      9.8289542700     2.8371618884     8.0000000000
Ni      3.6859500000     4.9656717300     8.0000000000
Ni     11.0578500000     4.9656717300     8.0000000000
Ni      3.6855814050     0.7092904721     8.0000000000
Ni     11.0574814050     0.7092904721     8.0000000000
Ni      4.9141085400     2.8371618884     8.0000000000
Ni     12.2860085400     2.8371618884     8.0000000000
Ni      6.1430042700     4.9656717300     8.0000000000
Ni     13.5149042700     4.9656717300     8.0000000000
Ni      6.1433728650     0.7092904721     8.0000000000
Ni     13.5152728650     0.7092904721     8.0000000000
Ni      7.3719000000     2.8371618884     8.0000000000
Ni     14.7438000000     2.8371618884     8.0000000000
Ni      8.6007957300     4.9656717300     8.0000000000
Ni     15.9726957300     4.9656717300     8.0000000000
Ni      0.0053605770    -0.0031731667    10.0309378891
Ni      7.3778535510    -0.0035853325    10.0304438516
Ni      1.2343387910     2.1244372448    10.0293119532
Ni      8.6062765269     2.1252586473    10.0298711648
Ni      2.4634239433     4.2527783553    10.0296358985
Ni      9.8346084548     4.2526482368    10.0299804930
Ni      2.4622840499    -0.0046298122    10.0292188143
Ni      9.8353873489    -0.0032849607    10.0297366655
Ni      3.6916031731     2.1247340065    10.0314672789
Ni     11.0635160982     2.1245965231    10.0321403661
Ni      4.9210607720     4.2536750363    10.0294664199
Ni     12.2924110956     4.2523661252    10.0297112939
Ni      4.9208063571    -0.0042907367    10.0284950091
Ni     12.2928020340    -0.0032189233    10.0310054935
Ni      6.1499901602     2.1248955361    10.0279769710
Ni     13.5210072866     2.1244332651    10.0310453741
Ni      7.3769592277     4.2535203672    10.0291350389
Ni     14.7505684871     4.2524045297    10.0296451454
Ni      1.2218905156     0.7141446929    12.0702685293
Ni      8.5902490069     0.7076965839    12.0732041761
Ni      2.4517537875     2.8399920783    12.0729321639
Ni      9.8225834886     2.8411397489    12.0754295815
Ni      3.6789304655     4.9689244585    12.0698334549
Ni     11.0539469114     4.9751492457    12.0735948826
Ni      3.6824760442     0.7164827720    12.0770569854
Ni     11.0500325795     0.7110526752    12.0738961657
Ni      4.9089018945     2.8379038455    12.0726735035
Ni     12.2807026143     2.8430685899    12.0738142497
Ni      6.1383986066     4.9671588449    12.0710515915
Ni     13.5072558527     4.9698943628    12.0713552832
Ni      6.1404888605     0.7113813863    12.0734196132
Ni     13.5087603982     0.7130896609    12.0701922236
Ni      7.3644752821     2.8403892144    12.0719613531
Ni     14.7383373547     2.8407635742    12.0727129382
Ni      8.5944238648     4.9689112715    12.0704351165
Ni     15.9665474463     4.9685146939    12.0724063200
Ni      0.0027013650    -0.0020123774    14.0915269316
Ni      7.3735836785    -0.0013270960    14.2045172748
Ni      1.2190231896     2.1267398830    14.0803611929
Ni      8.6094155829     2.1378798433    14.0834777786
Ni      2.4520100484     4.2677248395    14.0767662531
Ni      9.8250371032     4.2439931142    14.0839480955
Ni      2.4529603342    -0.0171309004    14.0779588073
Ni      9.8437686338    -0.0003100939    14.0847748722
Ni      3.6915437152     2.1509085255    14.1032750816
Ni     11.0604800570     2.1261593379    14.0908960902
Ni      4.9257678883     4.2704708875    14.0747926432
Ni     12.2941254830     4.2436798453    14.0843608977
Ni      4.9143375680    -0.0150367657    14.0695684159
Ni     12.2895230212    -0.0023830801    14.0882674723
Ni      6.1528126972     2.1346865001    14.0734185171
Ni     13.5183085708     2.1268729088    14.0876399519
Ni      7.3727932604     4.2570415202    14.0946024884
Ni     14.7487739854     4.2536444514    14.0885728612
O       7.3619591267     0.0070584212    16.0486935293
O       3.6521714820     2.1047862348    16.1131212140
H       4.0183116318     1.1869271845    16.1815778941
H       7.3786412510    -0.0047476650    17.0269306502
H       5.2677993408     2.8617781562    17.2048263156
H       3.7766405772     3.8711462030    17.1851936675
C       4.1629741401     2.8528965295    17.2596072874
O       4.1673359559     0.7524051841    18.4585087752
H       5.1413899655     0.8223826026    18.4830375361
C       3.6998942863     2.1151337587    18.5194227684
H       2.5851587543     2.0370597613    18.5045130359
C       4.1610668166     2.8186827732    19.7850910398
H       3.8167784012     3.8713870217    19.7907270309
H       5.2779747314     2.8103081146    19.7867937166
O       3.6667750005     2.1083590644    20.9265113750
H       4.0186519752     2.5892019715    21.6934895741
88
Step 3 | ATOMIC_POSITIONS (angstrom) | Cartesian Angstrom
Ni      1.2285271350     0.7092904721     8.0000000000
Ni      8.6004271350     0.7092904721     8.0000000000
Ni      2.4570542700     2.8371618884     8.0000000000
Ni      9.8289542700     2.8371618884     8.0000000000
Ni      3.6859500000     4.9656717300     8.0000000000
Ni     11.0578500000     4.9656717300     8.0000000000
Ni      3.6855814050     0.7092904721     8.0000000000
Ni     11.0574814050     0.7092904721     8.0000000000
Ni      4.9141085400     2.8371618884     8.0000000000
Ni     12.2860085400     2.8371618884     8.0000000000
Ni      6.1430042700     4.9656717300     8.0000000000
Ni     13.5149042700     4.9656717300     8.0000000000
Ni      6.1433728650     0.7092904721     8.0000000000
Ni     13.5152728650     0.7092904721     8.0000000000
Ni      7.3719000000     2.8371618884     8.0000000000
Ni     14.7438000000     2.8371618884     8.0000000000
Ni      8.6007957300     4.9656717300     8.0000000000
Ni     15.9726957300     4.9656717300     8.0000000000
Ni      0.0099566797    -0.0059161027    10.0290176965
Ni      7.3830206105    -0.0066729733    10.0288278225
Ni      1.2395054567     2.1214512240    10.0262842587
Ni      8.6116026244     2.1226390954    10.0278011675
Ni      2.4686133831     4.2495969816    10.0268425353
Ni      9.8396452716     4.2493481305    10.0278554366
Ni      2.4672193437    -0.0080370206    10.0264512112
Ni      9.8407747259    -0.0058999190    10.0271663347
Ni      3.6967366639     2.1218603521    10.0301696018
Ni     11.0687562349     2.1216811941    10.0316551328
Ni      4.9264231284     4.2510542874    10.0264467900
Ni     12.2973449537     4.2489794181    10.0271161011
Ni      4.9259537335    -0.0075230068    10.0251231497
Ni     12.2978270977    -0.0059747195    10.0294015902
Ni      6.1554920340     2.1219142831    10.0239561805
Ni     13.5258317378     2.1215748745    10.0294993720
Ni      7.3813050753     4.2508669076    10.0259987894
Ni     14.7559361678     4.2491066096    10.0268986829
Ni      1.2163316448     0.7179061317    12.0686162145
Ni      8.5803688952     0.7056315522    12.0781622734
Ni      2.4474114368     2.8422097552    12.0745872173
Ni      9.8176032869     2.8441245643    12.0775761239
Ni      3.6730590221     4.9720993866    12.0673831542
Ni     11.0506022172     4.9847018489    12.0788315098
Ni      3.6791059513     0.7228523395    12.0812000770
Ni     11.0437588208     0.7133142160    12.0751011459
Ni      4.9038699252     2.8384617645    12.0730601187
Ni     12.2755833701     2.8476068333    12.0748965631
Ni      6.1351317447     4.9689299507    12.0685252465
Ni     13.5009461895     4.9734274639    12.0706900593
Ni      6.1400485593     0.7120112971    12.0784897304
Ni     13.5031754120     0.7162778935    12.0692523990
Ni      7.3590263144     2.8435176177    12.0708276310
Ni     14.7332468408     2.8441377318    12.0725352822
Ni      8.5888791205     4.9709922504    12.0678438423
Ni     15.9606688323     4.9713512514    12.0717068841
Ni      0.0044554015    -0.0028323551    14.0839354972
Ni      7.3758664401    -0.0029817947    14.2741084888
Ni      1.2134201880     2.1254403391    14.0636821061
Ni      8.6163752205     2.1438555237    14.0663110750
Ni      2.4484523571     4.2763727270    14.0575255805
Ni      9.8231921908     4.2351109062    14.0671745870
Ni      2.4513232923    -0.0270652856    14.0588490269
Ni      9.8549937950    -0.0013365716    14.0707850270
Ni      3.6958434974     2.1677070225    14.1090394166
Ni     11.0634731905     2.1245089848    14.0826371209
Ni      4.9334171870     4.2795720040    14.0539017262
Ni     12.3006699498     4.2344077883    14.0700922102
Ni      4.9139053268    -0.0246615277    14.0439836286
Ni     12.2920612842    -0.0035711255    14.0775809339
Ni      6.1595841415     2.1396074496    14.0508300649
Ni     13.5205022852     2.1253500254    14.0765399017
Ni      7.3735644801     4.2574223736    14.0893644733
Ni     14.7522200030     4.2515739687    14.0784459423
O       7.3512576182     0.0147345865    16.0245696488
O       3.6372462167     2.0851767773    16.1351331115
H       4.0100971004     1.1730556689    16.2012024990
H       7.3860084926    -0.0099993423    16.9849254908
H       5.2744828994     2.8724123164    17.2100757996
H       3.7711937167     3.8791838898    17.1745380451
C       4.1637836537     2.8525504850    17.2625576922
O       4.1643544970     0.7463881658    18.4462910511
H       5.1432416445     0.8102305252    18.4866984026
C       3.7041092818     2.1123241491    18.5249948675
H       2.6028579467     2.0382902848    18.5063295635
C       4.1644233053     2.8198729986    19.7928880478
H       3.8190423504     3.8801566862    19.7791181643
H       5.2809322312     2.8203632096    19.7750082711
O       3.6607434981     2.1096043623    20.9309514634
H       4.0116546169     2.5807019744    21.6990117604
88
Step 4 | ATOMIC_POSITIONS (angstrom) | Cartesian Angstrom
Ni      1.2285271350     0.7092904721     8.0000000000
Ni      8.6004271350     0.7092904721     8.0000000000
Ni      2.4570542700     2.8371618884     8.0000000000
Ni      9.8289542700     2.8371618884     8.0000000000
Ni      3.6859500000     4.9656717300     8.0000000000
Ni     11.0578500000     4.9656717300     8.0000000000
Ni      3.6855814050     0.7092904721     8.0000000000
Ni     11.0574814050     0.7092904721     8.0000000000
Ni      4.9141085400     2.8371618884     8.0000000000
Ni     12.2860085400     2.8371618884     8.0000000000
Ni      6.1430042700     4.9656717300     8.0000000000
Ni     13.5149042700     4.9656717300     8.0000000000
Ni      6.1433728650     0.7092904721     8.0000000000
Ni     13.5152728650     0.7092904721     8.0000000000
Ni      7.3719000000     2.8371618884     8.0000000000
Ni     14.7438000000     2.8371618884     8.0000000000
Ni      8.6007957300     4.9656717300     8.0000000000
Ni     15.9726957300     4.9656717300     8.0000000000
Ni      0.0113574020    -0.0067436596    10.0287201434
Ni      7.3845954576    -0.0076006718    10.0292293716
Ni      1.2411909144     2.1205624638    10.0259183370
Ni      8.6133961046     2.1214831353    10.0281003546
Ni      2.4701721256     4.2485417590    10.0264993957
Ni      9.8415874401     4.2483559264    10.0280305334
Ni      2.4690277103    -0.0086363555    10.0263577245
Ni      9.8422207438    -0.0065519951    10.0270682227
Ni      3.6982236299     2.1208954810    10.0302232889
Ni     11.0703815372     2.1207273085    10.0320063869
Ni      4.9278306516     4.2500340086    10.0259553441
Ni     12.2986240745     4.2480749921    10.0270139926
Ni      4.9275836077    -0.0081107671    10.0250024868
Ni     12.2992224224    -0.0067976307    10.0293724601
Ni      6.1569930129     2.1206448129    10.0235053713
Ni     13.5272275143     2.1207730982    10.0295131140
Ni      7.3828765290     4.2498935748    10.0255134098
Ni     14.7574269551     4.2482076543    10.0265411155
Ni      1.2146961810     0.7187007323    12.0654719948
Ni      8.5771527744     0.7048745433    12.0793655111
Ni      2.4463582897     2.8427339183    12.0733751956
Ni      9.8167294733     2.8445697872    12.0745705079
Ni      3.6714601400     4.9733689225    12.0637226292
Ni     11.0495568152     4.9879044238    12.0800741843
Ni      3.6776741821     0.7250543013    12.0797679680
Ni     11.0419728383     0.7145691064    12.0725205498
Ni      4.9018574745     2.8384935862    12.0706662742
Ni     12.2736282999     2.8485557719    12.0722462409
Ni      6.1346928519     4.9697632189    12.0639998089
Ni     13.4993438861     4.9743515482    12.0678613646
Ni      6.1409062313     0.7116479780    12.0794876240
Ni     13.5015704794     0.7171535311    12.0669280829
Ni      7.3580876203     2.8447575762    12.0669892760
Ni     14.7314300398     2.8453417867    12.0694128058
Ni      8.5871873560     4.9710995685    12.0635069061
Ni     15.9584594422     4.9724948904    12.0682084875
Ni      0.0045995818    -0.0024018543    14.0825199830
Ni      7.3777894073    -0.0043136898    14.2691276558
Ni      1.2137207795     2.1248457922    14.0601573188
Ni      8.6176481396     2.1435665549    14.0607631263
Ni      2.4482805274     4.2780572124    14.0536934018
Ni      9.8240077616     4.2340751296    14.0617032526
Ni      2.4521908466    -0.0263496858    14.0543403380
Ni      9.8571398481    -0.0023279793    14.0673559989
Ni      3.6963211970     2.1704552501    14.1141915662
Ni     11.0646582057     2.1238885510    14.0810735252
Ni      4.9340316512     4.2799197889    14.0495199225
Ni     12.3025942774     4.2329984515    14.0666498182
Ni      4.9137937278    -0.0250045826    14.0383678499
Ni     12.2928938354    -0.0033118228    14.0751533257
Ni      6.1604659337     2.1404249818    14.0457716062
Ni     13.5209034464     2.1244733710    14.0740802128
Ni      7.3740348465     4.2573923221    14.0884716845
Ni     14.7528481490     4.2511666125    14.0763471756
O       7.3449081097     0.0192890854    16.0342239599
O       3.6379288778     2.0826053561    16.1421854950
H       4.0059837307     1.1708227117    16.2089550799
H       7.3903641755    -0.0131081028    16.9820874129
H       5.2712436567     2.8757302393    17.2092542436
H       3.7712765925     3.8747375596    17.1721131813
C       4.1630723966     2.8492413339    17.2610139261
O       4.1700347774     0.7520356747    18.4453127473
H       5.1401602085     0.8035347017    18.4879998440
C       3.7030533995     2.1147792623    18.5234124795
H       2.6054623290     2.0383194607    18.5077465973
C       4.1665933241     2.8192849089    19.7885817696
H       3.8209910153     3.8752587244    19.7773796211
H       5.2784335751     2.8232574231    19.7764712180
O       3.6622189029     2.1141479503    20.9261016407
H       4.0100733715     2.5789306449    21.7059750703
