88
Step 1 | ATOMIC_POSITIONS (angstrom) | Cartesian Angstrom
Ni      1.2285271350     0.7092904721     8.0000000000
Ni      8.6004271350     0.7092904721     8.0000000000
Ni      2.4570542700     2.8371618884     8.0000000000
Ni      9.8289542700     2.8371618884     8.0000000000
Ni      3.6859500000     4.9656717300     8.0000000000
Ni     11.0578500000     4.9656717300     8.0000000000
Ni      3.6855814050     0.7092904721     8.0000000000
Ni     11.0574814050     0.7092904721     8.0000000000
Ni      4.9141085400     2.8371618884     8.0000000000
Ni     12.2860085400     2.8371618884     8.0000000000
Ni      6.1430042700     4.9656717300     8.0000000000
Ni     13.5149042700     4.9656717300     8.0000000000
Ni      6.1433728650     0.7092904721     8.0000000000
Ni     13.5152728650     0.7092904721     8.0000000000
Ni      7.3719000000     2.8371618884     8.0000000000
Ni     14.7438000000     2.8371618884     8.0000000000
Ni      8.6007957300     4.9656717300     8.0000000000
Ni     15.9726957300     4.9656717300     8.0000000000
Ni      0.0016160439    -0.0009534266    10.0329944163
Ni      7.3736934794    -0.0010820679    10.0327647169
Ni      1.2302584314     2.1268402657    10.0324781192
Ni      8.6021681527     2.1271118852    10.0325930438
Ni      2.4592257313     4.2553068522    10.0325783894
Ni      9.8308785231     4.2552629920    10.0326404924
Ni      2.4585937060    -0.0014538997    10.0324078371
Ni      9.8309013928    -0.0010063006    10.0325984671
Ni      3.6874058360     2.1269391625    10.0331323606
Ni     11.0592919780     2.1268959090    10.0333100450
Ni      4.9164964412     4.2555924609    10.0325254323
Ni     12.2882140281     4.2551677727    10.0325917732
Ni      4.9166527050    -0.0013410302    10.0321893020
Ni     12.2885832320    -0.0009648561    10.0329927532
Ni      6.1453950265     2.1270064449    10.0320542552
Ni     13.5170040371     2.1268268954    10.0330028938
Ni      7.3736666160     4.2555292774    10.0324062625
Ni     14.7461014655     4.2551759365    10.0325821138
Ni      1.2264980859     0.7107895242    12.0690148245
Ni      8.5975265122     0.7089108145    12.0694505999
Ni      2.4554412392     2.8380372258    12.0697412409
Ni      9.8270154943     2.8383866371    12.0705738455
Ni      3.6838165702     4.9666287738    12.0689233312
Ni     11.0566707199     4.9683261742    12.0695726810
Ni      3.6847124656     0.7114483676    12.0710528599
Ni     11.0552264439     0.7097630859    12.0701137981
Ni      4.9125811543     2.8373899863    12.0697441210
Ni     12.2844537560     2.8389851042    12.0700937525
Ni      6.1415617927     4.9660677947    12.0693745373
Ni     13.5125802513     4.9669498901    12.0693299840
Ni      6.1422679117     0.7100552714    12.0694997564
Ni     13.5133052681     0.7104458685    12.0689230299
Ni      7.3695884299     2.8381075991    12.0695862023
Ni     14.7421776669     2.8382261508    12.0698054687
Ni      8.5988872649     4.9667026312    12.0691397907
Ni     15.9708860430     4.9665015236    12.0697332035
Ni      0.0008614150    -0.0006870335    14.0987025827
Ni      7.3723687740    -0.0003815816    14.1340308560
Ni      1.2254270885     2.1275654112    14.0953120686
Ni      8.6031755538     2.1310981237    14.0965843329
Ni      2.4556959596     4.2598952754    14.0941976295
Ni      9.8278761730     4.2525294553    14.0967232795
Ni      2.4556290762    -0.0055900490    14.0946221237
Ni      9.8335447085    -0.0000389953    14.0967545438
Ni      3.6874217433     2.1350922283    14.1020352073
Ni     11.0583571294     2.1273654172    14.0985269148
Ni      4.9180409266     4.2608899770    14.0936007878
Ni     12.2887292060     4.2524221465    14.0966245062
Ni      4.9147195206    -0.0048474242    14.0920331943
Ni     12.2875720167    -0.0007942556    14.0977553802
Ni      6.1463407458     2.1300088977    14.0932335729
Ni     13.5162296877     2.1276289664    14.0975555971
Ni      7.3723958072     4.2565922548    14.0996613880
Ni     14.7455997997     4.2555307017    14.0978200934
O       7.3690166927     0.0020400648    16.0771464033
O       3.6732538916     2.1234832134    16.1026546865
H       4.0219672676     1.2037954075    16.1666535016
H       7.3738374106    -0.0013592852    17.0661722107
H       5.2591508703     2.8539601045    17.1974129959
H       3.7827505921     3.8594476032    17.1946829649
C       4.1572271871     2.8424671274    17.2523503425
O       4.1662677916     0.7709046165    18.4712240023
H       5.1461953680     0.8285718834    18.4804173519
C       3.6875855404     2.1189972270    18.5080648260
H       2.5735608054     2.0357443898    18.5041309171
C       4.1608225732     2.8147283398    19.7703350211
H       3.8167866899     3.8541769177    19.8025616406
H       5.2696467533     2.8024328892    19.8026441648
O       3.6786068808     2.1171736028    20.9194359405
H       4.0226337883     2.5937601871    21.6919181248
88
Step 2 | ATOMIC_POSITIONS (angstrom) | Cartesian Angstrom
Ni      1.2285271350     0.7092904721     8.0000000000
Ni      8.6004271350     0.7092904721     8.0000000000
Ni      2.4570542700     2.8371618884     8.0000000000
Ni      9.8289542700     2.8371618884     8.0000000000
Ni      3.6859500000     4.9656717300     8.0000000000
Ni     11.0578500000     4.9656717300     8.0000000000
Ni      3.6855814050     0.7092904721     8.0000000000
Ni     11.0574814050     0.7092904721     8.0000000000
Ni      4.9141085400     2.8371618884     8.0000000000
Ni     12.2860085400     2.8371618884     8.0000000000
Ni      6.1430042700     4.9656717300     8.0000000000
Ni     13.5149042700     4.9656717300     8.0000000000
Ni      6.1433728650     0.7092904721     8.0000000000
Ni     13.5152728650     0.7092904721     8.0000000000
Ni      7.3719000000     2.8371618884     8.0000000000
Ni     14.7438000000     2.8371618884     8.0000000000
Ni      8.6007957300     4.9656717300     8.0000000000
Ni     15.9726957300     4.9656717300     8.0000000000
Ni      0.0053378899    -0.0031602758    10.0309456755
Ni      7.3778729589    -0.0035961180    10.0304124471
Ni      1.2343083362     2.1244377165    10.0293162003
Ni      8.6063067217     2.1252627620    10.0298433748
Ni      2.4634089510     4.2528047619    10.0296415822
Ni      9.8346197007     4.2526200091    10.0299533581
Ni      2.4622853127    -0.0046462168    10.0292083942
Ni      9.8353942613    -0.0032698873    10.0297226638
Ni      3.6916139501     2.1247280855    10.0314564513
Ni     11.0635087711     2.1246006018    10.0321384583
Ni      4.9210752896     4.2536821745    10.0294582933
Ni     12.2924018096     4.2523529667    10.0296972091
Ni      4.9208228154    -0.0043175119    10.0284617839
Ni     12.2927790257    -0.0031898007    10.0310149528
Ni      6.1500217964     2.1248949213    10.0279441706
Ni     13.5209707495     2.1244386501    10.0310545857
Ni      7.3769846426     4.2535058862    10.0291155119
Ni     14.7505397824     4.2524213270    10.0296578852
Ni      1.2218704460     0.7141440560    12.0702635017
Ni      8.5902653197     0.7076925791    12.0731792286
Ni      2.4517408435     2.8399983671    12.0729312478
Ni      9.8226030423     2.8411289187    12.0753926314
Ni      3.6789207919     4.9689448040    12.0698240791
Ni     11.0539584454     4.9751372612    12.0735704751
Ni      3.6824737487     0.7164701572    12.0770555509
Ni     11.0500389334     0.7110669774    12.0738626611
Ni      4.9089123743     2.8379118754    12.0726655144
Ni     12.2806935719     2.8430557103    12.0737809252
Ni      6.1384063204     4.9671527022    12.0710370469
Ni     13.5072513822     4.9698971874    12.0713290056
Ni      6.1405201091     0.7113632046    12.0734066520
Ni     13.5087350033     0.7131045933    12.0701715450
Ni      7.3645030208     2.8403837086    12.0719433413
Ni     14.7383063553     2.8407687399    12.0726939098
Ni      8.5944438153     4.9688898451    12.0704159662
Ni     15.9665283121     4.9685386678    12.0723861406
Ni      0.0026881835    -0.0020078157    14.0915230964
Ni      7.3736001393    -0.0013373520    14.2044940458
Ni      1.2190065478     2.1267382880    14.0803612141
Ni      8.6094333329     2.1378881393    14.0834609256
Ni      2.4520042242     4.2677405472    14.0767673514
Ni      9.8250416581     4.2439732860    14.0839309134
Ni      2.4529488625    -0.0171384469    14.0779560930
Ni      9.8437820382    -0.0003048810    14.0847529922
Ni      3.6915452211     2.1509161392    14.1032932473
Ni     11.0604851968     2.1261565872    14.0908783448
Ni      4.9257651717     4.2704787188    14.0748020006
Ni     12.2941270927     4.2436661509    14.0843392960
Ni      4.9143297458    -0.0150480844    14.0695590245
Ni     12.2895248794    -0.0023720912    14.0882539211
Ni      6.1528156168     2.1346996491    14.0734235775
Ni     13.5182976052     2.1268673082    14.0876248121
Ni      7.3728010485     4.2570358835    14.0946042837
Ni     14.7487676408     4.2536486247    14.0885674778
O       7.3619626009     0.0070563821    16.0487066070
O       3.6521614028     2.1048031447    16.1131285460
H       4.0183155596     1.1869286901    16.1815944796
H       7.3786392236    -0.0047459506    17.0269814924
H       5.2678038791     2.8617730389    17.2048454365
H       3.7766435803     3.8711415708    17.1852186464
C       4.1629616794     2.8529003903    17.2596283186
O       4.1673178616     0.7523970461    18.4585327364
H       5.1413922967     0.8223874914    18.4830588438
C       3.6999052263     2.1151331766    18.5194382393
H       2.5851472911     2.0370584987    18.5045342182
C       4.1610557307     2.8186883485    19.7851104748
H       3.8167786600     3.8713876524    19.7907555418
H       5.2779843718     2.8103052246    19.7868216923
O       3.6667777076     2.1083588241    20.9265405395
H       4.0186525388     2.5892016335    21.6935072459
