88
Step 1 | ATOMIC_POSITIONS (angstrom) | Cartesian Angstrom
Ni      1.2285271350     0.7092904721     8.0000000000
Ni      8.6004271350     0.7092904721     8.0000000000
Ni      2.4570542700     2.8371618884     8.0000000000
Ni      9.8289542700     2.8371618884     8.0000000000
Ni      3.6859500000     4.9656717300     8.0000000000
Ni     11.0578500000     4.9656717300     8.0000000000
Ni      3.6855814050     0.7092904721     8.0000000000
Ni     11.0574814050     0.7092904721     8.0000000000
Ni      4.9141085400     2.8371618884     8.0000000000
Ni     12.2860085400     2.8371618884     8.0000000000
Ni      6.1430042700     4.9656717300     8.0000000000
Ni     13.5149042700     4.9656717300     8.0000000000
Ni      6.1433728650     0.7092904721     8.0000000000
Ni     13.5152728650     0.7092904721     8.0000000000
Ni      7.3719000000     2.8371618884     8.0000000000
Ni     14.7438000000     2.8371618884     8.0000000000
Ni      8.6007957300     4.9656717300     8.0000000000
Ni     15.9726957300     4.9656717300     8.0000000000
Ni      0.0016192286    -0.0009551230    10.0329955428
Ni      7.3736904154    -0.0010808244    10.0327690764
Ni      1.2302611067     2.1268392115    10.0324767594
Ni      8.6021651876     2.1271113073    10.0325995577
Ni      2.4592273352     4.2553046837    10.0325765149
Ni      9.8308770536     4.2552658387    10.0326469093
Ni      2.4585926262    -0.0014523020    10.0324151296
Ni      9.8309026386    -0.0010084906    10.0325978755
Ni      3.6874043888     2.1269389948    10.0331358106
Ni     11.0592940569     2.1268943068    10.0333097256
Ni      4.9164944078     4.2555933285    10.0325319521
Ni     12.2882166882     4.2551675064    10.0325908800
Ni      4.9166473241    -0.0013367176    10.0321983115
Ni     12.2885884653    -0.0009696831    10.0329907876
Ni      6.1453880596     2.1270078929    10.0320628879
Ni     13.5170109102     2.1268245300    10.0330011832
Ni      7.3736603450     4.2555335993    10.0324189551
Ni     14.7461072710     4.2551725507    10.0325805971
Ni      1.2265028204     0.7107825398    12.0690118601
Ni      8.5975197913     0.7089142294    12.0694692445
Ni      2.4554471798     2.8380343041    12.0697377381
Ni      9.8270078270     2.8383910016    12.0705935117
Ni      3.6838254417     4.9666268862    12.0689242034
Ni     11.0566633796     4.9683301218    12.0695915926
Ni      3.6847168752     0.7114409753    12.0710544550
Ni     11.0552235718     0.7097645239    12.0701237334
Ni      4.9125892580     2.8373908953    12.0697514817
Ni     12.2844508514     2.8389864423    12.0701040001
Ni      6.1415682737     4.9660626789    12.0693853073
Ni     13.5125771696     4.9669516836    12.0693380548
Ni      6.1422659466     0.7100560660    12.0695145877
Ni     13.5133083151     0.7104442422    12.0689241438
Ni      7.3695838969     2.8381138674    12.0696071279
Ni     14.7421791695     2.8382244120    12.0698040619
Ni      8.5988802425     4.9667028575    12.0691582435
Ni     15.9708878999     4.9665007120    12.0697318260
Ni      0.0008664657    -0.0006939126    14.0986944428
Ni      7.3723668184    -0.0003794424    14.1340182893
Ni      1.2254280926     2.1275650752    14.0953043354
Ni      8.6031691263     2.1311008895    14.0965755971
Ni      2.4557021275     4.2598948745    14.0941910205
Ni      9.8278716595     4.2525320449    14.0967136043
Ni      2.4556334462    -0.0056042992    14.0946086615
Ni      9.8335322858    -0.0000324446    14.0967489146
Ni      3.6874321570     2.1350939612    14.1020190569
Ni     11.0583452012     2.1273716904    14.0985201431
Ni      4.9180520773     4.2608870432    14.0935881686
Ni     12.2887172665     4.2524294392    14.0966181930
Ni      4.9147277208    -0.0048573766    14.0920214832
Ni     12.2875689594    -0.0007920913    14.0977474278
Ni      6.1463519505     2.1300114846    14.0932232634
Ni     13.5162250980     2.1276303743    14.0975461861
Ni      7.3723989939     4.2565854675    14.0996466282
Ni     14.7455958761     4.2555332855    14.0978147173
O       7.3690168591     0.0020397402    16.0771455045
O       3.6732526328     2.1234873106    16.1026511255
H       4.0219664355     1.2037976470    16.1666459688
H       7.3738376922    -0.0013596001    17.0661623861
H       5.2591491918     2.8539601532    17.1974056852
H       3.7827507139     3.8594456483    17.1946754262
C       4.1572256899     2.8424686607    17.2523422794
O       4.1662690941     0.7709104201    18.4712164934
H       5.1461954573     0.8285713101    18.4804100007
C       3.6875859059     2.1189987064    18.5080568149
H       2.5735573204     2.0357441104    18.5041234043
C       4.1608222731     2.8147299202    19.7703274657
H       3.8167866599     3.8541758098    19.8025546064
H       5.2696460241     2.8024328304    19.8026367512
O       3.6786095872     2.1171782015    20.9194257648
H       4.0226339282     2.5937602206    21.6919114824
88
Step 2 | ATOMIC_POSITIONS (angstrom) | Cartesian Angstrom
Ni      1.2285271350     0.7092904721     8.0000000000
Ni      8.6004271350     0.7092904721     8.0000000000
Ni      2.4570542700     2.8371618884     8.0000000000
Ni      9.8289542700     2.8371618884     8.0000000000
Ni      3.6859500000     4.9656717300     8.0000000000
Ni     11.0578500000     4.9656717300     8.0000000000
Ni      3.6855814050     0.7092904721     8.0000000000
Ni     11.0574814050     0.7092904721     8.0000000000
Ni      4.9141085400     2.8371618884     8.0000000000
Ni     12.2860085400     2.8371618884     8.0000000000
Ni      6.1430042700     4.9656717300     8.0000000000
Ni     13.5149042700     4.9656717300     8.0000000000
Ni      6.1433728650     0.7092904721     8.0000000000
Ni     13.5152728650     0.7092904721     8.0000000000
Ni      7.3719000000     2.8371618884     8.0000000000
Ni     14.7438000000     2.8371618884     8.0000000000
Ni      8.6007957300     4.9656717300     8.0000000000
Ni     15.9726957300     4.9656717300     8.0000000000
Ni      0.0053572660    -0.0031690591    10.0309336377
Ni      7.3778546186    -0.0035865852    10.0304130734
Ni      1.2343317221     2.1244342273    10.0293047177
Ni      8.6062792087     2.1252555111    10.0298604052
Ni      2.4634216061     4.2527848444    10.0296281140
Ni      9.8346124440     4.2526477228    10.0299687588
Ni      2.4622907287    -0.0046342968    10.0292100330
Ni      9.8353741754    -0.0032751769    10.0297286604
Ni      3.6916142221     2.1247247097    10.0314527914
Ni     11.0635030510     2.1246037051    10.0321365560
Ni      4.9210683750     4.2536744861    10.0294557424
Ni     12.2923966410     4.2523725041    10.0297028342
Ni      4.9208156443    -0.0042951496    10.0284819256
Ni     12.2927942144    -0.0032098251    10.0310018652
Ni      6.1499990099     2.1248876312    10.0279624434
Ni     13.5209968382     2.1244356346    10.0310426098
Ni      7.3769695869     4.2535164509    10.0291285420
Ni     14.7505558001     4.2524115865    10.0296484176
Ni      1.2218849059     0.7141314857    12.0702511056
Ni      8.5902584113     0.7077087062    12.0732105163
Ni      2.4517574551     2.8399934144    12.0729209466
Ni      9.8225867557     2.8411380005    12.0754265245
Ni      3.6789422768     4.9689310681    12.0698255925
Ni     11.0539384134     4.9751359808    12.0736023628
Ni      3.6824879220     0.7164617654    12.0770395037
Ni     11.0500274228     0.7110681810    12.0738913095
Ni      4.9089241399     2.8379076083    12.0726675414
Ni     12.2806866338     2.8430646381    12.0738091224
Ni      6.1384222608     4.9671406008    12.0710518042
Ni     13.5072555523     4.9698951566    12.0713429744
Ni      6.1404997257     0.7113746484    12.0734193523
Ni     13.5087510911     0.7130969291    12.0701833391
Ni      7.3644902960     2.8404053154    12.0719657044
Ni     14.7383197958     2.8407692164    12.0727000965
Ni      8.5944208128     4.9688891312    12.0704343331
Ni     15.9665330178     4.9685262019    12.0723923728
Ni      0.0027072469    -0.0020237692    14.0915162021
Ni      7.3735856935    -0.0013291042    14.2044540117
Ni      1.2190210942     2.1267465551    14.0803592919
Ni      8.6094159883     2.1378791476    14.0834428846
Ni      2.4520155630     4.2677227934    14.0767712337
Ni      9.8250378902     4.2439954604    14.0839128909
Ni      2.4529647520    -0.0171444058    14.0779481364
Ni      9.8437569178    -0.0002975267    14.0847473965
Ni      3.6915502448     2.1508978047    14.1032646714
Ni     11.0604633523     2.1261677038    14.0908556507
Ni      4.9257742780     4.2704682299    14.0747880722
Ni     12.2941089544     4.2436841616    14.0843331674
Ni      4.9143485011    -0.0150519968    14.0695589461
Ni     12.2895157503    -0.0023735428    14.0882376931
Ni      6.1528270780     2.1346908562    14.0734110155
Ni     13.5182978277     2.1268752148    14.0876070740
Ni      7.3728033113     4.2570303467    14.0945644480
Ni     14.7487677563     4.2536469833    14.0885556937
O       7.3619676424     0.0070523386    16.0487105748
O       3.6521782898     2.1048053019    16.1131138494
H       4.0183113720     1.1869474771    16.1815723883
H       7.3786393765    -0.0047458983    17.0269662189
H       5.2677906970     2.8617733537    17.2048262916
H       3.7766443035     3.8711390869    17.1852047237
C       4.1629671430     2.8528928378    17.2596047558
O       4.1673246934     0.7524141719    18.4585213981
H       5.1413911145     0.8223856760    18.4830413264
C       3.6998845658     2.1151385502    18.5194188057
H       2.5851456154     2.0370592805    18.5045172802
C       4.1610667333     2.8186883034    19.7850865502
H       3.8167793026     3.8713769477    19.7907408720
H       5.2779676073     2.8103037914    19.7868088327
O       3.6667800933     2.1083682586    20.9265171625
H       4.0186538491     2.5892040829    21.6934931242
88
Step 3 | ATOMIC_POSITIONS (angstrom) | Cartesian Angstrom
Ni      1.2285271350     0.7092904721     8.0000000000
Ni      8.6004271350     0.7092904721     8.0000000000
Ni      2.4570542700     2.8371618884     8.0000000000
Ni      9.8289542700     2.8371618884     8.0000000000
Ni      3.6859500000     4.9656717300     8.0000000000
Ni     11.0578500000     4.9656717300     8.0000000000
Ni      3.6855814050     0.7092904721     8.0000000000
Ni     11.0574814050     0.7092904721     8.0000000000
Ni      4.9141085400     2.8371618884     8.0000000000
Ni     12.2860085400     2.8371618884     8.0000000000
Ni      6.1430042700     4.9656717300     8.0000000000
Ni     13.5149042700     4.9656717300     8.0000000000
Ni      6.1433728650     0.7092904721     8.0000000000
Ni     13.5152728650     0.7092904721     8.0000000000
Ni      7.3719000000     2.8371618884     8.0000000000
Ni     14.7438000000     2.8371618884     8.0000000000
Ni      8.6007957300     4.9656717300     8.0000000000
Ni     15.9726957300     4.9656717300     8.0000000000
Ni      0.0099485347    -0.0059107646    10.0290307851
Ni      7.3830130230    -0.0066699734    10.0288158859
Ni      1.2394952028     2.1214525625    10.0262983871
Ni      8.6115927065     2.1226403373    10.0278056698
Ni      2.4686051600     4.2496046079    10.0268546394
Ni      9.8396394037     4.2493551886    10.0278577161
Ni      2.4672271887    -0.0080423622    10.0264681007
Ni      9.8407449367    -0.0058840376    10.0271678729
Ni      3.6967462332     2.1218514932    10.0301738345
Ni     11.0687303133     2.1216952906    10.0316477703
Ni      4.9264311840     4.2510523961    10.0264601506
Ni     12.2973164427     4.2489960868    10.0271177200
Ni      4.9259613272    -0.0075272548    10.0251360511
Ni     12.2978086419    -0.0059622680    10.0294077114
Ni      6.1554987124     2.1219072498    10.0239689751
Ni     13.5258122832     2.1215842936    10.0295064339
Ni      7.3813136649     4.2508633000    10.0260110664
Ni     14.7559136068     4.2491190652    10.0269105022
Ni      1.2163408505     0.7178826087    12.0685841908
Ni      8.5803785758     0.7056482086    12.0781359288
Ni      2.4474262993     2.8422028252    12.0745564548
Ni      9.8176004537     2.8441258275    12.0775413551
Ni      3.6730852184     4.9720980846    12.0673642621
Ni     11.0505893693     4.9846848493    12.0788058511
Ni      3.6791294814     0.7228156380    12.0811536581
Ni     11.0437557255     0.7133230087    12.0750688321
Ni      4.9039067213     2.8384584229    12.0730394931
Ni     12.2755734380     2.8476043428    12.0748643770
Ni      6.1351655361     4.9689102451    12.0685085717
Ni     13.5009454293     4.9734269325    12.0706553741
Ni      6.1400553117     0.7120054922    12.0784587719
Ni     13.5031812803     0.7162751914    12.0692272031
Ni      7.3590426324     2.8435271225    12.0708074114
Ni     14.7332415017     2.8441324820    12.0725017874
Ni      8.5888799591     4.9709744688    12.0678198570
Ni     15.9606693294     4.9713579119    12.0716732957
Ni      0.0044646760    -0.0028483679    14.0839316860
Ni      7.3758576631    -0.0029751242    14.2739065745
Ni      1.2134289792     2.1254470982    14.0636958752
Ni      8.6163548922     2.1438456813    14.0662865905
Ni      2.4484716624     4.2763564701    14.0575532930
Ni      9.8231893360     4.2351312895    14.0671470749
Ni      2.4513329907    -0.0270678264    14.0588590679
Ni      9.8549588117    -0.0013246216    14.0707674033
Ni      3.6958515561     2.1676729898    14.1089952027
Ni     11.0634479042     2.1245219245    14.0825987635
Ni      4.9334145005     4.2795520799    14.0539186993
Ni     12.3006421750     4.2344310653    14.0700727208
Ni      4.9139174496    -0.0246607504    14.0440056300
Ni     12.2920562321    -0.0035631389    14.0775595956
Ni      6.1595879939     2.1396073476    14.0508453301
Ni     13.5204930024     2.1253492116    14.0765142359
Ni      7.3735666648     4.2574095101    14.0893207469
Ni     14.7522132407     4.2515775230    14.0784363274
O       7.3512782650     0.0147193393    16.0246132939
O       3.6372705299     2.0852240540    16.1351015602
H       4.0101044961     1.1730982166    16.2011682050
H       7.3859972190    -0.0099913966    16.9849924836
H       5.2744631333     2.8723943333    17.2100650885
H       3.7712041333     3.8791661605    17.1745595082
C       4.1637764169     2.8525496949    17.2625452261
O       4.1643685166     0.7464173079    18.4463123908
H       5.1432320496     0.8102457329    18.4866946474
C       3.7040954615     2.1123392201    18.5249865031
H       2.6028184229     2.0382897750    18.5063295229
C       4.1644175850     2.8198664966    19.7928739459
H       3.8190394539     3.8801377088    19.7791449368
H       5.2809201966     2.8203463477    19.7750367814
O       3.6607642229     2.1096213861    20.9309187800
H       4.0116703929     2.5807212209    21.6990177601
88
Step 4 | ATOMIC_POSITIONS (angstrom) | Cartesian Angstrom
Ni      1.2285271350     0.7092904721     8.0000000000
Ni      8.6004271350     0.7092904721     8.0000000000
Ni      2.4570542700     2.8371618884     8.0000000000
Ni      9.8289542700     2.8371618884     8.0000000000
Ni      3.6859500000     4.9656717300     8.0000000000
Ni     11.0578500000     4.9656717300     8.0000000000
Ni      3.6855814050     0.7092904721     8.0000000000
Ni     11.0574814050     0.7092904721     8.0000000000
Ni      4.9141085400     2.8371618884     8.0000000000
Ni     12.2860085400     2.8371618884     8.0000000000
Ni      6.1430042700     4.9656717300     8.0000000000
Ni     13.5149042700     4.9656717300     8.0000000000
Ni      6.1433728650     0.7092904721     8.0000000000
Ni     13.5152728650     0.7092904721     8.0000000000
Ni      7.3719000000     2.8371618884     8.0000000000
Ni     14.7438000000     2.8371618884     8.0000000000
Ni      8.6007957300     4.9656717300     8.0000000000
Ni     15.9726957300     4.9656717300     8.0000000000
Ni      0.0113671925    -0.0067495790    10.0287305086
Ni      7.3846036676    -0.0076073190    10.0292205713
Ni      1.2412021098     2.1205531903    10.0259281583
Ni      8.6134014741     2.1214757281    10.0281004912
Ni      2.4701839626     4.2485357744    10.0265078324
Ni      9.8415972392     4.2483539066    10.0280280206
Ni      2.4690525733    -0.0086528443    10.0263725764
Ni      9.8422117225    -0.0065477129    10.0270614606
Ni      3.6982499751     2.1208779779    10.0302323176
Ni     11.0703774548     2.1207293115    10.0319951455
Ni      4.9278564241     4.2500223619    10.0259658804
Ni     12.2986156303     4.2480793271    10.0270073268
Ni      4.9276080065    -0.0081245852    10.0250098882
Ni     12.2992240731    -0.0067973486    10.0293732610
Ni      6.1570163594     2.1206279349    10.0235110850
Ni     13.5272281244     2.1207715447    10.0295150137
Ni      7.3828975322     4.2498818383    10.0255176364
Ni     14.7574265733     4.2482066164    10.0265422456
Ni      1.2146918234     0.7186922217    12.0654311817
Ni      8.5771206809     0.7048812786    12.0793435027
Ni      2.4463609084     2.8427320340    12.0733457402
Ni      9.8167053252     2.8445834827    12.0745289776
Ni      3.6714662952     4.9733739948    12.0636903408
Ni     11.0495312523     4.9879283710    12.0800534071
Ni      3.6776834486     0.7250456551    12.0797311284
Ni     11.0419492068     0.7145811987    12.0724796911
Ni      4.9018704182     2.8384899959    12.0706415370
Ni     12.2736049028     2.8485703585    12.0722048572
Ni      6.1347082273     4.9697557119    12.0639654954
Ni     13.4993205750     4.9743634709    12.0678143307
Ni      6.1409055529     0.7116479449    12.0794668446
Ni     13.5015631682     0.7171576418    12.0668910835
Ni      7.3580760595     2.8447737603    12.0669525680
Ni     14.7314156950     2.8453442980    12.0693703275
Ni      8.5871668541     4.9710995366    12.0634622729
Ni     15.9584474036     4.9725061642    12.0681651068
Ni      0.0046189220    -0.0024206768    14.0824803917
Ni      7.3777841806    -0.0043097074    14.2691668399
Ni      1.2137146125     2.1248439928    14.0600987177
Ni      8.6176453419     2.1435770180    14.0606774697
Ni      2.4482911424     4.2780697180    14.0536389282
Ni      9.8239951263     4.2340697379    14.0616156070
Ni      2.4521950636    -0.0263827790    14.0542725506
Ni      9.8571428503    -0.0023230697    14.0672861938
Ni      3.6963449834     2.1704801738    14.1141565345
Ni     11.0646446694     2.1238949510    14.0810049913
Ni      4.9340539508     4.2799303128    14.0494516254
Ni     12.3025915877     4.2329921396    14.0665770587
Ni      4.9138015216    -0.0250308694    14.0382937014
Ni     12.2929029245    -0.0033126563    14.0750891165
Ni      6.1604883644     2.1404406240    14.0457005436
Ni     13.5209082420     2.1244642143    14.0740104683
Ni      7.3740348020     4.2573846948    14.0884083183
Ni     14.7528581454     4.2511610783    14.0762944500
O       7.3448832228     0.0193059320    16.0341571260
O       3.6378955006     2.0825816465    16.1422251365
H       4.0059613975     1.1708126790    16.2089952587
H       7.3903823893    -0.0131212149    16.9820188262
H       5.2712401839     2.8757500796    17.2092609959
H       3.7712680884     3.8747430750    17.1720975122
C       4.1630744683     2.8492430598    17.2610179410
O       4.1700449348     0.7520412659    18.4452905288
H       5.1401567635     0.8035061452    18.4880109527
C       3.7030557815     2.1147871885    18.5234223665
H       2.6054830265     2.0383234887    18.5077554110
C       4.1666058556     2.8192948544    19.7885854666
H       3.8209975922     3.8752659467    19.7773655720
H       5.2784331913     2.8232763278    19.7764611557
O       3.6622200767     2.1141687236    20.9261037761
H       4.0100602292     2.5789144480    21.7059926408
88
Step 5 | ATOMIC_POSITIONS (angstrom) | Cartesian Angstrom
Ni      1.2285271350     0.7092904721     8.0000000000
Ni      8.6004271350     0.7092904721     8.0000000000
Ni      2.4570542700     2.8371618884     8.0000000000
Ni      9.8289542700     2.8371618884     8.0000000000
Ni      3.6859500000     4.9656717300     8.0000000000
Ni     11.0578500000     4.9656717300     8.0000000000
Ni      3.6855814050     0.7092904721     8.0000000000
Ni     11.0574814050     0.7092904721     8.0000000000
Ni      4.9141085400     2.8371618884     8.0000000000
Ni     12.2860085400     2.8371618884     8.0000000000
Ni      6.1430042700     4.9656717300     8.0000000000
Ni     13.5149042700     4.9656717300     8.0000000000
Ni      6.1433728650     0.7092904721     8.0000000000
Ni     13.5152728650     0.7092904721     8.0000000000
Ni      7.3719000000     2.8371618884     8.0000000000
Ni     14.7438000000     2.8371618884     8.0000000000
Ni      8.6007957300     4.9656717300     8.0000000000
Ni     15.9726957300     4.9656717300     8.0000000000
Ni      0.0134127377    -0.0079394952    10.0281065490
Ni      7.3868900586    -0.0089583399    10.0296733370
Ni      1.2436573974     2.1192897085    10.0252430943
Ni      8.6159973116     2.1197292048    10.0283729591
Ni      2.4724311834     4.2469720267    10.0258483688
Ni      9.8444709780     4.2469535028    10.0281188279
Ni      2.4717079122    -0.0095345447    10.0260414088
Ni      9.8442749765    -0.0075056787    10.0267949738
Ni      3.7004078563     2.1194921611    10.0301486707
Ni     11.0727560491     2.1193346075    10.0322381812
Ni      4.9299363993     4.2485126100    10.0250750779
Ni     12.3004637879     4.2468012836    10.0267380799
Ni      4.9300213196    -0.0089547901    10.0247315680
Ni     12.3012676323    -0.0079959796    10.0291184298
Ni      6.1592003838     2.1187439169    10.0227541655
Ni     13.5292748395     2.1195966781    10.0293291846
Ni      7.3852106093     4.2484408119    10.0245339527
Ni     14.7595752171     4.2469002710    10.0258028932
Ni      1.2122831437     0.7198546422    12.0609109435
Ni      8.5727027948     0.7039786754    12.0808818194
Ni      2.4448661487     2.8435308530    12.0717641116
Ni      9.8154817593     2.8452155941    12.0700885802
Ni      3.6691618502     4.9752094457    12.0584604457
Ni     11.0479612232     4.9922504930    12.0816435402
Ni      3.6756771468     0.7282865176    12.0777032584
Ni     11.0393265484     0.7163819893    12.0687834569
Ni      4.8989307388     2.8385228617    12.0673116455
Ni     12.2707818669     2.8499834956    12.0684128537
Ni      6.1340161590     4.9709488601    12.0576123828
Ni     13.4970610650     4.9756565900    12.0637180632
Ni      6.1419328559     0.7112549103    12.0807126726
Ni     13.4992530956     0.7184259412    12.0635534787
Ni      7.3566374598     2.8465720069    12.0614149222
Ni     14.7288026843     2.8470713639    12.0649446279
Ni      8.5847136603     4.9713596681    12.0572533087
Ni     15.9552720860     4.9741469194    12.0631927132
Ni      0.0048987126    -0.0018100630    14.0802306098
Ni      7.3808183619    -0.0064017708    14.2667724701
Ni      1.2141960023     2.1240112707    14.0548487237
Ni      8.6194645376     2.1431233564    14.0526973786
Ni      2.4480701298     4.2804990793    14.0479436444
Ni      9.8251831196     4.2326392901    14.0537307894
Ni      2.4534081006    -0.0253735482    14.0475374085
Ni      9.8602071587    -0.0037710725    14.0623418049
Ni      3.6969969676     2.1743898778    14.1215842404
Ni     11.0663497328     2.1230057490    14.0785764172
Ni      4.9349730366     4.2805275119    14.0428545334
Ni     12.3053665784     4.2309854690    14.0616133086
Ni      4.9136633362    -0.0255392096    14.0302071654
Ni     12.2941134692    -0.0029738138    14.0713985561
Ni      6.1618046847     2.1416325907    14.0384041164
Ni     13.5215571616     2.1232349481    14.0702723177
Ni      7.3746913149     4.2574088609    14.0868344757
Ni     14.7538199553     4.2505415151    14.0730431987
O       7.3340877897     0.0270196218    16.0362234207
O       3.6381359075     2.0775153559    16.1504258567
H       3.9998840847     1.1675716273    16.2207304105
H       7.3979197569    -0.0184815830    16.9848239052
H       5.2670656121     2.8804355266    17.2080772203
H       3.7705100515     3.8698585935    17.1683922258
C       4.1631357991     2.8448897694    17.2593634044
O       4.1726651707     0.7582951308    18.4433172054
H       5.1407116801     0.7946624628    18.4902906701
C       3.7016302133     2.1172691564    18.5215322506
H       2.6095779979     2.0383667853    18.5097551296
C       4.1705151338     2.8188205881    19.7843057982
H       3.8232077007     3.8703833610    19.7743292615
H       5.2759273377     2.8274610550    19.7779785703
O       3.6644847895     2.1207907471    20.9229949939
H       4.0066875766     2.5749636826    21.7123537316
88
Step 6 | ATOMIC_POSITIONS (angstrom) | Cartesian Angstrom
Ni      1.2285271350     0.7092904721     8.0000000000
Ni      8.6004271350     0.7092904721     8.0000000000
Ni      2.4570542700     2.8371618884     8.0000000000
Ni      9.8289542700     2.8371618884     8.0000000000
Ni      3.6859500000     4.9656717300     8.0000000000
Ni     11.0578500000     4.9656717300     8.0000000000
Ni      3.6855814050     0.7092904721     8.0000000000
Ni     11.0574814050     0.7092904721     8.0000000000
Ni      4.9141085400     2.8371618884     8.0000000000
Ni     12.2860085400     2.8371618884     8.0000000000
Ni      6.1430042700     4.9656717300     8.0000000000
Ni     13.5149042700     4.9656717300     8.0000000000
Ni      6.1433728650     0.7092904721     8.0000000000
Ni     13.5152728650     0.7092904721     8.0000000000
Ni      7.3719000000     2.8371618884     8.0000000000
Ni     14.7438000000     2.8371618884     8.0000000000
Ni      8.6007957300     4.9656717300     8.0000000000
Ni     15.9726957300     4.9656717300     8.0000000000
Ni      0.0161176234    -0.0094858757    10.0269682626
Ni      7.3898982758    -0.0107415304    10.0300404639
Ni      1.2468927633     2.1176709412    10.0240885881
Ni      8.6193978795     2.1173419801    10.0284524311
Ni      2.4753589677     4.2448754474    10.0247131445
Ni      9.8483169366     4.2451670634    10.0279598572
Ni      2.4752335194    -0.0107149233    10.0252758502
Ni      9.8469375035    -0.0087853417    10.0262334280
Ni      3.7032332066     2.1177009697    10.0297623325
Ni     11.0759140491     2.1174854582    10.0321221965
Ni      4.9327231683     4.2464930849    10.0236068900
Ni     12.3028844031     4.2451707855    10.0261765345
Ni      4.9332561775    -0.0100144112    10.0241712893
Ni     12.3039846317    -0.0095737344    10.0284456093
Ni      6.1620728215     2.1162169267    10.0215722754
Ni     13.5319943479     2.1180311248    10.0287571121
Ni      7.3882975478     4.2465094707    10.0227808873
Ni     14.7623728138     4.2451825999    10.0244766087
Ni      1.2090568554     0.7213997620    12.0550713626
Ni      8.5673083819     0.7030744568    12.0825789001
Ni      2.4429440837     2.8446495587    12.0699838965
Ni      9.8139504455     2.8460230513    12.0641939471
Ni      3.6661545713     4.9776142821    12.0517621537
Ni     11.0458483446     4.9974142116    12.0833969977
Ni      3.6731569057     0.7325792160    12.0751356584
Ni     11.0358523904     0.7187095090    12.0640598277
Ni      4.8950665808     2.8385634058    12.0632137255
Ni     12.2671097365     2.8518820312    12.0635735556
Ni      6.1330246332     4.9724835265    12.0496545761
Ni     13.4941919431     4.9772828978    12.0584096133
Ni      6.1429539771     0.7109450731    12.0820304779
Ni     13.4962400449     0.7200921949    12.0592571525
Ni      7.3546437326     2.8489278922    12.0542803016
Ni     14.7254042262     2.8493045414    12.0593509351
Ni      8.5815099621     4.9718515506    12.0493176104
Ni     15.9511533243     4.9762795643    12.0568822091
Ni      0.0053717679    -0.0010432568    14.0769653977
Ni      7.3853613486    -0.0095168549    14.2664636354
Ni      1.2148377418     2.1229748349    14.0477455176
Ni      8.6218506590     2.1425922916    14.0422757789
Ni      2.4478117132     4.2836960916    14.0402664275
Ni      9.8266758120     4.2307818066    14.0434113515
Ni      2.4548950905    -0.0241651813    14.0383882054
Ni      9.8642374106    -0.0056919817    14.0558326647
Ni      3.6978081255     2.1794300186    14.1311352181
Ni     11.0685472315     2.1218656724    14.0751206015
Ni      4.9362404438     4.2814846512    14.0338241529
Ni     12.3090291113     4.2283419224    14.0550800241
Ni      4.9134707335    -0.0262709470    14.0196076638
Ni     12.2956803424    -0.0025956889    14.0662853709
Ni      6.1635670164     2.1432774323    14.0288214065
Ni     13.5225064631     2.1217186119    14.0650941348
Ni      7.3755361588     4.2575237206    14.0843216466
Ni     14.7551557915     4.2496889405    14.0684586764
O       7.3178304315     0.0385917566    16.0405101277
O       3.6368516887     2.0712117587    16.1582609784
H       3.9924906509     1.1609281792    16.2369209351
H       7.4091787716    -0.0264608468    16.9842422873
H       5.2636041244     2.8862265506    17.2065638809
H       3.7689641692     3.8640339296    17.1632166434
C       4.1618302394     2.8418804016    17.2582065860
O       4.1737647119     0.7632087721    18.4402528426
H       5.1428089864     0.7840162391    18.4935517019
C       3.7040206587     2.1198684346    18.5204307739
H       2.6130392771     2.0384409342    18.5122917181
C       4.1736797550     2.8193193175    19.7808233541
H       3.8257064326     3.8663526472    19.7697042367
H       5.2755605535     2.8327984436    19.7790998914
O       3.6662285728     2.1273266284    20.9201959006
H       4.0024857443     2.5701599052    21.7192461419
88
Step 7 | ATOMIC_POSITIONS (angstrom) | Cartesian Angstrom
Ni      1.2285271350     0.7092904721     8.0000000000
Ni      8.6004271350     0.7092904721     8.0000000000
Ni      2.4570542700     2.8371618884     8.0000000000
Ni      9.8289542700     2.8371618884     8.0000000000
Ni      3.6859500000     4.9656717300     8.0000000000
Ni     11.0578500000     4.9656717300     8.0000000000
Ni      3.6855814050     0.7092904721     8.0000000000
Ni     11.0574814050     0.7092904721     8.0000000000
Ni      4.9141085400     2.8371618884     8.0000000000