116
Step 1 | ATOMIC_POSITIONS (angstrom) | Cartesian Angstrom
NI      0.0009872020    -0.0000024260    12.0382123380
NI      1.2296369450     2.1280796380    12.0382123380
NI      2.4582866880     4.2561617010    12.0382123380
NI      3.6869364310     6.3842437650    12.0382123380
NI      4.9155861730     8.5123258290    12.0382123380
NI      2.4583643270    -0.0000024260    12.0382123380
NI      3.6870140700     2.1280796380    12.0382123380
NI      4.9156638130     4.2561617010    12.0382123380
NI      6.1443135560     6.3842437650    12.0382123380
NI      7.3729632980     8.5123258290    12.0382123380
NI      4.9156185770    -0.0000024260    12.0382123380
NI      6.1442683200     2.1280796380    12.0382123380
NI      7.3729180630     4.2561617010    12.0382123380
NI      8.6015678060     6.3842437650    12.0382123380
NI      9.8302175480     8.5123258290    12.0382123380
NI      7.3728728270    -0.0000024260    12.0382123380
NI      8.6015225700     2.1280796380    12.0382123380
NI      9.8301723130     4.2561617010    12.0382123380
NI     11.0588220560     6.3842437650    12.0382123380
NI     12.2874717980     8.5123258290    12.0382123380
NI      9.8302499520    -0.0000024260    12.0382123380
NI     11.0588996950     2.1280796380    12.0382123380
NI     12.2875494380     4.2561617010    12.0382123380
NI     13.5161991810     6.3842437650    12.0382123380
NI     14.7448489230     8.5123258290    12.0382123380
NI      2.4582140657     1.4187005543    14.0470947054
NI      3.6867637960     3.5467255904    14.0469894658
NI      4.9154512926     5.6748776573    14.0469152161
NI      6.1438275560     7.8030848094    14.0466411035
NI      7.3727567864     9.9311616197    14.0469521308
NI      4.9154310708     1.4186937524    14.0469573692
NI      6.1442481669     3.5467562154    14.0470882043
NI      7.3729941586     5.6748716423    14.0471373768
NI      8.6015250220     7.8029998527    14.0472292655
NI      9.8300776391     9.9312212149    14.0468027637
NI      7.3729843048     1.4189511426    14.0467332836
NI      8.6014431122     3.5466326322    14.0466732459
NI      9.8302027494     5.6748926349    14.0470935598
NI     11.0587678648     7.8028244541    14.0466621184
NI     12.2871247840     9.9311847046    14.0472537852
NI      9.8301636182     1.4189756958    14.0469445161
NI     11.0590405279     3.5466040753    14.0470227602
NI     12.2873267000     5.6746056293    14.0472119932
NI     13.5159532856     7.8028562728    14.0472069985
NI     14.7448276167     9.9311659242    14.0470602405
NI     12.2876436873     1.4187459501    14.0469296069
NI     13.5162189062     3.5466122922    14.0468978688
NI     14.7450123167     5.6746278189    14.0471265702
NI     15.9740195421     7.8028756441    14.0471036868
NI     17.2025805491     9.9307985963    14.0468800157
NI      1.2295892161     0.7094146584    16.0489997615
NI      2.4582869212     2.8374774022    16.0489149142
NI      3.6870662983     4.9655563218    16.0495241611
NI      4.9159523263     7.0933424904    16.0499173818
NI      6.1441395620     9.2216484637    16.0491504598
NI      3.6869499225     0.7094361833    16.0487114984
NI      4.9159911040     2.8376567632    16.0485009899
NI      6.1454430806     4.9648885274    16.0480843779
NI      7.3738261392     7.0926329997    16.0486838886
NI      8.6015193058     9.2214735557    16.0485968817
NI      6.1442771576     0.7096097815    16.0495782860
NI      7.3728850253     2.8391214476    16.0488128039
NI      8.5999983482     4.9659710626    16.0489663403
NI      9.8299209461     7.0933882893    16.0483437010
NI     11.0589492731     9.2214165255    16.0491812600
NI      8.6012820521     0.7095775180    16.0495598643
NI      9.8295117296     2.8373825940    16.0484189731
NI     11.0583053915     4.9655988246    16.0492716441
NI     12.2872038007     7.0937545252    16.0491067218
NI     13.5159854213     9.2214107644    16.0491281148
NI     11.0588975407     0.7094973559    16.0487142578
NI     12.2874619842     2.8374580224    16.0487562967
NI     13.5162077408     4.9656566312    16.0487796613
NI     14.7445895458     7.0936952772    16.0488659415
NI     15.9733641015     9.2216099901    16.0489557125
NI      0.0011669703    -0.0000985540    18.0589938508
NI      1.2296213624     2.1280091323    18.0587834188
NI      2.4581750301     4.2561145193    18.0587399094
NI      3.6864537932     6.3845125388    18.0588078953
NI      4.9156444652     8.5124599300    18.0588346965
NI      2.4582780362     0.0000423268    18.0594802982
NI      3.6862958492     2.1276727107    18.0590978945
NI      4.9110634645     4.2563000421    18.0572807481
NI      6.1381219923     6.3880511564    18.0547760040
NI      7.3706944147     8.5167713953    18.0554802207
NI      4.9153876657    -0.0002973970    18.0590087655
NI      6.1423138780     2.1239540400    18.0569727620
NI      7.3694521255     4.2500584436    18.0770028378
NI      8.6061252712     6.3992021060    18.0466663618
NI      9.8325250262     8.5166087499    18.0545032072
NI      7.3729689149    -0.0006317667    18.0588066703
NI      8.6036840603     2.1241829335    18.0574890269
NI      9.8382491846     4.2511177655    18.0507038566
NI     11.0638950080     6.3840842378    18.0549388276
NI     12.2875652612     8.5121192118    18.0591472727
NI      9.8303200920     0.0000134519    18.0589810719
NI     11.0594776963     2.1280913606    18.0592906342
NI     12.2872436124     4.2560906704    18.0595990550
NI     13.5158098736     6.3844136786    18.0591323434
NI     14.7446214868     8.5123506559    18.0588578472
O       7.4085591128     4.3102564859    19.9024154385
O       8.6565194235     6.3459327577    19.9738566443
H       8.9818452832     5.3955800138    20.0208973174
H       7.4128551390     4.3195994488    20.8789520870
H      10.2273093737     7.0512920055    21.0517518808
H       8.7508525055     8.0568585128    21.0493343794
C       9.1255319899     7.0420385921    21.1032844968
O       9.1338710780     4.9685922870    22.3271799221
H      10.1135891077     5.0242416319    22.3347173583
C       8.6552947586     6.3169180699    22.3618347193
H       7.5409186526     6.2333927483    22.3585748040
C       9.1280468717     7.0112997912    23.6253081357
H       8.7843882126     8.0510905404    23.6561833630
H      10.2373345022     6.9991223170    23.6564008077
O       8.6465609497     6.3143926237    24.7722146348
H       8.9903172790     6.7906227978    25.5460687195
116
Step 2 | ATOMIC_POSITIONS (angstrom) | Cartesian Angstrom
NI      0.0009872020    -0.0000024260    12.0382123380
NI      1.2296369450     2.1280796380    12.0382123380
NI      2.4582866880     4.2561617010    12.0382123380
NI      3.6869364310     6.3842437650    12.0382123380
NI      4.9155861730     8.5123258290    12.0382123380
NI      2.4583643270    -0.0000024260    12.0382123380
NI      3.6870140700     2.1280796380    12.0382123380
NI      4.9156638130     4.2561617010    12.0382123380
NI      6.1443135560     6.3842437650    12.0382123380
NI      7.3729632980     8.5123258290    12.0382123380
NI      4.9156185770    -0.0000024260    12.0382123380
NI      6.1442683200     2.1280796380    12.0382123380
NI      7.3729180630     4.2561617010    12.0382123380
NI      8.6015678060     6.3842437650    12.0382123380
NI      9.8302175480     8.5123258290    12.0382123380
NI      7.3728728270    -0.0000024260    12.0382123380
NI      8.6015225700     2.1280796380    12.0382123380
NI      9.8301723130     4.2561617010    12.0382123380
NI     11.0588220560     6.3842437650    12.0382123380
NI     12.2874717980     8.5123258290    12.0382123380
NI      9.8302499520    -0.0000024260    12.0382123380
NI     11.0588996950     2.1280796380    12.0382123380
NI     12.2875494380     4.2561617010    12.0382123380
NI     13.5161991810     6.3842437650    12.0382123380
NI     14.7448489230     8.5123258290    12.0382123380
NI      2.4581517591     1.4187186411    14.0519690636
NI      3.6864384756     3.5465955916    14.0516225739
NI      4.9152848564     5.6749520486    14.0514335786
NI      6.1431183052     7.8033746468    14.0506352665
NI      7.3726022956     9.9314578161    14.0515113715
NI      4.9150672767     1.4186815931    14.0515274574
NI      6.1441513956     3.5466619842    14.0518532604
NI      7.3731425158     5.6749696423    14.0518823907
NI      8.6014212618     7.8032052785    14.0522256824
NI      9.8297720886     9.9316295204    14.0510016606
NI      7.3732217103     1.4194815103    14.0509114916
NI      8.6012741800     3.5463788872    14.0506830867
NI      9.8302524569     5.6749019520    14.0519007511
NI     11.0586915131     7.8026143729    14.0505471855
NI     12.2863883160     9.9315668042    14.0525552091
NI      9.8302626361     1.4195284136    14.0514695178
NI     11.0595920643     3.5462257134    14.0517023043
NI     12.2871033533     5.6740960507    14.0523081465
NI     13.5156930201     7.8027110659    14.0522545650
NI     14.7450398178     9.9315158713    14.0518931985
NI     12.2879442304     1.4188513982    14.0514320692
NI     13.5163276141     3.5462306600    14.0513121709
NI     14.7454934802     5.6741817877    14.0520680191
NI     15.9752431899     7.8027246951    14.0520484326
NI     17.2036288027     9.9303669266    14.0512793949
NI      1.2294712345     0.7094308749    16.0453246494
NI      2.4582593153     2.8374972470    16.0449687621
NI      3.6872633742     4.9656752868    16.0467911901
NI      4.9165683422     7.0928489429    16.0477378995
NI      6.1436884809     9.2215662831    16.0453248855
NI      3.6867806583     0.7094789541    16.0443437271
NI      4.9166608461     2.8380435177    16.0435441084
NI      6.1483655986     4.9630992320    16.0433074561
NI      7.3752158599     7.0907722386    16.0433675787
NI      8.6012457585     9.2211037401    16.0435159380
NI      6.1443641925     0.7099616482    16.0469212453
NI      7.3728764216     2.8432119367    16.0454789027
NI      8.5960204893     4.9663096220    16.0461987641
NI      9.8300161350     7.0931436367    16.0421077146
NI     11.0594184533     9.2208788867    16.0453433602
NI      8.6012530498     0.7098633768    16.0468540293
NI      9.8285783265     2.8368724535    16.0426494447
NI     11.0579905921     4.9657787000    16.0454262127
NI     12.2874541793     7.0942232319    16.0451422330
NI     13.5162977627     9.2207728921    16.0456015289
NI     11.0589030928     0.7096902275    16.0442946174
NI     12.2872772891     2.8374489622    16.0444783468
NI     13.5161860792     4.9658860040    16.0445252220
NI     14.7440876372     7.0938659524    16.0447882528
NI     15.9730365207     9.2213574928    16.0450445207
NI      0.0014364837     0.0000296480    18.0621221898
NI      1.2295804316     2.1278190958    18.0613873269
NI      2.4575824929     4.2559342894    18.0613258820
NI      3.6848220857     6.3853019512    18.0615769519
NI      4.9154187203     8.5131979372    18.0617734346
NI      2.4580473482     0.0004582863    18.0637963350
NI      3.6844878384     2.1266442440    18.0624236158
NI      4.9007101451     4.2565905666    18.0559837857
NI      6.1250597528     6.3961585515    18.0478588059
NI      7.3653563671     8.5270245124    18.0507121525
NI      4.9148753292    -0.0008929287    18.0622581281
NI      6.1377351903     2.1144517453    18.0549503330
NI      7.3621535611     4.2374272397    18.1140172911
NI      8.6162220547     6.4308830323    18.0287017337
NI      9.8381380814     8.5267282232    18.0475011201
NI      7.3732100444    -0.0023838075    18.0615239762
NI      8.6085313830     2.1154010192    18.0567497191
NI      9.8551735261     4.2410600751    18.0350337410
NI     11.0750255660     6.3836611361    18.0490846260
NI     12.2880042566     8.5118149394    18.0627404914
NI      9.8306154239    -0.0002448703    18.0621326693
NI     11.0611498388     2.1276049977    18.0631500711
NI     12.2871971485     4.2558871403    18.0643031010
NI     13.5152998569     6.3848462318    18.0626249076
NI     14.7441008575     8.5123695638    18.0616807118
O       7.3950405509     4.2712059278    19.8964368559
O       8.6670137931     6.3506157225    19.9986838692
H       8.9521684458     5.3888888944    20.0363868079
H       7.4070093386     4.3013232558    20.8595581635
H      10.2387988403     7.0624759829    21.0631185141
H       8.7456035822     8.0743215679    21.0434148530
C       9.1418665725     7.0629604365    21.1197885274
O       9.1355519875     4.9527025827    22.3179553695
H      10.1075438341     5.0147598904    22.3380178009
C       8.6650865813     6.3168366824    22.3743772307
H       7.5537518389     6.2367145248    22.3599563081
C       9.1297665887     7.0146330886    23.6406890231
H       8.7840086945     8.0684691431    23.6438783237
H      10.2445375402     7.0068700406    23.6402887125
O       8.6352695658     6.3067325009    24.7787804729
H       8.9857044404     6.7850672995    25.5478403215
116
Step 3 | ATOMIC_POSITIONS (angstrom) | Cartesian Angstrom
NI      0.0009872020    -0.0000024260    12.0382123380
NI      1.2296369450     2.1280796380    12.0382123380
NI      2.4582866880     4.2561617010    12.0382123380
NI      3.6869364310     6.3842437650    12.0382123380
NI      4.9155861730     8.5123258290    12.0382123380
NI      2.4583643270    -0.0000024260    12.0382123380
NI      3.6870140700     2.1280796380    12.0382123380
NI      4.9156638130     4.2561617010    12.0382123380
NI      6.1443135560     6.3842437650    12.0382123380
NI      7.3729632980     8.5123258290    12.0382123380
NI      4.9156185770    -0.0000024260    12.0382123380
NI      6.1442683200     2.1280796380    12.0382123380
NI      7.3729180630     4.2561617010    12.0382123380
NI      8.6015678060     6.3842437650    12.0382123380
NI      9.8302175480     8.5123258290    12.0382123380
NI      7.3728728270    -0.0000024260    12.0382123380
NI      8.6015225700     2.1280796380    12.0382123380
NI      9.8301723130     4.2561617010    12.0382123380
NI     11.0588220560     6.3842437650    12.0382123380
NI     12.2874717980     8.5123258290    12.0382123380
NI      9.8302499520    -0.0000024260    12.0382123380
NI     11.0588996950     2.1280796380    12.0382123380
NI     12.2875494380     4.2561617010    12.0382123380
NI     13.5161991810     6.3842437650    12.0382123380
NI     14.7448489230     8.5123258290    12.0382123380
NI      2.4580969486     1.4187387089    14.0552934568
NI      3.6861512771     3.5465556773    14.0546703923
NI      4.9152070730     5.6749430990    14.0545322975
NI      6.1425669400     7.8035392575    14.0532675532
NI      7.3724721271     9.9317070589    14.0544799807
NI      4.9148505249     1.4186319312    14.0545197328
NI      6.1440090236     3.5465460066    14.0548060755
NI      7.3731719624     5.6750466007    14.0545201695
NI      8.6012620365     7.8035023870    14.0551228031
NI      9.8295242066     9.9319615130    14.0535873626
NI      7.3733566723     1.4199023167    14.0538305150
NI      8.6011221888     3.5463826833    14.0531699034
NI      9.8301342718     5.6746036665    14.0550163442
NI     11.0587724473     7.8025262840    14.0527029430
NI     12.2858252182     9.9319837362    14.0563677636
NI      9.8303411945     1.4197718674    14.0543724844
NI     11.0601219890     3.5459455333    14.0546288985
NI     12.2869321565     5.6736677768    14.0556936953
NI     13.5155250097     7.8026524431    14.0555210970
NI     14.7451756467     9.9318728490    14.0551964876
NI     12.2881879567     1.4188953865    14.0543824448
NI     13.5164769817     3.5459536138    14.0541542087
NI     14.7459871521     5.6738339644    14.0554137029
NI     15.9762569347     7.8025180312    14.0554929287
NI     17.2044758976     9.9300617479    14.0541291924
NI      1.2293650758     0.7094115837    16.0438944360
NI      2.4582246117     2.8375501545    16.0430822441
NI      3.6872764360     4.9660273226    16.0456228214
NI      4.9165162400     7.0925965314    16.0463439610
NI      6.1426764222     9.2217486777    16.0426271857
NI      3.6866296024     0.7094434228    16.0421575499
NI      4.9171255818     2.8383232669    16.0403819099
NI      6.1515493908     4.9608970494    16.0424196175
NI      7.3755822696     7.0896107751    16.0386639175
NI      8.6008835765     9.2211874348    16.0396699477
NI      6.1446544389     0.7100522224    16.0457313059
NI      7.3729764262     2.8475617635    16.0457242939
NI      8.5916312631     4.9656879472    16.0472839828
NI      9.8315154408     7.0933383782    16.0359114472
NI     11.0606253391     9.2208249316    16.0423945670
NI      8.6009423749     0.7098297522    16.0456476688
NI      9.8275732585     2.8356861402    16.0374546791
NI     11.0582520695     4.9660934139    16.0419205402
NI     12.2882106949     7.0949899003    16.0422479076
NI     13.5166230930     9.2203061338    16.0439745526
NI     11.0589278647     0.7097631241    16.0419364492
NI     12.2871731178     2.8374975832    16.0423912805
NI     13.5161604645     4.9660958008    16.0423542660
NI     14.7437371417     7.0939750306    16.0427149103
NI     15.9726830863     9.2211210160    16.0430548736
NI      0.0013548196     0.0010380130    18.0645913366
NI      1.2295466165     2.1275641115    18.0632412635
NI      2.4561962393     4.2555385132    18.0633379078
NI      3.6819724084     6.3864750411    18.0638561661
NI      4.9143432043     8.5149433655    18.0644411695
NI      2.4577447785     0.0016172807    18.0676198186
NI      3.6822799447     2.1254081900    18.0649901197
NI      4.8908384908     4.2568097724    18.0530837956
NI      6.1144997932     6.4029537733    18.0394088026
NI      7.3598446161     8.5373615122    18.0455839922
NI      4.9144387376    -0.0012641232    18.0650493101
NI      6.1329669239     2.1048727756    18.0512771048
NI      7.3559244596     4.2275910413    18.1365942801
NI      8.6253409237     6.4582769063    18.0207386619
NI      9.8444010190     8.5376882750    18.0401152135
NI      7.3735407797    -0.0048443001    18.0636157552
NI      8.6131733314     2.1069409203    18.0545521131
NI      9.8690602024     4.2332833041    18.0180741944
NI     11.0851732738     6.3833254101    18.0427878316
NI     12.2890012932     8.5118799578    18.0659190188
NI      9.8312308302    -0.0012030603    18.0647553725
NI     11.0636562923     2.1258985099    18.0664473725
NI     12.2888025713     4.2555336034    18.0687354788
NI     13.5157033100     6.3853646871    18.0655920119
NI     14.7435932461     8.5122996205    18.0638596454
O       7.3822481225     4.2283584664    19.8910085425
O       8.6738234811     6.3500447543    20.0081263966
H       8.9195327676     5.3888470880    20.0577998673
H       7.4006307069     4.2822958035    20.8540730081
H      10.2553240957     7.0791548093    21.0770526725
H       8.7431602637     8.0910227801    21.0403032742
C       9.1532737576     7.0716611597    21.1388688509
O       9.1295125003     4.9515028750    22.3095293300
H      10.1098231829     5.0011200545    22.3418190508
C       8.6717101600     6.3184897870    22.3838571431
H       7.5695863028     6.2407229613    22.3618368337
C       9.1323269262     7.0167665532    23.6485810261
H       8.7861295289     8.0755776096    23.6336476704
H      10.2467104086     7.0154297627    23.6298213974
O       8.6300323970     6.3081793637    24.7822725700
H       8.9793200560     6.7771127341    25.5539968641
116
Step 4 | ATOMIC_POSITIONS (angstrom) | Cartesian Angstrom
NI      0.0009872020    -0.0000024260    12.0382123380
NI      1.2296369450     2.1280796380    12.0382123380
NI      2.4582866880     4.2561617010    12.0382123380
NI      3.6869364310     6.3842437650    12.0382123380
NI      4.9155861730     8.5123258290    12.0382123380
NI      2.4583643270    -0.0000024260    12.0382123380
NI      3.6870140700     2.1280796380    12.0382123380
NI      4.9156638130     4.2561617010    12.0382123380
NI      6.1443135560     6.3842437650    12.0382123380
NI      7.3729632980     8.5123258290    12.0382123380
NI      4.9156185770    -0.0000024260    12.0382123380
NI      6.1442683200     2.1280796380    12.0382123380
NI      7.3729180630     4.2561617010    12.0382123380
NI      8.6015678060     6.3842437650    12.0382123380
NI      9.8302175480     8.5123258290    12.0382123380
NI      7.3728728270    -0.0000024260    12.0382123380
NI      8.6015225700     2.1280796380    12.0382123380
NI      9.8301723130     4.2561617010    12.0382123380
NI     11.0588220560     6.3842437650    12.0382123380
NI     12.2874717980     8.5123258290    12.0382123380
NI      9.8302499520    -0.0000024260    12.0382123380
NI     11.0588996950     2.1280796380    12.0382123380
NI     12.2875494380     4.2561617010    12.0382123380
NI     13.5161991810     6.3842437650    12.0382123380
NI     14.7448489230     8.5123258290    12.0382123380
NI      2.4580216673     1.4187691585    14.0577388123
NI      3.6858302707     3.5466159032    14.0566859648
NI      4.9153291937     5.6747409271    14.0569161190
NI      6.1420278887     7.8036197199    14.0548609210
NI      7.3723006779     9.9320168739    14.0563180381
NI      4.9147357832     1.4185174145    14.0564714249
NI      6.1438564973     3.5463948450    14.0565269380
NI      7.3731088769     5.6749935813    14.0555470737
NI      8.6010271604     7.8039364754    14.0562268141
NI      9.8293118310     9.9323081270    14.0549540164
NI      7.3734320686     1.4204625717    14.0562118112
NI      8.6008638105     3.5467169643    14.0545749559
NI      9.8296065374     5.6737843100    14.0570415842
NI     11.0591350999     7.8025849098    14.0532198272
NI     12.2854394849     9.9325357065    14.0592818138
NI      9.8304055568     1.4196348957    14.0560605506
NI     11.0607822372     3.5456579345    14.0561646790
NI     12.2868662400     5.6732646529    14.0578478777
NI     13.5155055226     7.8027105344    14.0575156942
NI     14.7452637302     9.9322770415    14.0575282699
NI     12.2884255444     1.4189027490    14.0563716803
NI     13.5166837621     3.5457484058    14.0559793025
NI     14.7465429491     5.6735304793    14.0577696636
NI     15.9771684858     7.8022547908    14.0580014839
NI     17.2051829832     9.9298661232    14.0558817479
NI      1.2292291330     0.7093565746    16.0445211796
NI      2.4581693050     2.8376701440    16.0429635567
NI      3.6870283369     4.9667440753    16.0456964948
NI      4.9155664863     7.0925965754    16.0452813844
NI      6.1407385742     9.2223148267    16.0404888357
NI      3.6865082293     0.7092915812    16.0418701923
NI      4.9173503563     2.8384725885    16.0382434735
NI      6.1551159238     4.9580668336    16.0449116468
NI      7.3754004432     7.0889821072    16.0338706078
NI      8.6003710247     9.2217154891    16.0363143194
NI      6.1452732999     0.7098463342    16.0456049743
NI      7.3731996006     2.8524989698    16.0493931662
NI      8.5864315006     4.9647496907    16.0524765476
NI      9.8344450315     7.0938778472    16.0287041802
NI     11.0630000411     9.2213895404    16.0395901850
NI      8.6002571444     0.7093480473    16.0456103274
NI      9.8264569335     2.8333779584    16.0314819613
NI     11.0593421879     4.9666163997    16.0376390023
NI     12.2898520247     7.0962797438    16.0398101316
NI     13.5171086940     9.2198961470    16.0439915673
NI     11.0589084355     0.7097140553    16.0412249045
NI     12.2870659481     2.8376659640    16.0422530404
NI     13.5161148329     4.9663491204    16.0419382628
NI     14.7434425561     7.0940750992    16.0422542458
NI     15.9721783354     9.2208804582    16.0426537223
NI      0.0008273018     0.0033671835    18.0669901355
NI      1.2295129946     2.1272000851    18.0647972836
NI      2.4535941087     4.2547787724    18.0652814383
NI      3.6771973006     6.3883462388    18.0662535573
NI      4.9120536493     8.5181684699    18.0674639586
NI      2.4572570227     0.0038980098    18.0718508193
NI      3.6791340427     2.1237490531    18.0674064026
NI      4.8795258195     4.2570453549    18.0480639947
NI      6.1046951056     6.4096858263    18.0275483641
NI      7.3530831066     8.5498322038    18.0389128187
NI      4.9140632850    -0.0013850298    18.0680876020
NI      6.1270369190     2.0933155889    18.0453112058
NI      7.3494266334     4.2195639805    18.1451416384
NI      8.6353965357     6.4872093657    18.0196585276
NI      9.8526450626     8.5518349165    18.0307000648
NI      7.3740996287    -0.0086205829    18.0656002583
NI      8.6186170916     2.0971849178    18.0505413252
NI      9.8824401137     4.2262655142    17.9963425679
NI     11.0961492415     6.3830660887    18.0345460303
NI     12.2908895870     8.5123334793    18.0693882665
NI      9.8323129097    -0.0032115512    18.0674918038
NI     11.0675845336     2.1225231932    18.0699473674
NI     12.2926116161     4.2549580098    18.0738953574
NI     13.5172488438     6.3861328332    18.0687478343
NI     14.7429981353     8.5121095549    18.0659149721
O       7.3671555773     4.1690460718    19.9041127676
O       8.6807660921     6.3549978146    20.0150783035
H       8.8771738616     5.3871980968    20.0901620268
H       7.3919042710     4.2578672501    20.8483570011
H      10.2731747272     7.1037553223    21.0972953825
H       8.7460698390     8.1020421222    21.0407943049
C       9.1643738565     7.0823738708    21.1524776625
O       9.1341358346     4.9575829829    22.3011885936
H      10.1030067587     4.9795517267    22.3466167586
C       8.6789504330     6.3235573596    22.3918382418
H       7.5865594746     6.2471159501    22.3649883244
C       9.1369183352     7.0198526515    23.6533694761
H       8.7904280000     8.0767713505    23.6229644634
H      10.2466177785     7.0265720447    23.6226540350
O       8.6267652518     6.3146181458    24.7813664862
H       8.9714931571     6.7674893455    25.5682332921
116
Step 5 | ATOMIC_POSITIONS (angstrom) | Cartesian Angstrom
NI      0.0009872020    -0.0000024260    12.0382123380
NI      1.2296369450     2.1280796380    12.0382123380
NI      2.4582866880     4.2561617010    12.0382123380
NI      3.6869364310     6.3842437650    12.0382123380
NI      4.9155861730     8.5123258290    12.0382123380
NI      2.4583643270    -0.0000024260    12.0382123380
NI      3.6870140700     2.1280796380    12.0382123380
NI      4.9156638130     4.2561617010    12.0382123380
NI      6.1443135560     6.3842437650    12.0382123380
NI      7.3729632980     8.5123258290    12.0382123380
NI      4.9156185770    -0.0000024260    12.0382123380
NI      6.1442683200     2.1280796380    12.0382123380
NI      7.3729180630     4.2561617010    12.0382123380
NI      8.6015678060     6.3842437650    12.0382123380
NI      9.8302175480     8.5123258290    12.0382123380
NI      7.3728728270    -0.0000024260    12.0382123380
NI      8.6015225700     2.1280796380    12.0382123380
NI      9.8301723130     4.2561617010    12.0382123380
NI     11.0588220560     6.3842437650    12.0382123380
NI     12.2874717980     8.5123258290    12.0382123380
NI      9.8302499520    -0.0000024260    12.0382123380
NI     11.0588996950     2.1280796380    12.0382123380
NI     12.2875494380     4.2561617010    12.0382123380
NI     13.5161991810     6.3842437650    12.0382123380
NI     14.7448489230     8.5123258290    12.0382123380
NI      2.4579078350     1.4188089631    14.0595574103
NI      3.6854070063     3.5468282633    14.0576700924
NI      4.9159363823     5.6740689667    14.0589476794
NI      6.1413602980     7.8036043873    14.0551225559
NI      7.3719759385     9.9325624489    14.0568392313
NI      4.9147287000     1.4182628970    14.0573547351
NI      6.1437486104     3.5461657246    14.0569868196
NI      7.3728986299     5.6745675071    14.0546673430
NI      8.6006524966     7.8046320336    14.0547726315
NI      9.8291508947     9.9328101859    14.0548170452
NI      7.3734616249     1.4215728160    14.0585626997
NI      8.6002194189     3.5476752939    14.0548304361
NI      9.8280684597     5.6719051307    14.0579524457
NI     11.0600995222     7.8029425287    14.0511597891
NI     12.2854424506     9.9334420385    14.0613000567
NI      9.8304190280     1.4187235796    14.0561791461
NI     11.0618058010     3.5451850401    14.0558036449
NI     12.2870819742     5.6729015491    14.0584618657
NI     13.5158647743     7.8030547299    14.0579843794
NI     14.7452927202     9.9327833097    14.0589028894
NI     12.2887127070     1.4188545739    14.0575296525
NI     13.5170152502     3.5456102649    14.0568473190
NI     14.7472616465     5.6732663051    14.0592081284
NI     15.9779723012     7.8019398705    14.0595830341
NI     17.2056486196     9.9298350168    14.0563660752
NI      1.2290136483     0.7092172163    16.0481333906
NI      2.4580970950     2.8379366422    16.0452878686
NI      3.6862353647     4.9681891509    16.0472450589
NI      4.9128859679     7.0931025711    16.0441119667
NI      6.1369096085     9.2235933271    16.0385905056
NI      3.6864900732     0.7088912979    16.0442941556
NI      4.9170919971     2.8383376637    16.0368274514
NI      6.1591295423     4.9541476809    16.0519287256
NI      7.3750040879     7.0891850872    16.0282747124
NI      8.5995794844     9.2229496247    16.0329208948
NI      6.1465558406     0.7090896890    16.0465270740
NI      7.3736402043     2.8583433946    16.0580510207
NI      8.5797501136     4.9642771449    16.0642800734
NI      9.8394522541     7.0949061437    16.0190580542
NI     11.0677060796     9.2231224322    16.0361247636
NI      8.5989007279     0.7079451517    16.0469503402
NI      9.8252250205     2.8287381773    16.0227472053
NI     11.0621601977     4.9675208927    16.0307081006
NI     12.2933418719     7.0986769074    16.0374258968
NI     13.5180599197     9.2194757532    16.0462748860
NI     11.0586789931     0.7094502584    16.0426586695
NI     12.2868270132     2.8381056794    16.0449957205
NI     13.5160356096     4.9667536306    16.0439665682
NI     14.7431615802     7.0942530436    16.0438708856
NI     15.9712883543     9.2206280722    16.0443779490