88
Step 1 | ATOMIC_POSITIONS (angstrom) | Cartesian Angstrom
Ni      1.2285271350     0.7092904721     8.0000000000
Ni      8.6004271350     0.7092904721     8.0000000000
Ni      2.4570542700     2.8371618884     8.0000000000
Ni      9.8289542700     2.8371618884     8.0000000000
Ni      3.6859500000     4.9656717300     8.0000000000
Ni     11.0578500000     4.9656717300     8.0000000000
Ni      3.6855814050     0.7092904721     8.0000000000
Ni     11.0574814050     0.7092904721     8.0000000000
Ni      4.9141085400     2.8371618884     8.0000000000
Ni     12.2860085400     2.8371618884     8.0000000000
Ni      6.1430042700     4.9656717300     8.0000000000
Ni     13.5149042700     4.9656717300     8.0000000000
Ni      6.1433728650     0.7092904721     8.0000000000
Ni     13.5152728650     0.7092904721     8.0000000000
Ni      7.3719000000     2.8371618884     8.0000000000
Ni     14.7438000000     2.8371618884     8.0000000000
Ni      8.6007957300     4.9656717300     8.0000000000
Ni     15.9726957300     4.9656717300     8.0000000000
Ni      0.0016178909    -0.0009546221    10.0329996843
Ni      7.3736928611    -0.0010816061    10.0327811801
Ni      1.2302612203     2.1268392866    10.0324843766
Ni      8.6021671697     2.1271113602    10.0326087016
Ni      2.4592281637     4.2553048972    10.0325849440
Ni      9.8308786468     4.2552638432    10.0326555884
Ni      2.4585924161    -0.0014521596    10.0324169722
Ni      9.8309020944    -0.0010071661    10.0326106822
Ni      3.6874044754     2.1269403347    10.0331425561
Ni     11.0592936540     2.1268950126    10.0333208939
Ni      4.9164944316     4.2555923730    10.0325348363
Ni     12.2882150872     4.2551675632    10.0326041097
Ni      4.9166500919    -0.0013382400    10.0322044174
Ni     12.2885859193    -0.0009660706    10.0329982477
Ni      6.1453911779     2.1270078447    10.0320699593
Ni     13.5170064221     2.1268252649    10.0330083811
Ni      7.3736632467     4.2555307444    10.0324181707
Ni     14.7461039644     4.2551744910    10.0325882093
Ni      1.2265022912     0.7107871785    12.0690098727
Ni      8.5975241260     0.7089128544    12.0694644605
Ni      2.4554448024     2.8380340350    12.0697363948
Ni      9.8270125181     2.8383881247    12.0705858459
Ni      3.6838199516     4.9666278224    12.0689151787
Ni     11.0566677679     4.9683273280    12.0695870822
Ni      3.6847165332     0.7114461306    12.0710572225
Ni     11.0552221698     0.7097648584    12.0701195512
Ni      4.9125847741     2.8373861342    12.0697465755
Ni     12.2844499696     2.8389879454    12.0700995722
Ni      6.1415661200     4.9660669531    12.0693753814
Ni     13.5125766971     4.9669518642    12.0693366642
Ni      6.1422665643     0.7100553684    12.0695122429
Ni     13.5133047590     0.7104461243    12.0689206043
Ni      7.3695888487     2.8381067292    12.0695970135
Ni     14.7421765365     2.8382275083    12.0698015675
Ni      8.5988876267     4.9667037786    12.0691523679
Ni     15.9708839985     4.9665020170    12.0697287235
Ni      0.0008637338    -0.0006869603    14.0987035271
Ni      7.3723687317    -0.0003816839    14.1340265927
Ni      1.2254291840     2.1275651046    14.0953138664
Ni      8.6031777998     2.1310990724    14.0965818237
Ni      2.4556984049     4.2598914229    14.0942030426
Ni      9.8278763124     4.2525273608    14.0967203471
Ni      2.4556372932    -0.0055952563    14.0946173154
Ni      9.8335375783    -0.0000343828    14.0967551082
Ni      3.6874301037     2.1350910504    14.1020226359
Ni     11.0583491562     2.1273703940    14.0985288710
Ni      4.9180482237     4.2608827642    14.0935993825
Ni     12.2887214857     4.2524257106    14.0966250533
Ni      4.9147256624    -0.0048527208    14.0920283928
Ni     12.2875626599    -0.0007876883    14.0977564808
Ni      6.1463473018     2.1300064641    14.0932291365
Ni     13.5162198418     2.1276335917    14.0975567025
Ni      7.3724028847     4.2565886313    14.0996563710
Ni     14.7455914543     4.2555354566    14.0978215527
O       7.3690175325     0.0020395338    16.0771411411
O       3.6732550921     2.1234833189    16.1026548014
H       4.0219671350     1.2037959387    16.1666474310
H       7.3738376109    -0.0013594001    17.0661649168
H       5.2591517491     2.8539602298    17.1974072953
H       3.7827498246     3.8594479484    17.1946771580
C       4.1572260844     2.8424677682    17.2523446970
O       4.1662705082     0.7709054694    18.4712184290
H       5.1461936432     0.8285712612    18.4804111215
C       3.6875875224     2.1189992367    18.5080588258
H       2.5735564677     2.0357443786    18.5041246897
C       4.1608215382     2.8147285729    19.7703281511
H       3.8167857685     3.8541772021    19.8025556694
H       5.2696475590     2.8024327914    19.8026382584
O       3.6786056123     2.1171730408    20.9194268147
H       4.0226330477     2.5937590228    21.6919099690
