116
Step 1 | ATOMIC_POSITIONS (angstrom) | Cartesian Angstrom
NI      0.0009872020    -0.0000024260    12.0382123380
NI      1.2296369450     2.1280796380    12.0382123380
NI      2.4582866880     4.2561617010    12.0382123380
NI      3.6869364310     6.3842437650    12.0382123380
NI      4.9155861730     8.5123258290    12.0382123380
NI      2.4583643270    -0.0000024260    12.0382123380
NI      3.6870140700     2.1280796380    12.0382123380
NI      4.9156638130     4.2561617010    12.0382123380
NI      6.1443135560     6.3842437650    12.0382123380
NI      7.3729632980     8.5123258290    12.0382123380
NI      4.9156185770    -0.0000024260    12.0382123380
NI      6.1442683200     2.1280796380    12.0382123380
NI      7.3729180630     4.2561617010    12.0382123380
NI      8.6015678060     6.3842437650    12.0382123380
NI      9.8302175480     8.5123258290    12.0382123380
NI      7.3728728270    -0.0000024260    12.0382123380
NI      8.6015225700     2.1280796380    12.0382123380
NI      9.8301723130     4.2561617010    12.0382123380
NI     11.0588220560     6.3842437650    12.0382123380
NI     12.2874717980     8.5123258290    12.0382123380
NI      9.8302499520    -0.0000024260    12.0382123380
NI     11.0588996950     2.1280796380    12.0382123380
NI     12.2875494380     4.2561617010    12.0382123380
NI     13.5161991810     6.3842437650    12.0382123380
NI     14.7448489230     8.5123258290    12.0382123380
NI      2.4582140657     1.4187005543    14.0470947054
NI      3.6867637960     3.5467255904    14.0469894658
NI      4.9154512926     5.6748776573    14.0469152161
NI      6.1438275560     7.8030848094    14.0466411035
NI      7.3727567864     9.9311616197    14.0469521308
NI      4.9154310708     1.4186937524    14.0469573692
NI      6.1442481669     3.5467562154    14.0470882043
NI      7.3729941586     5.6748716423    14.0471373768
NI      8.6015250220     7.8029998527    14.0472292655
NI      9.8300776391     9.9312212149    14.0468027637
NI      7.3729843048     1.4189511426    14.0467332836
NI      8.6014431122     3.5466326322    14.0466732459
NI      9.8302027494     5.6748926349    14.0470935598
NI     11.0587678648     7.8028244541    14.0466621184
NI     12.2871247840     9.9311847046    14.0472537852
NI      9.8301636182     1.4189756958    14.0469445161
NI     11.0590405279     3.5466040753    14.0470227602
NI     12.2873267000     5.6746056293    14.0472119932
NI     13.5159532856     7.8028562728    14.0472069985
NI     14.7448276167     9.9311659242    14.0470602405
NI     12.2876436873     1.4187459501    14.0469296069
NI     13.5162189062     3.5466122922    14.0468978688
NI     14.7450123167     5.6746278189    14.0471265702
NI     15.9740195421     7.8028756441    14.0471036868
NI     17.2025805491     9.9307985963    14.0468800157
NI      1.2295892161     0.7094146584    16.0489997615
NI      2.4582869212     2.8374774022    16.0489149142
NI      3.6870662983     4.9655563218    16.0495241611
NI      4.9159523263     7.0933424904    16.0499173818
NI      6.1441395620     9.2216484637    16.0491504598
NI      3.6869499225     0.7094361833    16.0487114984
NI      4.9159911040     2.8376567632    16.0485009899
NI      6.1454430806     4.9648885274    16.0480843779
NI      7.3738261392     7.0926329997    16.0486838886
NI      8.6015193058     9.2214735557    16.0485968817
NI      6.1442771576     0.7096097815    16.0495782860
NI      7.3728850253     2.8391214476    16.0488128039
NI      8.5999983482     4.9659710626    16.0489663403
NI      9.8299209461     7.0933882893    16.0483437010
NI     11.0589492731     9.2214165255    16.0491812600
NI      8.6012820521     0.7095775180    16.0495598643
NI      9.8295117296     2.8373825940    16.0484189731
NI     11.0583053915     4.9655988246    16.0492716441
NI     12.2872038007     7.0937545252    16.0491067218
NI     13.5159854213     9.2214107644    16.0491281148
NI     11.0588975407     0.7094973559    16.0487142578
NI     12.2874619842     2.8374580224    16.0487562967
NI     13.5162077408     4.9656566312    16.0487796613
NI     14.7445895458     7.0936952772    16.0488659415
NI     15.9733641015     9.2216099901    16.0489557125
NI      0.0011669703    -0.0000985540    18.0589938508
NI      1.2296213624     2.1280091323    18.0587834188
NI      2.4581750301     4.2561145193    18.0587399094
NI      3.6864537932     6.3845125388    18.0588078953
NI      4.9156444652     8.5124599300    18.0588346965
NI      2.4582780362     0.0000423268    18.0594802982
NI      3.6862958492     2.1276727107    18.0590978945
NI      4.9110634645     4.2563000421    18.0572807481
NI      6.1381219923     6.3880511564    18.0547760040
NI      7.3706944147     8.5167713953    18.0554802207
NI      4.9153876657    -0.0002973970    18.0590087655
NI      6.1423138780     2.1239540400    18.0569727620
NI      7.3694521255     4.2500584436    18.0770028378
NI      8.6061252712     6.3992021060    18.0466663618
NI      9.8325250262     8.5166087499    18.0545032072
NI      7.3729689149    -0.0006317667    18.0588066703
NI      8.6036840603     2.1241829335    18.0574890269
NI      9.8382491846     4.2511177655    18.0507038566
NI     11.0638950080     6.3840842378    18.0549388276
NI     12.2875652612     8.5121192118    18.0591472727
NI      9.8303200920     0.0000134519    18.0589810719
NI     11.0594776963     2.1280913606    18.0592906342
NI     12.2872436124     4.2560906704    18.0595990550
NI     13.5158098736     6.3844136786    18.0591323434
NI     14.7446214868     8.5123506559    18.0588578472
O       7.4085591128     4.3102564859    19.9024154385
O       8.6565194235     6.3459327577    19.9738566443
H       8.9818452832     5.3955800138    20.0208973174
H       7.4128551390     4.3195994488    20.8789520870
H      10.2273093737     7.0512920055    21.0517518808
H       8.7508525055     8.0568585128    21.0493343794
C       9.1255319899     7.0420385921    21.1032844968
O       9.1338710780     4.9685922870    22.3271799221
H      10.1135891077     5.0242416319    22.3347173583
C       8.6552947586     6.3169180699    22.3618347193
H       7.5409186526     6.2333927483    22.3585748040
C       9.1280468717     7.0112997912    23.6253081357
H       8.7843882126     8.0510905404    23.6561833630
H      10.2373345022     6.9991223170    23.6564008077
O       8.6465609497     6.3143926237    24.7722146348
H       8.9903172790     6.7906227978    25.5460687195
