88
Step 1 | ATOMIC_POSITIONS (angstrom) | Cartesian Angstrom
Ni      1.2285271350     0.7092904721     8.0000000000
Ni      8.6004271350     0.7092904721     8.0000000000
Ni      2.4570542700     2.8371618884     8.0000000000
Ni      9.8289542700     2.8371618884     8.0000000000
Ni      3.6859500000     4.9656717300     8.0000000000
Ni     11.0578500000     4.9656717300     8.0000000000
Ni      3.6855814050     0.7092904721     8.0000000000
Ni     11.0574814050     0.7092904721     8.0000000000
Ni      4.9141085400     2.8371618884     8.0000000000
Ni     12.2860085400     2.8371618884     8.0000000000
Ni      6.1430042700     4.9656717300     8.0000000000
Ni     13.5149042700     4.9656717300     8.0000000000
Ni      6.1433728650     0.7092904721     8.0000000000
Ni     13.5152728650     0.7092904721     8.0000000000
Ni      7.3719000000     2.8371618884     8.0000000000
Ni     14.7438000000     2.8371618884     8.0000000000
Ni      8.6007957300     4.9656717300     8.0000000000
Ni     15.9726957300     4.9656717300     8.0000000000
Ni      0.0016194792    -0.0009555474    10.0329888361
Ni      7.3736904583    -0.0010802250    10.0327708367
Ni      1.2302633718     2.1268411323    10.0324727469
Ni      8.6021634835     2.1271106891    10.0325985959
Ni      2.4592274313     4.2553020974    10.0325730408
Ni      9.8308770538     4.2552674664    10.0326461026
Ni      2.4585875988    -0.0014467908    10.0324063699
Ni      9.8309077636    -0.0010137638    10.0326003449
Ni      3.6873980631     2.1269436986    10.0331312397
Ni     11.0592999422     2.1268910591    10.0333116401
Ni      4.9164871745     4.2555940309    10.0325240875
Ni     12.2882237102     4.2551660518    10.0325935967
Ni      4.9166427995    -0.0013316315    10.0321935264
Ni     12.2885920661    -0.0009739316    10.0329889917
Ni      6.1453819325     2.1270102980    10.0320585778
Ni     13.5170162739     2.1268235476    10.0329991708
Ni      7.3736551263     4.2555357391    10.0324103418
Ni     14.7461119822     4.2551699559    10.0325783170
Ni      1.2265017437     0.7107908881    12.0690164498
Ni      8.5975233210     0.7089088866    12.0694739563
Ni      2.4554433614     2.8380363276    12.0697419062
Ni      9.8270139089     2.8383872659    12.0705975772
Ni      3.6838171902     4.9666244438    12.0689250638
Ni     11.0566710110     4.9683298823    12.0695959380
Ni      3.6847116839     0.7114524939    12.0710616154
Ni     11.0552267407     0.7097591913    12.0701297485
Ni      4.9125774683     2.8373889891    12.0697523880
Ni     12.2844572234     2.8389866064    12.0701097375
Ni      6.1415586450     4.9660688651    12.0693839398
Ni     13.5125822637     4.9669488339    12.0693455657
Ni      6.1422636831     0.7100580743    12.0695196944
Ni     13.5133090926     0.7104434019    12.0689281517
Ni      7.3695821230     2.8381071512    12.0696063225
Ni     14.7421832678     2.8382265248    12.0698104028
Ni      8.5988843462     4.9667078432    12.0691599030
Ni     15.9708887678     4.9664963777    12.0697383714
Ni      0.0008626713    -0.0006878911    14.0987037036
Ni      7.3723677385    -0.0003808207    14.1340380076
Ni      1.2254299180     2.1275660606    14.0953119576
Ni      8.6031731144     2.1310968992    14.0965924089
Ni      2.4556961496     4.2598928183    14.0941968081
Ni      9.8278759931     4.2525318656    14.0967314527
Ni      2.4556354151    -0.0055908417    14.0946233299
Ni      9.8335388203    -0.0000382699    14.0967611595
Ni      3.6874268361     2.1350889764    14.1020344725
Ni     11.0583522691     2.1273680532    14.0985354317
Ni      4.9180452163     4.2608852309    14.0936013700
Ni     12.2887256013     4.2524269116    14.0966311912
Ni      4.9147236343    -0.0048470330    14.0920361001
Ni     12.2875668540    -0.0007942627    14.0977599762
Ni      6.1463429049     2.1300049459    14.0932362535
Ni     13.5162269649     2.1276332298    14.0975603864
Ni      7.3723990997     4.2565901597    14.0996671513
Ni     14.7455955093     4.2555331928    14.0978228582
O       7.3690165015     0.0020400688    16.0771407823
O       3.6732571203     2.1234823373    16.1026488087
H       4.0219671862     1.2037955570    16.1666455366
H       7.3738373422    -0.0013593780    17.0661641158
H       5.2591509572     2.8539600570    17.1974053226
H       3.7827503607     3.8594475585    17.1946751402
C       4.1572260583     2.8424660094    17.2523434570
O       4.1662688117     0.7709092029    18.4712162566
H       5.1461952677     0.8285720838    18.4804094161
C       3.6875862622     2.1189969297    18.5080569374
H       2.5735620806     2.0357442891    18.5041230657
C       4.1608209706     2.8147265926    19.7703263003
H       3.8167864992     3.8541766744    19.8025535059
H       5.2696466398     2.8024328329    19.8026359595
O       3.6786081036     2.1171752837    20.9194277899
H       4.0226335737     2.5937600001    21.6919100994
88
Step 2 | ATOMIC_POSITIONS (angstrom) | Cartesian Angstrom
Ni      1.2285271350     0.7092904721     8.0000000000
Ni      8.6004271350     0.7092904721     8.0000000000
Ni      2.4570542700     2.8371618884     8.0000000000
Ni      9.8289542700     2.8371618884     8.0000000000
Ni      3.6859500000     4.9656717300     8.0000000000
Ni     11.0578500000     4.9656717300     8.0000000000
Ni      3.6855814050     0.7092904721     8.0000000000
Ni     11.0574814050     0.7092904721     8.0000000000
Ni      4.9141085400     2.8371618884     8.0000000000
Ni     12.2860085400     2.8371618884     8.0000000000
Ni      6.1430042700     4.9656717300     8.0000000000
Ni     13.5149042700     4.9656717300     8.0000000000
Ni      6.1433728650     0.7092904721     8.0000000000
Ni     13.5152728650     0.7092904721     8.0000000000
Ni      7.3719000000     2.8371618884     8.0000000000
Ni     14.7438000000     2.8371618884     8.0000000000
Ni      8.6007957300     4.9656717300     8.0000000000
Ni     15.9726957300     4.9656717300     8.0000000000
Ni      0.0053605770    -0.0031731667    10.0309378891
Ni      7.3778535510    -0.0035853325    10.0304438516
Ni      1.2343387910     2.1244372448    10.0293119532
Ni      8.6062765269     2.1252586473    10.0298711648
Ni      2.4634239433     4.2527783553    10.0296358985
Ni      9.8346084548     4.2526482368    10.0299804930
Ni      2.4622840499    -0.0046298122    10.0292188143
Ni      9.8353873489    -0.0032849607    10.0297366655
Ni      3.6916031731     2.1247340065    10.0314672789
Ni     11.0635160982     2.1245965231    10.0321403661
Ni      4.9210607720     4.2536750363    10.0294664199
Ni     12.2924110956     4.2523661252    10.0297112939
Ni      4.9208063571    -0.0042907367    10.0284950091
Ni     12.2928020340    -0.0032189233    10.0310054935
Ni      6.1499901602     2.1248955361    10.0279769710
Ni     13.5210072866     2.1244332651    10.0310453741
Ni      7.3769592277     4.2535203672    10.0291350389
Ni     14.7505684871     4.2524045297    10.0296451454
Ni      1.2218905156     0.7141446929    12.0702685293
Ni      8.5902490069     0.7076965839    12.0732041761
Ni      2.4517537875     2.8399920783    12.0729321639
Ni      9.8225834886     2.8411397489    12.0754295815
Ni      3.6789304655     4.9689244585    12.0698334549
Ni     11.0539469114     4.9751492457    12.0735948826
Ni      3.6824760442     0.7164827720    12.0770569854
Ni     11.0500325795     0.7110526752    12.0738961657
Ni      4.9089018945     2.8379038455    12.0726735035
Ni     12.2807026143     2.8430685899    12.0738142497
Ni      6.1383986066     4.9671588449    12.0710515915
Ni     13.5072558527     4.9698943628    12.0713552832
Ni      6.1404888605     0.7113813863    12.0734196132
Ni     13.5087603982     0.7130896609    12.0701922236
Ni      7.3644752821     2.8403892144    12.0719613531
Ni     14.7383373547     2.8407635742    12.0727129382
Ni      8.5944238648     4.9689112715    12.0704351165
Ni     15.9665474463     4.9685146939    12.0724063200
Ni      0.0027013650    -0.0020123774    14.0915269316
Ni      7.3735836785    -0.0013270960    14.2045172748
Ni      1.2190231896     2.1267398830    14.0803611929
Ni      8.6094155829     2.1378798433    14.0834777786
Ni      2.4520100484     4.2677248395    14.0767662531
Ni      9.8250371032     4.2439931142    14.0839480955
Ni      2.4529603342    -0.0171309004    14.0779588073
Ni      9.8437686338    -0.0003100939    14.0847748722
Ni      3.6915437152     2.1509085255    14.1032750816
Ni     11.0604800570     2.1261593379    14.0908960902
Ni      4.9257678883     4.2704708875    14.0747926432
Ni     12.2941254830     4.2436798453    14.0843608977
Ni      4.9143375680    -0.0150367657    14.0695684159
Ni     12.2895230212    -0.0023830801    14.0882674723
Ni      6.1528126972     2.1346865001    14.0734185171
Ni     13.5183085708     2.1268729088    14.0876399519
Ni      7.3727932604     4.2570415202    14.0946024884
Ni     14.7487739854     4.2536444514    14.0885728612
O       7.3619591267     0.0070584212    16.0486935293
O       3.6521714820     2.1047862348    16.1131212140
H       4.0183116318     1.1869271845    16.1815778941
H       7.3786412510    -0.0047476650    17.0269306502
H       5.2677993408     2.8617781562    17.2048263156
H       3.7766405772     3.8711462030    17.1851936675
C       4.1629741401     2.8528965295    17.2596072874
O       4.1673359559     0.7524051841    18.4585087752
H       5.1413899655     0.8223826026    18.4830375361
C       3.6998942863     2.1151337587    18.5194227684
H       2.5851587543     2.0370597613    18.5045130359
C       4.1610668166     2.8186827732    19.7850910398
H       3.8167784012     3.8713870217    19.7907270309
H       5.2779747314     2.8103081146    19.7867937166
O       3.6667750005     2.1083590644    20.9265113750
H       4.0186519752     2.5892019715    21.6934895741
