88
Step 1 | ATOMIC_POSITIONS (angstrom) | Cartesian Angstrom
Ni      1.2285271350     0.7092904721     8.0000000000
Ni      8.6004271350     0.7092904721     8.0000000000
Ni      2.4570542700     2.8371618884     8.0000000000
Ni      9.8289542700     2.8371618884     8.0000000000
Ni      3.6859500000     4.9656717300     8.0000000000
Ni     11.0578500000     4.9656717300     8.0000000000
Ni      3.6855814050     0.7092904721     8.0000000000
Ni     11.0574814050     0.7092904721     8.0000000000
Ni      4.9141085400     2.8371618884     8.0000000000
Ni     12.2860085400     2.8371618884     8.0000000000
Ni      6.1430042700     4.9656717300     8.0000000000
Ni     13.5149042700     4.9656717300     8.0000000000
Ni      6.1433728650     0.7092904721     8.0000000000
Ni     13.5152728650     0.7092904721     8.0000000000
Ni      7.3719000000     2.8371618884     8.0000000000
Ni     14.7438000000     2.8371618884     8.0000000000
Ni      8.6007957300     4.9656717300     8.0000000000
Ni     15.9726957300     4.9656717300     8.0000000000
Ni      0.0016194792    -0.0009555474    10.0329888361
Ni      7.3736904583    -0.0010802250    10.0327708367
Ni      1.2302633718     2.1268411323    10.0324727469
Ni      8.6021634835     2.1271106891    10.0325985959
Ni      2.4592274313     4.2553020974    10.0325730408
Ni      9.8308770538     4.2552674664    10.0326461026
Ni      2.4585875988    -0.0014467908    10.0324063699
Ni      9.8309077636    -0.0010137638    10.0326003449
Ni      3.6873980631     2.1269436986    10.0331312397
Ni     11.0592999422     2.1268910591    10.0333116401
Ni      4.9164871745     4.2555940309    10.0325240875
Ni     12.2882237102     4.2551660518    10.0325935967
Ni      4.9166427995    -0.0013316315    10.0321935264
Ni     12.2885920661    -0.0009739316    10.0329889917
Ni      6.1453819325     2.1270102980    10.0320585778
Ni     13.5170162739     2.1268235476    10.0329991708
Ni      7.3736551263     4.2555357391    10.0324103418
Ni     14.7461119822     4.2551699559    10.0325783170
Ni      1.2265017437     0.7107908881    12.0690164498
Ni      8.5975233210     0.7089088866    12.0694739563
Ni      2.4554433614     2.8380363276    12.0697419062
Ni      9.8270139089     2.8383872659    12.0705975772
Ni      3.6838171902     4.9666244438    12.0689250638
Ni     11.0566710110     4.9683298823    12.0695959380
Ni      3.6847116839     0.7114524939    12.0710616154
Ni     11.0552267407     0.7097591913    12.0701297485
Ni      4.9125774683     2.8373889891    12.0697523880
Ni     12.2844572234     2.8389866064    12.0701097375
Ni      6.1415586450     4.9660688651    12.0693839398
Ni     13.5125822637     4.9669488339    12.0693455657
Ni      6.1422636831     0.7100580743    12.0695196944
Ni     13.5133090926     0.7104434019    12.0689281517
Ni      7.3695821230     2.8381071512    12.0696063225
Ni     14.7421832678     2.8382265248    12.0698104028
Ni      8.5988843462     4.9667078432    12.0691599030
Ni     15.9708887678     4.9664963777    12.0697383714
Ni      0.0008626713    -0.0006878911    14.0987037036
Ni      7.3723677385    -0.0003808207    14.1340380076
Ni      1.2254299180     2.1275660606    14.0953119576
Ni      8.6031731144     2.1310968992    14.0965924089
Ni      2.4556961496     4.2598928183    14.0941968081
Ni      9.8278759931     4.2525318656    14.0967314527
Ni      2.4556354151    -0.0055908417    14.0946233299
Ni      9.8335388203    -0.0000382699    14.0967611595
Ni      3.6874268361     2.1350889764    14.1020344725
Ni     11.0583522691     2.1273680532    14.0985354317
Ni      4.9180452163     4.2608852309    14.0936013700
Ni     12.2887256013     4.2524269116    14.0966311912
Ni      4.9147236343    -0.0048470330    14.0920361001
Ni     12.2875668540    -0.0007942627    14.0977599762
Ni      6.1463429049     2.1300049459    14.0932362535
Ni     13.5162269649     2.1276332298    14.0975603864
Ni      7.3723990997     4.2565901597    14.0996671513
Ni     14.7455955093     4.2555331928    14.0978228582
O       7.3690165015     0.0020400688    16.0771407823
O       3.6732571203     2.1234823373    16.1026488087
H       4.0219671862     1.2037955570    16.1666455366
H       7.3738373422    -0.0013593780    17.0661641158
H       5.2591509572     2.8539600570    17.1974053226
H       3.7827503607     3.8594475585    17.1946751402
C       4.1572260583     2.8424660094    17.2523434570
O       4.1662688117     0.7709092029    18.4712162566
H       5.1461952677     0.8285720838    18.4804094161
C       3.6875862622     2.1189969297    18.5080569374
H       2.5735620806     2.0357442891    18.5041230657
C       4.1608209706     2.8147265926    19.7703263003
H       3.8167864992     3.8541766744    19.8025535059
H       5.2696466398     2.8024328329    19.8026359595
O       3.6786081036     2.1171752837    20.9194277899
H       4.0226335737     2.5937600001    21.6919100994
88
Step 2 | ATOMIC_POSITIONS (angstrom) | Cartesian Angstrom
Ni      1.2285271350     0.7092904721     8.0000000000
Ni      8.6004271350     0.7092904721     8.0000000000
Ni      2.4570542700     2.8371618884     8.0000000000
Ni      9.8289542700     2.8371618884     8.0000000000
Ni      3.6859500000     4.9656717300     8.0000000000
Ni     11.0578500000     4.9656717300     8.0000000000
Ni      3.6855814050     0.7092904721     8.0000000000
Ni     11.0574814050     0.7092904721     8.0000000000
Ni      4.9141085400     2.8371618884     8.0000000000
Ni     12.2860085400     2.8371618884     8.0000000000
Ni      6.1430042700     4.9656717300     8.0000000000
Ni     13.5149042700     4.9656717300     8.0000000000
Ni      6.1433728650     0.7092904721     8.0000000000
Ni     13.5152728650     0.7092904721     8.0000000000
Ni      7.3719000000     2.8371618884     8.0000000000
Ni     14.7438000000     2.8371618884     8.0000000000
Ni      8.6007957300     4.9656717300     8.0000000000
Ni     15.9726957300     4.9656717300     8.0000000000
Ni      0.0053605770    -0.0031731667    10.0309378891
Ni      7.3778535510    -0.0035853325    10.0304438516
Ni      1.2343387910     2.1244372448    10.0293119532
Ni      8.6062765269     2.1252586473    10.0298711648
Ni      2.4634239433     4.2527783553    10.0296358985
Ni      9.8346084548     4.2526482368    10.0299804930
Ni      2.4622840499    -0.0046298122    10.0292188143
Ni      9.8353873489    -0.0032849607    10.0297366655
Ni      3.6916031731     2.1247340065    10.0314672789
Ni     11.0635160982     2.1245965231    10.0321403661
Ni      4.9210607720     4.2536750363    10.0294664199
Ni     12.2924110956     4.2523661252    10.0297112939
Ni      4.9208063571    -0.0042907367    10.0284950091
Ni     12.2928020340    -0.0032189233    10.0310054935
Ni      6.1499901602     2.1248955361    10.0279769710
Ni     13.5210072866     2.1244332651    10.0310453741
Ni      7.3769592277     4.2535203672    10.0291350389
Ni     14.7505684871     4.2524045297    10.0296451454
Ni      1.2218905156     0.7141446929    12.0702685293
Ni      8.5902490069     0.7076965839    12.0732041761
Ni      2.4517537875     2.8399920783    12.0729321639
Ni      9.8225834886     2.8411397489    12.0754295815
Ni      3.6789304655     4.9689244585    12.0698334549
Ni     11.0539469114     4.9751492457    12.0735948826
Ni      3.6824760442     0.7164827720    12.0770569854
Ni     11.0500325795     0.7110526752    12.0738961657
Ni      4.9089018945     2.8379038455    12.0726735035
Ni     12.2807026143     2.8430685899    12.0738142497
Ni      6.1383986066     4.9671588449    12.0710515915
Ni     13.5072558527     4.9698943628    12.0713552832
Ni      6.1404888605     0.7113813863    12.0734196132
Ni     13.5087603982     0.7130896609    12.0701922236
Ni      7.3644752821     2.8403892144    12.0719613531
Ni     14.7383373547     2.8407635742    12.0727129382
Ni      8.5944238648     4.9689112715    12.0704351165
Ni     15.9665474463     4.9685146939    12.0724063200
Ni      0.0027013650    -0.0020123774    14.0915269316
Ni      7.3735836785    -0.0013270960    14.2045172748
Ni      1.2190231896     2.1267398830    14.0803611929
Ni      8.6094155829     2.1378798433    14.0834777786
Ni      2.4520100484     4.2677248395    14.0767662531
Ni      9.8250371032     4.2439931142    14.0839480955
Ni      2.4529603342    -0.0171309004    14.0779588073
Ni      9.8437686338    -0.0003100939    14.0847748722
Ni      3.6915437152     2.1509085255    14.1032750816
Ni     11.0604800570     2.1261593379    14.0908960902
Ni      4.9257678883     4.2704708875    14.0747926432
Ni     12.2941254830     4.2436798453    14.0843608977
Ni      4.9143375680    -0.0150367657    14.0695684159
Ni     12.2895230212    -0.0023830801    14.0882674723
Ni      6.1528126972     2.1346865001    14.0734185171
Ni     13.5183085708     2.1268729088    14.0876399519
Ni      7.3727932604     4.2570415202    14.0946024884
Ni     14.7487739854     4.2536444514    14.0885728612
O       7.3619591267     0.0070584212    16.0486935293
O       3.6521714820     2.1047862348    16.1131212140
H       4.0183116318     1.1869271845    16.1815778941
H       7.3786412510    -0.0047476650    17.0269306502
H       5.2677993408     2.8617781562    17.2048263156
H       3.7766405772     3.8711462030    17.1851936675
C       4.1629741401     2.8528965295    17.2596072874
O       4.1673359559     0.7524051841    18.4585087752
H       5.1413899655     0.8223826026    18.4830375361
C       3.6998942863     2.1151337587    18.5194227684
H       2.5851587543     2.0370597613    18.5045130359
C       4.1610668166     2.8186827732    19.7850910398
H       3.8167784012     3.8713870217    19.7907270309
H       5.2779747314     2.8103081146    19.7867937166
O       3.6667750005     2.1083590644    20.9265113750
H       4.0186519752     2.5892019715    21.6934895741
88
Step 3 | ATOMIC_POSITIONS (angstrom) | Cartesian Angstrom
Ni      1.2285271350     0.7092904721     8.0000000000
Ni      8.6004271350     0.7092904721     8.0000000000
Ni      2.4570542700     2.8371618884     8.0000000000
Ni      9.8289542700     2.8371618884     8.0000000000
Ni      3.6859500000     4.9656717300     8.0000000000
Ni     11.0578500000     4.9656717300     8.0000000000
Ni      3.6855814050     0.7092904721     8.0000000000
Ni     11.0574814050     0.7092904721     8.0000000000
Ni      4.9141085400     2.8371618884     8.0000000000
Ni     12.2860085400     2.8371618884     8.0000000000
Ni      6.1430042700     4.9656717300     8.0000000000
Ni     13.5149042700     4.9656717300     8.0000000000
Ni      6.1433728650     0.7092904721     8.0000000000
Ni     13.5152728650     0.7092904721     8.0000000000
Ni      7.3719000000     2.8371618884     8.0000000000
Ni     14.7438000000     2.8371618884     8.0000000000
Ni      8.6007957300     4.9656717300     8.0000000000
Ni     15.9726957300     4.9656717300     8.0000000000
Ni      0.0099566797    -0.0059161027    10.0290176965
Ni      7.3830206105    -0.0066729733    10.0288278225
Ni      1.2395054567     2.1214512240    10.0262842587
Ni      8.6116026244     2.1226390954    10.0278011675
Ni      2.4686133831     4.2495969816    10.0268425353
Ni      9.8396452716     4.2493481305    10.0278554366
Ni      2.4672193437    -0.0080370206    10.0264512112
Ni      9.8407747259    -0.0058999190    10.0271663347
Ni      3.6967366639     2.1218603521    10.0301696018
Ni     11.0687562349     2.1216811941    10.0316551328
Ni      4.9264231284     4.2510542874    10.0264467900
Ni     12.2973449537     4.2489794181    10.0271161011
Ni      4.9259537335    -0.0075230068    10.0251231497
Ni     12.2978270977    -0.0059747195    10.0294015902
Ni      6.1554920340     2.1219142831    10.0239561805
Ni     13.5258317378     2.1215748745    10.0294993720
Ni      7.3813050753     4.2508669076    10.0259987894
Ni     14.7559361678     4.2491066096    10.0268986829
Ni      1.2163316448     0.7179061317    12.0686162145
Ni      8.5803688952     0.7056315522    12.0781622734
Ni      2.4474114368     2.8422097552    12.0745872173
Ni      9.8176032869     2.8441245643    12.0775761239
Ni      3.6730590221     4.9720993866    12.0673831542
Ni     11.0506022172     4.9847018489    12.0788315098
Ni      3.6791059513     0.7228523395    12.0812000770
Ni     11.0437588208     0.7133142160    12.0751011459
Ni      4.9038699252     2.8384617645    12.0730601187
Ni     12.2755833701     2.8476068333    12.0748965631
Ni      6.1351317447     4.9689299507    12.0685252465
Ni     13.5009461895     4.9734274639    12.0706900593
Ni      6.1400485593     0.7120112971    12.0784897304
Ni     13.5031754120     0.7162778935    12.0692523990
Ni      7.3590263144     2.8435176177    12.0708276310
Ni     14.7332468408     2.8441377318    12.0725352822
Ni      8.5888791205     4.9709922504    12.0678438423
Ni     15.9606688323     4.9713512514    12.0717068841
Ni      0.0044554015    -0.0028323551    14.0839354972
Ni      7.3758664401    -0.0029817947    14.2741084888
Ni      1.2134201880     2.1254403391    14.0636821061
Ni      8.6163752205     2.1438555237    14.0663110750
Ni      2.4484523571     4.2763727270    14.0575255805
Ni      9.8231921908     4.2351109062    14.0671745870
Ni      2.4513232923    -0.0270652856    14.0588490269
Ni      9.8549937950    -0.0013365716    14.0707850270
Ni      3.6958434974     2.1677070225    14.1090394166
Ni     11.0634731905     2.1245089848    14.0826371209
Ni      4.9334171870     4.2795720040    14.0539017262
Ni     12.3006699498     4.2344077883    14.0700922102
Ni      4.9139053268    -0.0246615277    14.0439836286
Ni     12.2920612842    -0.0035711255    14.0775809339
Ni      6.1595841415     2.1396074496    14.0508300649
Ni     13.5205022852     2.1253500254    14.0765399017
Ni      7.3735644801     4.2574223736    14.0893644733
Ni     14.7522200030     4.2515739687    14.0784459423
O       7.3512576182     0.0147345865    16.0245696488
O       3.6372462167     2.0851767773    16.1351331115
H       4.0100971004     1.1730556689    16.2012024990
H       7.3860084926    -0.0099993423    16.9849254908
H       5.2744828994     2.8724123164    17.2100757996
H       3.7711937167     3.8791838898    17.1745380451
C       4.1637836537     2.8525504850    17.2625576922
O       4.1643544970     0.7463881658    18.4462910511
H       5.1432416445     0.8102305252    18.4866984026
C       3.7041092818     2.1123241491    18.5249948675
H       2.6028579467     2.0382902848    18.5063295635
C       4.1644233053     2.8198729986    19.7928880478
H       3.8190423504     3.8801566862    19.7791181643
H       5.2809322312     2.8203632096    19.7750082711
O       3.6607434981     2.1096043623    20.9309514634
H       4.0116546169     2.5807019744    21.6990117604
88
Step 4 | ATOMIC_POSITIONS (angstrom) | Cartesian Angstrom
Ni      1.2285271350     0.7092904721     8.0000000000
Ni      8.6004271350     0.7092904721     8.0000000000
Ni      2.4570542700     2.8371618884     8.0000000000
Ni      9.8289542700     2.8371618884     8.0000000000
Ni      3.6859500000     4.9656717300     8.0000000000
Ni     11.0578500000     4.9656717300     8.0000000000
Ni      3.6855814050     0.7092904721     8.0000000000
Ni     11.0574814050     0.7092904721     8.0000000000
Ni      4.9141085400     2.8371618884     8.0000000000
Ni     12.2860085400     2.8371618884     8.0000000000
Ni      6.1430042700     4.9656717300     8.0000000000
Ni     13.5149042700     4.9656717300     8.0000000000
Ni      6.1433728650     0.7092904721     8.0000000000
Ni     13.5152728650     0.7092904721     8.0000000000
Ni      7.3719000000     2.8371618884     8.0000000000
Ni     14.7438000000     2.8371618884     8.0000000000
Ni      8.6007957300     4.9656717300     8.0000000000
Ni     15.9726957300     4.9656717300     8.0000000000
Ni      0.0113574020    -0.0067436596    10.0287201434
Ni      7.3845954576    -0.0076006718    10.0292293716
Ni      1.2411909144     2.1205624638    10.0259183370
Ni      8.6133961046     2.1214831353    10.0281003546
Ni      2.4701721256     4.2485417590    10.0264993957
Ni      9.8415874401     4.2483559264    10.0280305334
Ni      2.4690277103    -0.0086363555    10.0263577245
Ni      9.8422207438    -0.0065519951    10.0270682227
Ni      3.6982236299     2.1208954810    10.0302232889
Ni     11.0703815372     2.1207273085    10.0320063869
Ni      4.9278306516     4.2500340086    10.0259553441
Ni     12.2986240745     4.2480749921    10.0270139926
Ni      4.9275836077    -0.0081107671    10.0250024868
Ni     12.2992224224    -0.0067976307    10.0293724601
Ni      6.1569930129     2.1206448129    10.0235053713
Ni     13.5272275143     2.1207730982    10.0295131140
Ni      7.3828765290     4.2498935748    10.0255134098
Ni     14.7574269551     4.2482076543    10.0265411155
Ni      1.2146961810     0.7187007323    12.0654719948
Ni      8.5771527744     0.7048745433    12.0793655111
Ni      2.4463582897     2.8427339183    12.0733751956
Ni      9.8167294733     2.8445697872    12.0745705079
Ni      3.6714601400     4.9733689225    12.0637226292
Ni     11.0495568152     4.9879044238    12.0800741843
Ni      3.6776741821     0.7250543013    12.0797679680
Ni     11.0419728383     0.7145691064    12.0725205498
Ni      4.9018574745     2.8384935862    12.0706662742
Ni     12.2736282999     2.8485557719    12.0722462409
Ni      6.1346928519     4.9697632189    12.0639998089
Ni     13.4993438861     4.9743515482    12.0678613646
Ni      6.1409062313     0.7116479780    12.0794876240
Ni     13.5015704794     0.7171535311    12.0669280829
Ni      7.3580876203     2.8447575762    12.0669892760
Ni     14.7314300398     2.8453417867    12.0694128058
Ni      8.5871873560     4.9710995685    12.0635069061
Ni     15.9584594422     4.9724948904    12.0682084875
Ni      0.0045995818    -0.0024018543    14.0825199830
Ni      7.3777894073    -0.0043136898    14.2691276558
Ni      1.2137207795     2.1248457922    14.0601573188
Ni      8.6176481396     2.1435665549    14.0607631263
Ni      2.4482805274     4.2780572124    14.0536934018
Ni      9.8240077616     4.2340751296    14.0617032526
Ni      2.4521908466    -0.0263496858    14.0543403380
Ni      9.8571398481    -0.0023279793    14.0673559989
Ni      3.6963211970     2.1704552501    14.1141915662
Ni     11.0646582057     2.1238885510    14.0810735252
Ni      4.9340316512     4.2799197889    14.0495199225
Ni     12.3025942774     4.2329984515    14.0666498182
Ni      4.9137937278    -0.0250045826    14.0383678499
Ni     12.2928938354    -0.0033118228    14.0751533257
Ni      6.1604659337     2.1404249818    14.0457716062
Ni     13.5209034464     2.1244733710    14.0740802128
Ni      7.3740348465     4.2573923221    14.0884716845
Ni     14.7528481490     4.2511666125    14.0763471756
O       7.3449081097     0.0192890854    16.0342239599
O       3.6379288778     2.0826053561    16.1421854950
H       4.0059837307     1.1708227117    16.2089550799
H       7.3903641755    -0.0131081028    16.9820874129
H       5.2712436567     2.8757302393    17.2092542436
H       3.7712765925     3.8747375596    17.1721131813
C       4.1630723966     2.8492413339    17.2610139261
O       4.1700347774     0.7520356747    18.4453127473
H       5.1401602085     0.8035347017    18.4879998440
C       3.7030533995     2.1147792623    18.5234124795
H       2.6054623290     2.0383194607    18.5077465973
C       4.1665933241     2.8192849089    19.7885817696
H       3.8209910153     3.8752587244    19.7773796211
H       5.2784335751     2.8232574231    19.7764712180
O       3.6622189029     2.1141479503    20.9261016407
H       4.0100733715     2.5789306449    21.7059750703
88
Step 5 | ATOMIC_POSITIONS (angstrom) | Cartesian Angstrom
Ni      1.2285271350     0.7092904721     8.0000000000
Ni      8.6004271350     0.7092904721     8.0000000000
Ni      2.4570542700     2.8371618884     8.0000000000
Ni      9.8289542700     2.8371618884     8.0000000000
Ni      3.6859500000     4.9656717300     8.0000000000
Ni     11.0578500000     4.9656717300     8.0000000000
Ni      3.6855814050     0.7092904721     8.0000000000
Ni     11.0574814050     0.7092904721     8.0000000000
Ni      4.9141085400     2.8371618884     8.0000000000
Ni     12.2860085400     2.8371618884     8.0000000000
Ni      6.1430042700     4.9656717300     8.0000000000
Ni     13.5149042700     4.9656717300     8.0000000000
Ni      6.1433728650     0.7092904721     8.0000000000
Ni     13.5152728650     0.7092904721     8.0000000000
Ni      7.3719000000     2.8371618884     8.0000000000
Ni     14.7438000000     2.8371618884     8.0000000000
Ni      8.6007957300     4.9656717300     8.0000000000
Ni     15.9726957300     4.9656717300     8.0000000000
Ni      0.0134079986    -0.0079358802    10.0281037745
Ni      7.3868922412    -0.0089581132    10.0296793768
Ni      1.2436511416     2.1192944353    10.0252388829
Ni      8.6160055934     2.1197280946    10.0283768098
Ni      2.4724248019     4.2469753733    10.0258457073
Ni      9.8444752854     4.2469482789    10.0281244885
Ni      2.4716953898    -0.0095195517    10.0260362565
Ni      9.8442884294    -0.0075109062    10.0268018170
Ni      3.7003911148     2.1195016452    10.0301478611
Ni     11.0727652121     2.1193293275    10.0322551515
Ni      4.9299183652     4.2485179116    10.0250705479
Ni     12.3004751802     4.2467936517    10.0267446952
Ni      4.9300076509    -0.0089436852    10.0247292632
Ni     12.3012692235    -0.0079982000    10.0291236176
Ni      6.1591863164     2.1187504696    10.0227507922
Ni     13.5292777205     2.1195961868    10.0293336934
Ni      7.3852034035     4.2484451133    10.0245375471
Ni     14.7595776069     4.2468997647    10.0258079817
Ni      1.2122760856     0.7198615184    12.0609324231
Ni      8.5727175874     0.7039681270    12.0809236538
Ni      2.4448586835     2.8435364143    12.0717895718
Ni      9.8155042235     2.8452020521    12.0701085079
Ni      3.6691506970     4.9752157096    12.0584720493
Ni     11.0479804546     4.9922438395    12.0816844128
Ni      3.6756607386     0.7283021761    12.0777289018
Ni     11.0393437651     0.7163813466    12.0688046021
Ni      4.8989112029     2.8385286115    12.0673247345
Ni     12.2707930820     2.8499684035    12.0684343075
Ni      6.1340055409     4.9709590179    12.0576218547
Ni     13.4970812326     4.9756465148    12.0637447096
Ni      6.1419450892     0.7112493604    12.0807492983
Ni     13.4992529081     0.7184260143    12.0635777370
Ni      7.3566499389     2.8465705912    12.0614298107
Ni     14.7288033755     2.8470761519    12.0649659138
Ni      8.5847213469     4.9713517637    12.0572720157
Ni     15.9552690172     4.9741450176    12.0632113830
Ni      0.0048789086    -0.0017882199    14.0802691217
Ni      7.3808417756    -0.0064182548    14.2666011297
Ni      1.2142132470     2.1240089133    14.0548999389
Ni      8.6194712617     2.1431057415    14.0527431133
Ni      2.4480664272     4.2804907293    14.0479918028
Ni      9.8252042266     4.2326439826    14.0537780905
Ni      2.4534112911    -0.0253225056    14.0475850472
Ni      9.8602091271    -0.0037817172    14.0623950023
Ni      3.6969695782     2.1743729355    14.1216552297
Ni     11.0663691940     2.1229962707    14.0786409046
Ni      4.9349455285     4.2805106374    14.0429056061
Ni     12.3053770768     4.2309896438    14.0616695800
Ni      4.9136513810    -0.0255066050    14.0302567313
Ni     12.2941115337    -0.0029689588    14.0714555398
Ni      6.1617814077     2.1416240055    14.0384519657
Ni     13.5215539377     2.1232365679    14.0703344876
Ni      7.3746920052     4.2574162804    14.0868910693
Ni     14.7538122602     4.2505450693    14.0730922022
O       7.3340565923     0.0270438778    16.0363350026
O       3.6381982188     2.0775309273    16.1504181837
H       3.9998755496     1.1675835011    16.2207389173
H       7.3979413903    -0.0184967845    16.9849831769
H       5.2670274864     2.8804334905    17.2080511346
H       3.7705225397     3.8698040450    17.1683931129
C       4.1631357540     2.8448568225    17.2593333453
O       4.1726937962     0.7583488892    18.4433401443
H       5.1406984435     0.7946427363    18.4902843982
C       3.7016043568     2.1172826878    18.5214986080
H       2.6095614208     2.0383603810    18.5097529258
C       4.1705261429     2.8188006898    19.7842566164
H       3.8232139816     3.8703246353    19.7743363168
H       5.2758988640     2.8274562826    19.7780136621
O       3.6645127939     2.1208248916    20.9229481253
H       4.0066883154     2.5749655773    21.7123754159
88
Step 6 | ATOMIC_POSITIONS (angstrom) | Cartesian Angstrom
Ni      1.2285271350     0.7092904721     8.0000000000
Ni      8.6004271350     0.7092904721     8.0000000000
Ni      2.4570542700     2.8371618884     8.0000000000
Ni      9.8289542700     2.8371618884     8.0000000000
Ni      3.6859500000     4.9656717300     8.0000000000
Ni     11.0578500000     4.9656717300     8.0000000000
Ni      3.6855814050     0.7092904721     8.0000000000
Ni     11.0574814050     0.7092904721     8.0000000000
Ni      4.9141085400     2.8371618884     8.0000000000
Ni     12.2860085400     2.8371618884     8.0000000000
Ni      6.1430042700     4.9656717300     8.0000000000
Ni     13.5149042700     4.9656717300     8.0000000000
Ni      6.1433728650     0.7092904721     8.0000000000
Ni     13.5152728650     0.7092904721     8.0000000000
Ni      7.3719000000     2.8371618884     8.0000000000
Ni     14.7438000000     2.8371618884     8.0000000000
Ni      8.6007957300     4.9656717300     8.0000000000
Ni     15.9726957300     4.9656717300     8.0000000000
Ni      0.0161243887    -0.0094883979    10.0269670349
Ni      7.3899095742    -0.0107467126    10.0300497470
Ni      1.2468978216     2.1176680269    10.0240836183
Ni      8.6194171102     2.1173322775    10.0284623584
Ni      2.4753642425     4.2448721927    10.0247095551
Ni      9.8483341507     4.2451566585    10.0279706124
Ni      2.4752427890    -0.0107102524    10.0252703429
Ni      9.8469494918    -0.0087879729    10.0262458510
Ni      3.7032360090     2.1176975118    10.0297602886
Ni     11.0759236584     2.1174793774    10.0321471418
Ni      4.9327252844     4.2464873943    10.0235986394
Ni     12.3028929426     4.2451634857    10.0261886505
Ni      4.9332606952    -0.0100113341    10.0241705507
Ni     12.3039899864    -0.0095774170    10.0284567389
Ni      6.1620766361     2.1162100358    10.0215675158
Ni     13.5320005259     2.1180278131    10.0287682660
Ni      7.3883088215     4.2465029669    10.0227833256
Ni     14.7623780561     4.2451803768    10.0244859250
Ni      1.2090356123     0.7214058855    12.0550687882
Ni      8.5673035012     0.7030647031    12.0826343671
Ni      2.4429317751     2.8446594790    12.0700046449
Ni      9.8139661896     2.8460127005    12.0641951560
Ni      3.6661372195     4.9776329656    12.0517495624
Ni     11.0458560492     4.9974246513    12.0834517950
Ni      3.6731416797     0.7326005252    12.0751470394
Ni     11.0358499037     0.7187249313    12.0640687422
Ni      4.8950471197     2.8385671969    12.0632114413
Ni     12.2670979024     2.8518755731    12.0635825783
Ni      6.1330243466     4.9724907169    12.0496345474
Ni     13.4941954663     4.9772826772    12.0584199542
Ni      6.1429791523     0.7109335851    12.0820724358
Ni     13.4962227209     0.7201021287    12.0592707908
Ni      7.3546579524     2.8489378090    12.0542705447
Ni     14.7253821553     2.8493202114    12.0593546686
Ni      8.5815089774     4.9718357140    12.0493067550
Ni     15.9511270644     4.9762933247    12.0568792530
Ni      0.0053509308    -0.0010196086    14.0770023741
Ni      7.3854050665    -0.0095464689    14.2662528985
Ni      1.2148590481     2.1229717808    14.0477878033
Ni      8.6218660991     2.1425686699    14.0422761445
Ni      2.4478092507     4.2836981384    14.0403043718
Ni      9.8267065510     4.2307811946    14.0434136825
Ni      2.4549075816    -0.0241095371    14.0384123291
Ni      9.8642453826    -0.0057056270    14.0558632729
Ni      3.6977850970     2.1794285254    14.1312520245
Ni     11.0685691784     2.1218547058    14.0751725810
Ni      4.9362185826     4.2814666264    14.0338510105
Ni     12.3090457009     4.2283420428    14.0551137944
Ni      4.9134654877    -0.0262430484    14.0196242530
Ni     12.2956792945    -0.0025845012    14.0663295624
Ni      6.1635563747     2.1432732426    14.0288379011
Ni     13.5225000977     2.1217169570    14.0651430978
Ni      7.3755448986     4.2575261735    14.0843653077
Ni     14.7551470898     4.2496925208    14.0685009009
O       7.3177391425     0.0386598749    16.0406705655
O       3.6369164874     2.0712112141    16.1582792829
H       3.9924537641     1.1609155703    16.2369948416
H       7.4092450998    -0.0265077426    16.9844179476
H       5.2635467603     2.8862463157    17.2065287673
H       3.7689732091     3.8639454654    17.1631979627
C       4.1618247592     2.8418323715    17.2581713541
O       4.1737870349     0.7632909036    18.4402673510
H       5.1428155657     0.7839518389    18.4935581018
C       3.7040068570     2.1198987955    18.5203886007
H       2.6130260834     2.0384327417    18.5122988992
C       4.1737017169     2.8193017645    19.7807517441
H       3.8257236913     3.8662663158    19.7696964679
H       5.2755253794     2.8328122760    19.7791469145
O       3.6662709677     2.1273964845    20.9201339720
H       4.0024691434     2.5701418158    21.7192957247
88
Step 7 | ATOMIC_POSITIONS (angstrom) | Cartesian Angstrom
Ni      1.2285271350     0.7092904721     8.0000000000
Ni      8.6004271350     0.7092904721     8.0000000000
Ni      2.4570542700     2.8371618884     8.0000000000
Ni      9.8289542700     2.8371618884     8.0000000000
Ni      3.6859500000     4.9656717300     8.0000000000
Ni     11.0578500000     4.9656717300     8.0000000000
Ni      3.6855814050     0.7092904721     8.0000000000
Ni     11.0574814050     0.7092904721     8.0000000000
Ni      4.9141085400     2.8371618884     8.0000000000