88
Step 1 | ATOMIC_POSITIONS (angstrom) | Cartesian Angstrom
Ni      1.2285271350     0.7092904721     8.0000000000
Ni      8.6004271350     0.7092904721     8.0000000000
Ni      2.4570542700     2.8371618884     8.0000000000
Ni      9.8289542700     2.8371618884     8.0000000000
Ni      3.6859500000     4.9656717300     8.0000000000
Ni     11.0578500000     4.9656717300     8.0000000000
Ni      3.6855814050     0.7092904721     8.0000000000
Ni     11.0574814050     0.7092904721     8.0000000000
Ni      4.9141085400     2.8371618884     8.0000000000
Ni     12.2860085400     2.8371618884     8.0000000000
Ni      6.1430042700     4.9656717300     8.0000000000
Ni     13.5149042700     4.9656717300     8.0000000000
Ni      6.1433728650     0.7092904721     8.0000000000
Ni     13.5152728650     0.7092904721     8.0000000000
Ni      7.3719000000     2.8371618884     8.0000000000
Ni     14.7438000000     2.8371618884     8.0000000000
Ni      8.6007957300     4.9656717300     8.0000000000
Ni     15.9726957300     4.9656717300     8.0000000000
Ni      0.0016160439    -0.0009534266    10.0329944163
Ni      7.3736934794    -0.0010820679    10.0327647169
Ni      1.2302584314     2.1268402657    10.0324781192
Ni      8.6021681527     2.1271118852    10.0325930438
Ni      2.4592257313     4.2553068522    10.0325783894
Ni      9.8308785231     4.2552629920    10.0326404924
Ni      2.4585937060    -0.0014538997    10.0324078371
Ni      9.8309013928    -0.0010063006    10.0325984671
Ni      3.6874058360     2.1269391625    10.0331323606
Ni     11.0592919780     2.1268959090    10.0333100450
Ni      4.9164964412     4.2555924609    10.0325254323
Ni     12.2882140281     4.2551677727    10.0325917732
Ni      4.9166527050    -0.0013410302    10.0321893020
Ni     12.2885832320    -0.0009648561    10.0329927532
Ni      6.1453950265     2.1270064449    10.0320542552
Ni     13.5170040371     2.1268268954    10.0330028938
Ni      7.3736666160     4.2555292774    10.0324062625
Ni     14.7461014655     4.2551759365    10.0325821138
Ni      1.2264980859     0.7107895242    12.0690148245
Ni      8.5975265122     0.7089108145    12.0694505999
Ni      2.4554412392     2.8380372258    12.0697412409
Ni      9.8270154943     2.8383866371    12.0705738455
Ni      3.6838165702     4.9666287738    12.0689233312
Ni     11.0566707199     4.9683261742    12.0695726810
Ni      3.6847124656     0.7114483676    12.0710528599
Ni     11.0552264439     0.7097630859    12.0701137981
Ni      4.9125811543     2.8373899863    12.0697441210
Ni     12.2844537560     2.8389851042    12.0700937525
Ni      6.1415617927     4.9660677947    12.0693745373
Ni     13.5125802513     4.9669498901    12.0693299840
Ni      6.1422679117     0.7100552714    12.0694997564
Ni     13.5133052681     0.7104458685    12.0689230299
Ni      7.3695884299     2.8381075991    12.0695862023
Ni     14.7421776669     2.8382261508    12.0698054687
Ni      8.5988872649     4.9667026312    12.0691397907
Ni     15.9708860430     4.9665015236    12.0697332035
Ni      0.0008614150    -0.0006870335    14.0987025827
Ni      7.3723687740    -0.0003815816    14.1340308560
Ni      1.2254270885     2.1275654112    14.0953120686
Ni      8.6031755538     2.1310981237    14.0965843329
Ni      2.4556959596     4.2598952754    14.0941976295
Ni      9.8278761730     4.2525294553    14.0967232795
Ni      2.4556290762    -0.0055900490    14.0946221237
Ni      9.8335447085    -0.0000389953    14.0967545438
Ni      3.6874217433     2.1350922283    14.1020352073
Ni     11.0583571294     2.1273654172    14.0985269148
Ni      4.9180409266     4.2608899770    14.0936007878
Ni     12.2887292060     4.2524221465    14.0966245062
Ni      4.9147195206    -0.0048474242    14.0920331943
Ni     12.2875720167    -0.0007942556    14.0977553802
Ni      6.1463407458     2.1300088977    14.0932335729
Ni     13.5162296877     2.1276289664    14.0975555971
Ni      7.3723958072     4.2565922548    14.0996613880
Ni     14.7455997997     4.2555307017    14.0978200934
O       7.3690166927     0.0020400648    16.0771464033
O       3.6732538916     2.1234832134    16.1026546865
H       4.0219672676     1.2037954075    16.1666535016
H       7.3738374106    -0.0013592852    17.0661722107
H       5.2591508703     2.8539601045    17.1974129959
H       3.7827505921     3.8594476032    17.1946829649
C       4.1572271871     2.8424671274    17.2523503425
O       4.1662677916     0.7709046165    18.4712240023
H       5.1461953680     0.8285718834    18.4804173519
C       3.6875855404     2.1189972270    18.5080648260
H       2.5735608054     2.0357443898    18.5041309171
C       4.1608225732     2.8147283398    19.7703350211
H       3.8167866899     3.8541769177    19.8025616406
H       5.2696467533     2.8024328892    19.8026441648
O       3.6786068808     2.1171736028    20.9194359405
H       4.0226337883     2.5937601871    21.6919181248
88
Step 2 | ATOMIC_POSITIONS (angstrom) | Cartesian Angstrom
Ni      1.2285271350     0.7092904721     8.0000000000
Ni      8.6004271350     0.7092904721     8.0000000000
Ni      2.4570542700     2.8371618884     8.0000000000
Ni      9.8289542700     2.8371618884     8.0000000000
Ni      3.6859500000     4.9656717300     8.0000000000
Ni     11.0578500000     4.9656717300     8.0000000000
Ni      3.6855814050     0.7092904721     8.0000000000
Ni     11.0574814050     0.7092904721     8.0000000000
Ni      4.9141085400     2.8371618884     8.0000000000
Ni     12.2860085400     2.8371618884     8.0000000000
Ni      6.1430042700     4.9656717300     8.0000000000
Ni     13.5149042700     4.9656717300     8.0000000000
Ni      6.1433728650     0.7092904721     8.0000000000
Ni     13.5152728650     0.7092904721     8.0000000000
Ni      7.3719000000     2.8371618884     8.0000000000
Ni     14.7438000000     2.8371618884     8.0000000000
Ni      8.6007957300     4.9656717300     8.0000000000
Ni     15.9726957300     4.9656717300     8.0000000000
Ni      0.0053378899    -0.0031602758    10.0309456755
Ni      7.3778729589    -0.0035961180    10.0304124471
Ni      1.2343083362     2.1244377165    10.0293162003
Ni      8.6063067217     2.1252627620    10.0298433748
Ni      2.4634089510     4.2528047619    10.0296415822
Ni      9.8346197007     4.2526200091    10.0299533581
Ni      2.4622853127    -0.0046462168    10.0292083942
Ni      9.8353942613    -0.0032698873    10.0297226638
Ni      3.6916139501     2.1247280855    10.0314564513
Ni     11.0635087711     2.1246006018    10.0321384583
Ni      4.9210752896     4.2536821745    10.0294582933
Ni     12.2924018096     4.2523529667    10.0296972091
Ni      4.9208228154    -0.0043175119    10.0284617839
Ni     12.2927790257    -0.0031898007    10.0310149528
Ni      6.1500217964     2.1248949213    10.0279441706
Ni     13.5209707495     2.1244386501    10.0310545857
Ni      7.3769846426     4.2535058862    10.0291155119
Ni     14.7505397824     4.2524213270    10.0296578852
Ni      1.2218704460     0.7141440560    12.0702635017
Ni      8.5902653197     0.7076925791    12.0731792286
Ni      2.4517408435     2.8399983671    12.0729312478
Ni      9.8226030423     2.8411289187    12.0753926314
Ni      3.6789207919     4.9689448040    12.0698240791
Ni     11.0539584454     4.9751372612    12.0735704751
Ni      3.6824737487     0.7164701572    12.0770555509
Ni     11.0500389334     0.7110669774    12.0738626611
Ni      4.9089123743     2.8379118754    12.0726655144
Ni     12.2806935719     2.8430557103    12.0737809252
Ni      6.1384063204     4.9671527022    12.0710370469
Ni     13.5072513822     4.9698971874    12.0713290056
Ni      6.1405201091     0.7113632046    12.0734066520
Ni     13.5087350033     0.7131045933    12.0701715450
Ni      7.3645030208     2.8403837086    12.0719433413
Ni     14.7383063553     2.8407687399    12.0726939098
Ni      8.5944438153     4.9688898451    12.0704159662
Ni     15.9665283121     4.9685386678    12.0723861406
Ni      0.0026881835    -0.0020078157    14.0915230964
Ni      7.3736001393    -0.0013373520    14.2044940458
Ni      1.2190065478     2.1267382880    14.0803612141
Ni      8.6094333329     2.1378881393    14.0834609256
Ni      2.4520042242     4.2677405472    14.0767673514
Ni      9.8250416581     4.2439732860    14.0839309134
Ni      2.4529488625    -0.0171384469    14.0779560930
Ni      9.8437820382    -0.0003048810    14.0847529922
Ni      3.6915452211     2.1509161392    14.1032932473
Ni     11.0604851968     2.1261565872    14.0908783448
Ni      4.9257651717     4.2704787188    14.0748020006
Ni     12.2941270927     4.2436661509    14.0843392960
Ni      4.9143297458    -0.0150480844    14.0695590245
Ni     12.2895248794    -0.0023720912    14.0882539211
Ni      6.1528156168     2.1346996491    14.0734235775
Ni     13.5182976052     2.1268673082    14.0876248121
Ni      7.3728010485     4.2570358835    14.0946042837
Ni     14.7487676408     4.2536486247    14.0885674778
O       7.3619626009     0.0070563821    16.0487066070
O       3.6521614028     2.1048031447    16.1131285460
H       4.0183155596     1.1869286901    16.1815944796
H       7.3786392236    -0.0047459506    17.0269814924
H       5.2678038791     2.8617730389    17.2048454365
H       3.7766435803     3.8711415708    17.1852186464
C       4.1629616794     2.8529003903    17.2596283186
O       4.1673178616     0.7523970461    18.4585327364
H       5.1413922967     0.8223874914    18.4830588438
C       3.6999052263     2.1151331766    18.5194382393
H       2.5851472911     2.0370584987    18.5045342182
C       4.1610557307     2.8186883485    19.7851104748
H       3.8167786600     3.8713876524    19.7907555418
H       5.2779843718     2.8103052246    19.7868216923
O       3.6667777076     2.1083588241    20.9265405395
H       4.0186525388     2.5892016335    21.6935072459
88
Step 3 | ATOMIC_POSITIONS (angstrom) | Cartesian Angstrom
Ni      1.2285271350     0.7092904721     8.0000000000
Ni      8.6004271350     0.7092904721     8.0000000000
Ni      2.4570542700     2.8371618884     8.0000000000
Ni      9.8289542700     2.8371618884     8.0000000000
Ni      3.6859500000     4.9656717300     8.0000000000
Ni     11.0578500000     4.9656717300     8.0000000000
Ni      3.6855814050     0.7092904721     8.0000000000
Ni     11.0574814050     0.7092904721     8.0000000000
Ni      4.9141085400     2.8371618884     8.0000000000
Ni     12.2860085400     2.8371618884     8.0000000000
Ni      6.1430042700     4.9656717300     8.0000000000
Ni     13.5149042700     4.9656717300     8.0000000000
Ni      6.1433728650     0.7092904721     8.0000000000
Ni     13.5152728650     0.7092904721     8.0000000000
Ni      7.3719000000     2.8371618884     8.0000000000
Ni     14.7438000000     2.8371618884     8.0000000000
Ni      8.6007957300     4.9656717300     8.0000000000
Ni     15.9726957300     4.9656717300     8.0000000000
Ni      0.0099273639    -0.0058986159    10.0290253370
Ni      7.3830437704    -0.0066864083    10.0288045806
Ni      1.2394689338     2.1214551931    10.0262907166
Ni      8.6116344966     2.1226403752    10.0277808760
Ni      2.4685921203     4.2496265922    10.0268500929
Ni      9.8396603935     4.2493203382    10.0278355204
Ni      2.4672091501    -0.0080468746    10.0264420684
Ni      9.8407887414    -0.0058899606    10.0271603080
Ni      3.6967360637     2.1218604546    10.0301610912
Ni     11.0687578983     2.1216807980    10.0316563049
Ni      4.9264265847     4.2510685595    10.0264392139
Ni     12.2973433537     4.2489623455    10.0271101849
Ni      4.9259650911    -0.0075467230    10.0250971674
Ni     12.2978084778    -0.0059467757    10.0294122384
Ni      6.1555184483     2.1219164367    10.0239306182
Ni     13.5257985599     2.1215776603    10.0295097560
Ni      7.3813243987     4.2508563904    10.0259825265
Ni     14.7559113065     4.2491208102    10.0269147212
Ni      1.2163054482     0.7179082557    12.0685917561
Ni      8.5803986987     0.7056271977    12.0781168537
Ni      2.4473917427     2.8422197150    12.0745674366
Ni      9.8176322189     2.8441087881    12.0775227508
Ni      3.6730445575     4.9721236060    12.0673557747
Ni     11.0506208145     4.9846781550    12.0787864568
Ni      3.6791009499     0.7228403605    12.0811789146
Ni     11.0437714545     0.7133243066    12.0750516154
Ni      4.9038778441     2.8384707120    12.0730355771
Ni     12.2755811427     2.8475912805    12.0748468794
Ni      6.1351379794     4.9689257006    12.0684946666
Ni     13.5009476261     4.9734263881    12.0706474928
Ni      6.1400771737     0.7119946612    12.0784567480
Ni     13.5031514079     0.7162927496    12.0692139717
Ni      7.3590576690     2.8435107587    12.0707931623
Ni     14.7332149404     2.8441425038    12.0724989907
Ni      8.5889017893     4.9709687193    12.0678083433
Ni     15.9606493364     4.9713760675    12.0716698058
Ni      0.0044362817    -0.0028235828    14.0839210407
Ni      7.3758870587    -0.0029943111    14.2740761247
Ni      1.2133987837     2.1254422182    14.0636736327
Ni      8.6163953028     2.1438575591    14.0662899312
Ni      2.4484417118     4.2763891578    14.0575205350
Ni      9.8232031418     4.2350923525    14.0671525581
Ni      2.4513060211    -0.0270676216    14.0588425857
Ni      9.8550105322    -0.0013338039    14.0707534129
Ni      3.6958375259     2.1677122669    14.1090442810
Ni     11.0634839510     2.1245033511    14.0826062362
Ni      4.9334068546     4.2795818319    14.0539083677
Ni     12.3006754257     4.2343922123    14.0700607151
Ni      4.9138992020    -0.0246711691    14.0439760889
Ni     12.2920625585    -0.0035584926    14.0775538885
Ni      6.1595866188     2.1396183728    14.0508355833
Ni     13.5204901034     2.1253441937    14.0765112389
Ni      7.3735708673     4.2574177506    14.0893574872
Ni     14.7522134960     4.2515781172    14.0784271356
O       7.3512650063     0.0147298183    16.0246024208
O       3.6372373514     2.0851873708    16.1351396086
H       4.0100989269     1.1730682720    16.2012206354
H       7.3860031536    -0.0099949888    16.9849861782
H       5.2744777275     2.8724026979    17.2101059036
H       3.7711977493     3.8791788049    17.1745784712
C       4.1637852384     2.8525664494    17.2625892699
O       4.1643519753     0.7463743048    18.4463290601
H       5.1432285547     0.8102373920    18.4867291909
C       3.7041231304     2.1123247306    18.5250328747
H       2.6028335324     2.0382887637    18.5063610143
C       4.1644193762     2.8198756378    19.7929202312
H       3.8190408946     3.8801596015    19.7791611556
H       5.2809358643     2.8203576429    19.7750487843
O       3.6607392756     2.1095933211    20.9309776632
H       4.0116630622     2.5807117909    21.6990481700
88
Step 4 | ATOMIC_POSITIONS (angstrom) | Cartesian Angstrom
Ni      1.2285271350     0.7092904721     8.0000000000
Ni      8.6004271350     0.7092904721     8.0000000000
Ni      2.4570542700     2.8371618884     8.0000000000
Ni      9.8289542700     2.8371618884     8.0000000000
Ni      3.6859500000     4.9656717300     8.0000000000
Ni     11.0578500000     4.9656717300     8.0000000000
Ni      3.6855814050     0.7092904721     8.0000000000
Ni     11.0574814050     0.7092904721     8.0000000000
Ni      4.9141085400     2.8371618884     8.0000000000
Ni     12.2860085400     2.8371618884     8.0000000000
Ni      6.1430042700     4.9656717300     8.0000000000
Ni     13.5149042700     4.9656717300     8.0000000000
Ni      6.1433728650     0.7092904721     8.0000000000
Ni     13.5152728650     0.7092904721     8.0000000000
Ni      7.3719000000     2.8371618884     8.0000000000
Ni     14.7438000000     2.8371618884     8.0000000000
Ni      8.6007957300     4.9656717300     8.0000000000
Ni     15.9726957300     4.9656717300     8.0000000000
Ni      0.0113405376    -0.0067327383    10.0287235763
Ni      7.3846237676    -0.0076174949    10.0292018649
Ni      1.2411705272     2.1205626570    10.0259208801
Ni      8.6134295959     2.1214757925    10.0280756469
Ni      2.4701619152     4.2485585910    10.0265030582
Ni      9.8416113600     4.2483313008    10.0280057619
Ni      2.4690314284    -0.0086487384    10.0263457384
Ni      9.8422347480    -0.0065479053    10.0270562472
Ni      3.6982345594     2.1208883161    10.0302157826
Ni     11.0703877219     2.1207247520    10.0320012525
Ni      4.9278434169     4.2500382082    10.0259432870
Ni     12.2986274109     4.2480607372    10.0270021161
Ni      4.9276075069    -0.0081351059    10.0249750007
Ni     12.2992116414    -0.0067787662    10.0293758751
Ni      6.1570268748     2.1206357511    10.0234765070
Ni     13.5272062319     2.1207740581    10.0295165463
Ni      7.3829036355     4.2498786892    10.0254904132
Ni     14.7574120498     4.2482155891    10.0265499702
Ni      1.2146636935     0.7187104915    12.0654447301
Ni      8.5771632982     0.7048672209    12.0793210363
Ni      2.4463330523     2.8427474518    12.0733584088
Ni      9.8167487358     2.8445599182    12.0745122753
Ni      3.6714370301     4.9733941206    12.0636935564
Ni     11.0495678207     4.9878989613    12.0800303678
Ni      3.6776648218     0.7250572049    12.0797453910
Ni     11.0419715306     0.7145803194    12.0724731905
Ni      4.9018538381     2.8385003790    12.0706360778
Ni     12.2736181684     2.8485524147    12.0721981212
Ni      6.1346943009     4.9697612669    12.0639613733
Ni     13.4993359565     4.9743556048    12.0678148565
Ni      6.1409300170     0.7116349864    12.0794531504
Ni     13.5015421473     0.7171713878    12.0668938986
Ni      7.3581057700     2.8447567273    12.0669418896
Ni     14.7313947528     2.8453547244    12.0693804591
Ni      8.5871983071     4.9710824089    12.0634550053
Ni     15.9584303711     4.9725185706    12.0681747257
Ni      0.0045832714    -0.0023933667    14.0824899874
Ni      7.3778157843    -0.0043306947    14.2692154448
Ni      1.2136922357     2.1248476336    14.0601192525
Ni      8.6176773441     2.1435721395    14.0607087393
Ni      2.4482617470     4.2780858494    14.0536548298
Ni      9.8240193202     4.2340477894    14.0616489915
Ni      2.4521689230    -0.0263595759    14.0542982919
Ni      9.8571785465    -0.0023323699    14.0672993123
Ni      3.6963138763     2.1704848346    14.1142031451
Ni     11.0646794211     2.1238769949    14.0810260806
Ni      4.9340272269     4.2799455087    14.0494862931
Ni     12.3026171215     4.2329674606    14.0665929177
Ni      4.9137856627    -0.0250242124    14.0383135473
Ni     12.2929022596    -0.0033048104    14.0751061546
Ni      6.1604754878     2.1404420639    14.0457323132
Ni     13.5209008945     2.1244642692    14.0740311852
Ni      7.3740387557     4.2573910336    14.0884471562
Ni     14.7528517768     4.2511641464    14.0763072404
O       7.3448952412     0.0192986815    16.0342329393
O       3.6378981413     2.0825923564    16.1422291400
H       4.0059720951     1.1708088141    16.2090083987
H       7.3903723138    -0.0131132685    16.9820805813
H       5.2712465449     2.8757385798    17.2092925742
H       3.7712712995     3.8747450249    17.1721383656
C       4.1630745041     2.8492474468    17.2610533643
O       4.1700311174     0.7520203119    18.4453365686
H       5.1401504796     0.8035182932    18.4880390707
C       3.7030620618     2.1147768169    18.5234560203
H       2.6054722535     2.0383206572    18.5077840005
C       4.1665961859     2.8192892228    19.7886252604
H       3.8209943100     3.8752701230    19.7774057083
H       5.2784400071     2.8232684171    19.7764973343
O       3.6622114221     2.1141480419    20.9261470083
H       4.0100651544     2.5789197587    21.7060137306
88
Step 5 | ATOMIC_POSITIONS (angstrom) | Cartesian Angstrom
Ni      1.2285271350     0.7092904721     8.0000000000
Ni      8.6004271350     0.7092904721     8.0000000000
Ni      2.4570542700     2.8371618884     8.0000000000
Ni      9.8289542700     2.8371618884     8.0000000000
Ni      3.6859500000     4.9656717300     8.0000000000
Ni     11.0578500000     4.9656717300     8.0000000000
Ni      3.6855814050     0.7092904721     8.0000000000
Ni     11.0574814050     0.7092904721     8.0000000000
Ni      4.9141085400     2.8371618884     8.0000000000
Ni     12.2860085400     2.8371618884     8.0000000000
Ni      6.1430042700     4.9656717300     8.0000000000
Ni     13.5149042700     4.9656717300     8.0000000000
Ni      6.1433728650     0.7092904721     8.0000000000
Ni     13.5152728650     0.7092904721     8.0000000000
Ni      7.3719000000     2.8371618884     8.0000000000
Ni     14.7438000000     2.8371618884     8.0000000000
Ni      8.6007957300     4.9656717300     8.0000000000
Ni     15.9726957300     4.9656717300     8.0000000000
Ni      0.0133998586    -0.0079299784    10.0281055367
Ni      7.3869134963    -0.0089707278    10.0296530003
Ni      1.2436425106     2.1192941177    10.0252406061
Ni      8.6160278902     2.1197201421    10.0283531952
Ni      2.4724209928     4.2469822955    10.0258485004
Ni      9.8444941586     4.2469335953    10.0281007476
Ni      2.4717030197    -0.0095290735    10.0260239011
Ni      9.8442944063    -0.0075084901    10.0267907203
Ni      3.7004040024     2.1194934360    10.0301421824
Ni     11.0727663208     2.1193295320    10.0322487089
Ni      4.9299305517     4.2485170412    10.0250580348
Ni     12.3004760271     4.2467873834    10.0267336419
Ni      4.9300316575    -0.0089621754    10.0247044981
Ni     12.3012628346    -0.0079876267    10.0291243433
Ni      6.1592152473     2.1187385773    10.0227246086
Ni     13.5292657535     2.1195973883    10.0293344071
Ni      7.3852268616     4.2484322091    10.0245150612
Ni     14.7595699020     4.2469037814    10.0258154073
Ni      1.2122483869     0.7198731673    12.0609096345
Ni      8.5727223420     0.7039614507    12.0808775997
Ni      2.4448358829     2.8435495134    12.0717751061
Ni      9.8155174608     2.8451953787    12.0700551917
Ni      3.6691289927     4.9752343426    12.0584497812
Ni     11.0479882158     4.9922433983    12.0816389265
Ni      3.6756535533     0.7283093634    12.0777033639
Ni     11.0393382450     0.7163887883    12.0687672123
Ni      4.8989053585     2.8385324467    12.0672930250
Ni     12.2707839260     2.8499705592    12.0683959322
Ni      6.1340056743     4.9709561502    12.0575863461
Ni     13.4970725695     4.9756512641    12.0637051538
Ni      6.1419627248     0.7112406998    12.0807095523
Ni     13.4992311479     0.7184399920    12.0635539429
Ni      7.3566620094     2.8465691471    12.0613812272
Ni     14.7287766140     2.8470897048    12.0649448561
Ni      8.5847297448     4.9713388594    12.0572180958
Ni     15.9552441848     4.9741609286    12.0631897483
Ni      0.0048631450    -0.0017804170    14.0802321438
Ni      7.3808689941    -0.0064358541    14.2667325165
Ni      1.2141828496     2.1240131221    14.0548518931
Ni      8.6195002474     2.1431111987    14.0526774978
Ni      2.4480444693     4.2805187623    14.0479418813
Ni      9.8252153843     4.2326172290    14.0537129882
Ni      2.4533842953    -0.0253326279    14.0475305256
Ni      9.8602518278    -0.0037886375    14.0623306206
Ni      3.6969573825     2.1744077179    14.1216507695
Ni     11.0663928533     2.1229828719    14.0785864764
Ni      4.9349380539     4.2805412668    14.0428561021
Ni     12.3054044005     4.2309568438    14.0616050924
Ni      4.9136426550    -0.0255270289    14.0301851456
Ni     12.2941223464    -0.0029671226    14.0714025487
Ni      6.1617900831     2.1416408518    14.0383939840
Ni     13.5215571741     2.1232278534    14.0702799360
Ni      7.3746927684     4.2574167717    14.0868535520
Ni     14.7538209159     4.2505395682    14.0730443599
O       7.3340472390     0.0270506845    16.0363380731
O       3.6381642730     2.0775128585    16.1504688425
H       3.9998640389     1.1675698640    16.2207887709
H       7.3979454723    -0.0184990729    16.9849480636
H       5.2670398521     2.8804421164    17.2080941631
H       3.7705142821     3.8698249607    17.1684194191
C       4.1631341747     2.8448585970    17.2593766410
O       4.1726816157     0.7583309424    18.4433634821
H       5.1406948719     0.7946283772    18.4903254167
C       3.7016047862     2.1172737627    18.5215452637
H       2.6095840462     2.0383630070    18.5097916707
C       4.1705278709     2.8188044069    19.7843131768
H       3.8232161245     3.8703447098    19.7743616056
H       5.2759080312     2.8274679428    19.7780345349
O       3.6645008381     2.1208205118    20.9230016651
H       4.0066797656     2.5749539279    21.7124107912
88
Step 6 | ATOMIC_POSITIONS (angstrom) | Cartesian Angstrom
Ni      1.2285271350     0.7092904721     8.0000000000
Ni      8.6004271350     0.7092904721     8.0000000000
Ni      2.4570542700     2.8371618884     8.0000000000
Ni      9.8289542700     2.8371618884     8.0000000000
Ni      3.6859500000     4.9656717300     8.0000000000
Ni     11.0578500000     4.9656717300     8.0000000000
Ni      3.6855814050     0.7092904721     8.0000000000
Ni     11.0574814050     0.7092904721     8.0000000000
Ni      4.9141085400     2.8371618884     8.0000000000
Ni     12.2860085400     2.8371618884     8.0000000000
Ni      6.1430042700     4.9656717300     8.0000000000
Ni     13.5149042700     4.9656717300     8.0000000000
Ni      6.1433728650     0.7092904721     8.0000000000
Ni     13.5152728650     0.7092904721     8.0000000000
Ni      7.3719000000     2.8371618884     8.0000000000
Ni     14.7438000000     2.8371618884     8.0000000000
Ni      8.6007957300     4.9656717300     8.0000000000
Ni     15.9726957300     4.9656717300     8.0000000000
Ni      0.0161128556    -0.0094792053    10.0269622445
Ni      7.3899323388    -0.0107612083    10.0300231905
Ni      1.2468868193     2.1176732847    10.0240789123
Ni      8.6194377539     2.1173188390    10.0284382081
Ni      2.4753540138     4.2448775940    10.0247059517
Ni      9.8483573082     4.2451472115    10.0279467082
Ni      2.4752404762    -0.0107087553    10.0252542368
Ni      9.8469595337    -0.0087945156    10.0262325530
Ni      3.7032375814     2.1176946317    10.0297553888
Ni     11.0759318050     2.1174764249    10.0321374982
Ni      4.9327235767     4.2464905817    10.0235830185
Ni     12.3029031691     4.2451577350    10.0261754661
Ni      4.9332798252    -0.0100213682    10.0241472179
Ni     12.3039875945    -0.0095739283    10.0284494072
Ni      6.1620952363     2.1161975589    10.0215433044
Ni     13.5319973331     2.1180297335    10.0287610009
Ni      7.3883242311     4.2464958748    10.0227628122
Ni     14.7623757074     4.2451805883    10.0244880704
Ni      1.2090062993     0.7214226897    12.0550507224
Ni      8.5673127923     0.7030502961    12.0825962651
Ni      2.4429046466     2.8446755459    12.0699907421
Ni      9.8139851876     2.8460031728    12.0641556283
Ni      3.6661113817     4.9776493761    12.0517348946
Ni     11.0458727530     4.9974240129    12.0834136837
Ni      3.6731352875     0.7326124129    12.0751248835
Ni     11.0358494139     0.7187246457    12.0640406577
Ni      4.8950372662     2.8385688904    12.0631863958
Ni     12.2670986049     2.8518778105    12.0635530216
Ni      6.1330186928     4.9724905321    12.0496110705
Ni     13.4941943723     4.9772824029    12.0583876592
Ni      6.1429938972     0.7109267649    12.0820412013
Ni     13.4962059218     0.7201141949    12.0592530089
Ni      7.3546679952     2.8489327418    12.0542347294
Ni     14.7253602714     2.8493353213    12.0593411709
Ni      8.5815200365     4.9718259177    12.0492647336
Ni     15.9511039780     4.9763032224    12.0568667846
Ni      0.0053303703    -0.0010090433    14.0769613669
Ni      7.3854404451    -0.0095699891    14.2664199241
Ni      1.2148236976     2.1229813401    14.0477332208
Ni      8.6218977703     2.1425714199    14.0422070736
Ni      2.4477815681     4.2837246987    14.0402473467
Ni      9.8267218293     4.2307545131    14.0433446809
Ni      2.4548747716    -0.0241156411    14.0383520285
Ni      9.8642885827    -0.0057161069    14.0557962675
Ni      3.6977651328     2.1794652309    14.1312285219
Ni     11.0685962821     2.1218394165    14.0751157505
Ni      4.9362038520     4.2814998919    14.0337916198
Ni     12.3090766751     4.2283106616    14.0550466433
Ni      4.9134567240    -0.0262633198    14.0195456934
Ni     12.2956875136    -0.0025854856    14.0662723897
Ni      6.1635632434     2.1432880954    14.0287708140
Ni     13.5225043419     2.1217129284    14.0650840561
Ni      7.3755445919     4.2575274998    14.0843246699
Ni     14.7551540865     4.2496870613    14.0684473152
O       7.3177323774     0.0386647153    16.0406666179
O       3.6368840412     2.0711953844    16.1583305840
H       3.9924455123     1.1609060005    16.2370356279
H       7.4092451709    -0.0265069020    16.9843779718
H       5.2635606831     2.8862512043    17.2065756529
H       3.7689650758     3.8639725000    17.1632299926
C       4.1618218023     2.8418334956    17.2582153893
O       4.1737755953     0.7632702813    18.4402958203
H       5.1428081612     0.7839429676    18.4936004999
C       3.7040033470     2.1198868871    18.5204405166
H       2.6130503827     2.0384359677    18.5123397394
C       4.1737022419     2.8193037131    19.7808159356
H       3.8257245343     3.8662905643    19.7697259427
H       5.2755339739     2.8328207830    19.7791676259
O       3.6662557832     2.1273874669    20.9201938587
H       4.0024631898     2.5701327120    21.7193291031
88
Step 7 | ATOMIC_POSITIONS (angstrom) | Cartesian Angstrom
Ni      1.2285271350     0.7092904721     8.0000000000
Ni      8.6004271350     0.7092904721     8.0000000000
Ni      2.4570542700     2.8371618884     8.0000000000
Ni      9.8289542700     2.8371618884     8.0000000000
Ni      3.6859500000     4.9656717300     8.0000000000
Ni     11.0578500000     4.9656717300     8.0000000000
Ni      3.6855814050     0.7092904721     8.0000000000
Ni     11.0574814050     0.7092904721     8.0000000000
Ni      4.9141085400     2.8371618884     8.0000000000