88
Step 1 | ATOMIC_POSITIONS (angstrom) | Cartesian Angstrom
Ni      1.2285271350     0.7092904721     8.0000000000
Ni      8.6004271350     0.7092904721     8.0000000000
Ni      2.4570542700     2.8371618884     8.0000000000
Ni      9.8289542700     2.8371618884     8.0000000000
Ni      3.6859500000     4.9656717300     8.0000000000
Ni     11.0578500000     4.9656717300     8.0000000000
Ni      3.6855814050     0.7092904721     8.0000000000
Ni     11.0574814050     0.7092904721     8.0000000000
Ni      4.9141085400     2.8371618884     8.0000000000
Ni     12.2860085400     2.8371618884     8.0000000000
Ni      6.1430042700     4.9656717300     8.0000000000
Ni     13.5149042700     4.9656717300     8.0000000000
Ni      6.1433728650     0.7092904721     8.0000000000
Ni     13.5152728650     0.7092904721     8.0000000000
Ni      7.3719000000     2.8371618884     8.0000000000
Ni     14.7438000000     2.8371618884     8.0000000000
Ni      8.6007957300     4.9656717300     8.0000000000
Ni     15.9726957300     4.9656717300     8.0000000000
Ni      0.0016192286    -0.0009551230    10.0329955428
Ni      7.3736904154    -0.0010808244    10.0327690764
Ni      1.2302611067     2.1268392115    10.0324767594
Ni      8.6021651876     2.1271113073    10.0325995577
Ni      2.4592273352     4.2553046837    10.0325765149
Ni      9.8308770536     4.2552658387    10.0326469093
Ni      2.4585926262    -0.0014523020    10.0324151296
Ni      9.8309026386    -0.0010084906    10.0325978755
Ni      3.6874043888     2.1269389948    10.0331358106
Ni     11.0592940569     2.1268943068    10.0333097256
Ni      4.9164944078     4.2555933285    10.0325319521
Ni     12.2882166882     4.2551675064    10.0325908800
Ni      4.9166473241    -0.0013367176    10.0321983115
Ni     12.2885884653    -0.0009696831    10.0329907876
Ni      6.1453880596     2.1270078929    10.0320628879
Ni     13.5170109102     2.1268245300    10.0330011832
Ni      7.3736603450     4.2555335993    10.0324189551
Ni     14.7461072710     4.2551725507    10.0325805971
Ni      1.2265028204     0.7107825398    12.0690118601
Ni      8.5975197913     0.7089142294    12.0694692445
Ni      2.4554471798     2.8380343041    12.0697377381
Ni      9.8270078270     2.8383910016    12.0705935117
Ni      3.6838254417     4.9666268862    12.0689242034
Ni     11.0566633796     4.9683301218    12.0695915926
Ni      3.6847168752     0.7114409753    12.0710544550
Ni     11.0552235718     0.7097645239    12.0701237334
Ni      4.9125892580     2.8373908953    12.0697514817
Ni     12.2844508514     2.8389864423    12.0701040001
Ni      6.1415682737     4.9660626789    12.0693853073
Ni     13.5125771696     4.9669516836    12.0693380548
Ni      6.1422659466     0.7100560660    12.0695145877
Ni     13.5133083151     0.7104442422    12.0689241438
Ni      7.3695838969     2.8381138674    12.0696071279
Ni     14.7421791695     2.8382244120    12.0698040619
Ni      8.5988802425     4.9667028575    12.0691582435
Ni     15.9708878999     4.9665007120    12.0697318260
Ni      0.0008664657    -0.0006939126    14.0986944428
Ni      7.3723668184    -0.0003794424    14.1340182893
Ni      1.2254280926     2.1275650752    14.0953043354
Ni      8.6031691263     2.1311008895    14.0965755971
Ni      2.4557021275     4.2598948745    14.0941910205
Ni      9.8278716595     4.2525320449    14.0967136043
Ni      2.4556334462    -0.0056042992    14.0946086615
Ni      9.8335322858    -0.0000324446    14.0967489146
Ni      3.6874321570     2.1350939612    14.1020190569
Ni     11.0583452012     2.1273716904    14.0985201431
Ni      4.9180520773     4.2608870432    14.0935881686
Ni     12.2887172665     4.2524294392    14.0966181930
Ni      4.9147277208    -0.0048573766    14.0920214832
Ni     12.2875689594    -0.0007920913    14.0977474278
Ni      6.1463519505     2.1300114846    14.0932232634
Ni     13.5162250980     2.1276303743    14.0975461861
Ni      7.3723989939     4.2565854675    14.0996466282
Ni     14.7455958761     4.2555332855    14.0978147173
O       7.3690168591     0.0020397402    16.0771455045
O       3.6732526328     2.1234873106    16.1026511255
H       4.0219664355     1.2037976470    16.1666459688
H       7.3738376922    -0.0013596001    17.0661623861
H       5.2591491918     2.8539601532    17.1974056852
H       3.7827507139     3.8594456483    17.1946754262
C       4.1572256899     2.8424686607    17.2523422794
O       4.1662690941     0.7709104201    18.4712164934
H       5.1461954573     0.8285713101    18.4804100007
C       3.6875859059     2.1189987064    18.5080568149
H       2.5735573204     2.0357441104    18.5041234043
C       4.1608222731     2.8147299202    19.7703274657
H       3.8167866599     3.8541758098    19.8025546064
H       5.2696460241     2.8024328304    19.8026367512
O       3.6786095872     2.1171782015    20.9194257648
H       4.0226339282     2.5937602206    21.6919114824
88
Step 2 | ATOMIC_POSITIONS (angstrom) | Cartesian Angstrom
Ni      1.2285271350     0.7092904721     8.0000000000
Ni      8.6004271350     0.7092904721     8.0000000000
Ni      2.4570542700     2.8371618884     8.0000000000
Ni      9.8289542700     2.8371618884     8.0000000000
Ni      3.6859500000     4.9656717300     8.0000000000
Ni     11.0578500000     4.9656717300     8.0000000000
Ni      3.6855814050     0.7092904721     8.0000000000
Ni     11.0574814050     0.7092904721     8.0000000000
Ni      4.9141085400     2.8371618884     8.0000000000
Ni     12.2860085400     2.8371618884     8.0000000000
Ni      6.1430042700     4.9656717300     8.0000000000
Ni     13.5149042700     4.9656717300     8.0000000000
Ni      6.1433728650     0.7092904721     8.0000000000
Ni     13.5152728650     0.7092904721     8.0000000000
Ni      7.3719000000     2.8371618884     8.0000000000
Ni     14.7438000000     2.8371618884     8.0000000000
Ni      8.6007957300     4.9656717300     8.0000000000
Ni     15.9726957300     4.9656717300     8.0000000000
Ni      0.0053572660    -0.0031690591    10.0309336377
Ni      7.3778546186    -0.0035865852    10.0304130734
Ni      1.2343317221     2.1244342273    10.0293047177
Ni      8.6062792087     2.1252555111    10.0298604052
Ni      2.4634216061     4.2527848444    10.0296281140
Ni      9.8346124440     4.2526477228    10.0299687588
Ni      2.4622907287    -0.0046342968    10.0292100330
Ni      9.8353741754    -0.0032751769    10.0297286604
Ni      3.6916142221     2.1247247097    10.0314527914
Ni     11.0635030510     2.1246037051    10.0321365560
Ni      4.9210683750     4.2536744861    10.0294557424
Ni     12.2923966410     4.2523725041    10.0297028342
Ni      4.9208156443    -0.0042951496    10.0284819256
Ni     12.2927942144    -0.0032098251    10.0310018652
Ni      6.1499990099     2.1248876312    10.0279624434
Ni     13.5209968382     2.1244356346    10.0310426098
Ni      7.3769695869     4.2535164509    10.0291285420
Ni     14.7505558001     4.2524115865    10.0296484176
Ni      1.2218849059     0.7141314857    12.0702511056
Ni      8.5902584113     0.7077087062    12.0732105163
Ni      2.4517574551     2.8399934144    12.0729209466
Ni      9.8225867557     2.8411380005    12.0754265245
Ni      3.6789422768     4.9689310681    12.0698255925
Ni     11.0539384134     4.9751359808    12.0736023628
Ni      3.6824879220     0.7164617654    12.0770395037
Ni     11.0500274228     0.7110681810    12.0738913095
Ni      4.9089241399     2.8379076083    12.0726675414
Ni     12.2806866338     2.8430646381    12.0738091224
Ni      6.1384222608     4.9671406008    12.0710518042
Ni     13.5072555523     4.9698951566    12.0713429744
Ni      6.1404997257     0.7113746484    12.0734193523
Ni     13.5087510911     0.7130969291    12.0701833391
Ni      7.3644902960     2.8404053154    12.0719657044
Ni     14.7383197958     2.8407692164    12.0727000965
Ni      8.5944208128     4.9688891312    12.0704343331
Ni     15.9665330178     4.9685262019    12.0723923728
Ni      0.0027072469    -0.0020237692    14.0915162021
Ni      7.3735856935    -0.0013291042    14.2044540117
Ni      1.2190210942     2.1267465551    14.0803592919
Ni      8.6094159883     2.1378791476    14.0834428846
Ni      2.4520155630     4.2677227934    14.0767712337
Ni      9.8250378902     4.2439954604    14.0839128909
Ni      2.4529647520    -0.0171444058    14.0779481364
Ni      9.8437569178    -0.0002975267    14.0847473965
Ni      3.6915502448     2.1508978047    14.1032646714
Ni     11.0604633523     2.1261677038    14.0908556507
Ni      4.9257742780     4.2704682299    14.0747880722
Ni     12.2941089544     4.2436841616    14.0843331674
Ni      4.9143485011    -0.0150519968    14.0695589461
Ni     12.2895157503    -0.0023735428    14.0882376931
Ni      6.1528270780     2.1346908562    14.0734110155
Ni     13.5182978277     2.1268752148    14.0876070740
Ni      7.3728033113     4.2570303467    14.0945644480
Ni     14.7487677563     4.2536469833    14.0885556937
O       7.3619676424     0.0070523386    16.0487105748
O       3.6521782898     2.1048053019    16.1131138494
H       4.0183113720     1.1869474771    16.1815723883
H       7.3786393765    -0.0047458983    17.0269662189
H       5.2677906970     2.8617733537    17.2048262916
H       3.7766443035     3.8711390869    17.1852047237
C       4.1629671430     2.8528928378    17.2596047558
O       4.1673246934     0.7524141719    18.4585213981
H       5.1413911145     0.8223856760    18.4830413264
C       3.6998845658     2.1151385502    18.5194188057
H       2.5851456154     2.0370592805    18.5045172802
C       4.1610667333     2.8186883034    19.7850865502
H       3.8167793026     3.8713769477    19.7907408720
H       5.2779676073     2.8103037914    19.7868088327
O       3.6667800933     2.1083682586    20.9265171625
H       4.0186538491     2.5892040829    21.6934931242
