85
Step 1 | ATOMIC_POSITIONS (angstrom) | Cartesian Angstrom
Ni      1.2286390390     0.7093535490     9.0125970590
Ni      2.4572760100     2.8374169220     9.0125970590
Ni      3.6859498400     4.9655441370     9.0125970590
Ni      3.6859144660     0.7093535490     9.0125970590
Ni      4.9145514370     2.8374169220     9.0125970590
Ni      6.1432252670     4.9655441370     9.0125970590
Ni      6.1432636120     0.7093535490     9.0125970590
Ni      7.3719005830     2.8374169220     9.0125970590
Ni      8.6005744130     4.9655441370     9.0125970590
Ni      0.0000019230    -0.0000011100    11.0191845730
Ni      1.2286511800     2.1280835430    11.0191845730
Ni      2.4573004380     4.2561681970    11.0191845730
Ni      2.4573019230    -0.0000011100    11.0191845730
Ni      3.6859511800     2.1280835430    11.0191845730
Ni      4.9146004380     4.2561681970    11.0191845730
Ni      4.9146019230    -0.0000011100    11.0191845730
Ni      6.1432511800     2.1280835430    11.0191845730
Ni      7.3719004380     4.2561681970    11.0191845730
Ni      9.8291970100     5.6748892401    13.0324849556
Ni      4.9145980198     5.6748893593    13.0324852164
Ni      7.3718991758     1.4187202853    13.0324856500
Ni      8.6005492460     3.5468057814    13.0324864151
Ni      7.3718984520     5.6748900664    13.0324864346
Ni      2.4573016324     1.4187213286    13.0324867123
Ni      3.6859500153     3.5468058594    13.0324876950
Ni      6.1432488122     3.5468055587    13.0324879319
Ni      4.9146003559     1.4187209547    13.0324881305
Ni      4.9146024517     2.8374451427    15.0334585589
Ni      2.4573039655     2.8374470172    15.0334598186
Ni      6.1432518675     4.9655284072    15.0334598528
Ni      7.3719008977     2.8374462771    15.0334599804
Ni      3.6859555058     0.7093603620    15.0334602556
Ni      1.2286550209     0.7093609929    15.0334616076
Ni      3.6859521613     4.9655297045    15.0334616685
Ni      8.6005513471     4.9655301153    15.0334618667
Ni      6.1432529377     0.7093606827    15.0334623189
Ni      7.3718981461     4.2561658701    17.0436126492
Ni      2.4573001516     4.2561668027    17.0436139163
Ni      4.9146014848    -0.0000023770    17.0436145683
Ni      4.9146006221     4.2561672435    17.0436152860
Ni      0.0000023638    -0.0000021113    17.0436153847
Ni      6.1432512178     2.1280823767    17.0436158106
Ni      1.2286541909     2.1280837412    17.0436166733
Ni      2.4573047358    -0.0000005294    17.0436167517
Ni      3.6859557290     2.1280847607    17.0436183569
Ni      7.3720997322     1.4186705229    19.0413362478
Ni      9.8292659792     5.6749908825    19.0414548340
Ni      2.4570424926     1.4186217079    19.0412984863
Ni      4.9146304471     5.6750587578    19.0413644850
Ni      4.9146799637     1.4186733956    19.0414917805
Ni      3.6859960627     3.5469466927    19.0415110198
Ni      7.3717994881     5.6740782868    19.0411313768
Ni      8.5998637646     3.5470066234    19.0415000170
Ni      6.1436269007     3.5470446525    19.0419346901
Ni      4.9126798430     2.8362417162    21.0503154060
Ni      6.1429448320     4.9655510705    21.0555037979
Ni      3.6859537374     4.9653804544    21.0526140444
Ni      3.6857604731     0.7125975046    21.0514649414
Ni      2.4601785900     2.8352833993    21.0515056872
Ni      1.2289756017     0.7096441950    21.0531538804
Ni      7.3717626502     2.8369152776    21.0557781627
Ni      6.1429941763     0.7094903443    21.0528401435
Ni      8.6009125349     4.9657651839    21.0558820377
Ni      3.6904070961     2.1360804154    23.0423059857
Ni      1.2238677673     2.1285973167    23.0207311450
Ni      2.4547656789     4.2598554051    23.0195423439
Ni      6.1481112580     2.1288013430    23.0193994804
Ni     -0.0001995585    -0.0005211092    23.0243369866
Ni      2.4548340028    -0.0049674472    23.0205497704
Ni      7.3715026047     4.2558008727    23.0245098127
Ni      4.9174994884     4.2599286135    23.0193204343
Ni      4.9165030741    -0.0041804607    23.0212790569
O       3.6958406538     2.1290918272    24.8668756350
H       5.2778719624     2.8608347283    25.9586072801
H       3.8006782286     3.8740695550    25.9612423668
C       4.1622834325     2.8370484958    25.9858923507
O       4.1818001467     0.7800776744    27.2375578950
H       5.1620806502     0.8371720699    27.2393815214
C       3.7075898249     2.1207876771    27.2656456500
H       2.5896043564     2.0435986102    27.2636847471
C       4.1770451701     2.8226220476    28.5299697044
H       3.8333665522     3.8619842294    28.5628958777
H       5.2865677240     2.8098647099    28.5627027241
O       3.6950815749     2.1248709310    29.6804656810
H       4.0393032250     2.6015087824    30.4517991138
85
Step 2 | ATOMIC_POSITIONS (angstrom) | Cartesian Angstrom
Ni      1.2286390390     0.7093535490     9.0125970590
Ni      2.4572760100     2.8374169220     9.0125970590
Ni      3.6859498400     4.9655441370     9.0125970590
Ni      3.6859144660     0.7093535490     9.0125970590
Ni      4.9145514370     2.8374169220     9.0125970590
Ni      6.1432252670     4.9655441370     9.0125970590
Ni      6.1432636120     0.7093535490     9.0125970590
Ni      7.3719005830     2.8374169220     9.0125970590
Ni      8.6005744130     4.9655441370     9.0125970590
Ni      0.0000019230    -0.0000011100    11.0191845730
Ni      1.2286511800     2.1280835430    11.0191845730
Ni      2.4573004380     4.2561681970    11.0191845730
Ni      2.4573019230    -0.0000011100    11.0191845730
Ni      3.6859511800     2.1280835430    11.0191845730
Ni      4.9146004380     4.2561681970    11.0191845730
Ni      4.9146019230    -0.0000011100    11.0191845730
Ni      6.1432511800     2.1280835430    11.0191845730
Ni      7.3719004380     4.2561681970    11.0191845730
Ni      9.8291970100     5.6748892401    13.0324849556
Ni      4.9145980198     5.6748893593    13.0324852164
Ni      7.3718991758     1.4187202853    13.0324856500
Ni      8.6005492460     3.5468057814    13.0324864151
Ni      7.3718984520     5.6748900664    13.0324864346
Ni      2.4573016324     1.4187213286    13.0324867123
Ni      3.6859500153     3.5468058594    13.0324876950
Ni      6.1432488122     3.5468055587    13.0324879319
Ni      4.9146003559     1.4187209547    13.0324881305
Ni      4.9146024517     2.8374451427    15.0334585589
Ni      2.4573039655     2.8374470172    15.0334598186
Ni      6.1432518675     4.9655284072    15.0334598528
Ni      7.3719008977     2.8374462771    15.0334599804
Ni      3.6859555058     0.7093603620    15.0334602556
Ni      1.2286550209     0.7093609929    15.0334616076
Ni      3.6859521613     4.9655297045    15.0334616685
Ni      8.6005513471     4.9655301153    15.0334618667
Ni      6.1432529377     0.7093606827    15.0334623189
Ni      7.3718981461     4.2561658701    17.0436126492
Ni      2.4573001516     4.2561668027    17.0436139163
Ni      4.9146014848    -0.0000023770    17.0436145683
Ni      4.9146006221     4.2561672435    17.0436152860
Ni      0.0000023638    -0.0000021113    17.0436153847
Ni      6.1432512178     2.1280823767    17.0436158106
Ni      1.2286541909     2.1280837412    17.0436166733
Ni      2.4573047358    -0.0000005294    17.0436167517
Ni      3.6859557290     2.1280847607    17.0436183569
Ni      7.3724486674     1.4186727917    19.0420424500
Ni      9.8292934523     5.6751239197    19.0423760421
Ni      2.4565244964     1.4184055915    19.0417945540
Ni      4.9147568859     5.6753157908    19.0421139616
Ni      4.9148803588     1.4185148410    19.0422860220
Ni      3.6860515046     3.5472885717    19.0423438879
Ni      7.3716559893     5.6726412674    19.0416106415
Ni      8.5986305993     3.5473937466    19.0426021774
Ni      6.1443396127     3.5474774668    19.0436552212
Ni      4.9089347984     2.8339069223    21.0454633763
Ni      6.1428636367     4.9655453819    21.0590800776
Ni      3.6859156197     4.9652362580    21.0511865510
Ni      3.6853977207     0.7189903611    21.0493611086
Ni      2.4656972044     2.8311295972    21.0491212176
Ni      1.2295264754     0.7101263981    21.0528797752
Ni      7.3717054995     2.8363975280    21.0598010341
Ni      6.1425088478     0.7095941327    21.0519790021
Ni      8.6011764884     4.9660438304    21.0602783460
Ni      3.6982050887     2.1502404988    23.0744947682
Ni      1.2160656195     2.1293119935    23.0154424574
Ni      2.4504117816     4.2661577168    23.0121846753
Ni      6.1563646907     2.1297847403    23.0120330965
Ni     -0.0005331318    -0.0013059748    23.0261983058
Ni      2.4508820717    -0.0130557852    23.0148554952
Ni      7.3709500803     4.2553837278    23.0268722700
Ni      4.9224319458     4.2664670344    23.0119388249
Ni      4.9194527299    -0.0110550473    23.0170218081
O       3.6802662385     2.1144267850    24.8740863612
H       5.2803631737     2.8649119359    25.9646180799
H       3.7994313130     3.8878297863    25.9639777203
C       4.1598522577     2.8361026842    25.9657008469
O       4.1857451719     0.7653280357    27.2391397327
H       5.1548307819     0.8325012838    27.2395395870
C       3.7111620996     2.1119623957    27.2673300407
H       2.6027225868     2.0445408027    27.2636634787
C       4.1807157143     2.8248886438    28.5389731424
H       3.8327864642     3.8757661703    28.5538432580
H       5.2914970195     2.8160633580    28.5507423114
O       3.6849980115     2.1181397282    29.6850873556
H       4.0365933617     2.5986134202    30.4543046171
