85
Step 1 | ATOMIC_POSITIONS (angstrom) | Cartesian Angstrom
Ni      1.2286390390     0.7093535490     9.0125970590
Ni      2.4572760100     2.8374169220     9.0125970590
Ni      3.6859498400     4.9655441370     9.0125970590
Ni      3.6859144660     0.7093535490     9.0125970590
Ni      4.9145514370     2.8374169220     9.0125970590
Ni      6.1432252670     4.9655441370     9.0125970590
Ni      6.1432636120     0.7093535490     9.0125970590
Ni      7.3719005830     2.8374169220     9.0125970590
Ni      8.6005744130     4.9655441370     9.0125970590
Ni      0.0000019230    -0.0000011100    11.0191845730
Ni      1.2286511800     2.1280835430    11.0191845730
Ni      2.4573004380     4.2561681970    11.0191845730
Ni      2.4573019230    -0.0000011100    11.0191845730
Ni      3.6859511800     2.1280835430    11.0191845730
Ni      4.9146004380     4.2561681970    11.0191845730
Ni      4.9146019230    -0.0000011100    11.0191845730
Ni      6.1432511800     2.1280835430    11.0191845730
Ni      7.3719004380     4.2561681970    11.0191845730
Ni      9.8291970100     5.6748892401    13.0324849556
Ni      4.9145980198     5.6748893593    13.0324852164
Ni      7.3718991758     1.4187202853    13.0324856500
Ni      8.6005492460     3.5468057814    13.0324864151
Ni      7.3718984520     5.6748900664    13.0324864346
Ni      2.4573016324     1.4187213286    13.0324867123
Ni      3.6859500153     3.5468058594    13.0324876950
Ni      6.1432488122     3.5468055587    13.0324879319
Ni      4.9146003559     1.4187209547    13.0324881305
Ni      4.9146024517     2.8374451427    15.0334585589
Ni      2.4573039655     2.8374470172    15.0334598186
Ni      6.1432518675     4.9655284072    15.0334598528
Ni      7.3719008977     2.8374462771    15.0334599804
Ni      3.6859555058     0.7093603620    15.0334602556
Ni      1.2286550209     0.7093609929    15.0334616076
Ni      3.6859521613     4.9655297045    15.0334616685
Ni      8.6005513471     4.9655301153    15.0334618667
Ni      6.1432529377     0.7093606827    15.0334623189
Ni      7.3718981461     4.2561658701    17.0436126492
Ni      2.4573001516     4.2561668027    17.0436139163
Ni      4.9146014848    -0.0000023770    17.0436145683
Ni      4.9146006221     4.2561672435    17.0436152860
Ni      0.0000023638    -0.0000021113    17.0436153847
Ni      6.1432512178     2.1280823767    17.0436158106
Ni      1.2286541909     2.1280837412    17.0436166733
Ni      2.4573047358    -0.0000005294    17.0436167517
Ni      3.6859557290     2.1280847607    17.0436183569
Ni      7.3720997322     1.4186705229    19.0413362478
Ni      9.8292659792     5.6749908825    19.0414548340
Ni      2.4570424926     1.4186217079    19.0412984863
Ni      4.9146304471     5.6750587578    19.0413644850
Ni      4.9146799637     1.4186733956    19.0414917805
Ni      3.6859960627     3.5469466927    19.0415110198
Ni      7.3717994881     5.6740782868    19.0411313768
Ni      8.5998637646     3.5470066234    19.0415000170
Ni      6.1436269007     3.5470446525    19.0419346901
Ni      4.9126798430     2.8362417162    21.0503154060
Ni      6.1429448320     4.9655510705    21.0555037979
Ni      3.6859537374     4.9653804544    21.0526140444
Ni      3.6857604731     0.7125975046    21.0514649414
Ni      2.4601785900     2.8352833993    21.0515056872
Ni      1.2289756017     0.7096441950    21.0531538804
Ni      7.3717626502     2.8369152776    21.0557781627
Ni      6.1429941763     0.7094903443    21.0528401435
Ni      8.6009125349     4.9657651839    21.0558820377
Ni      3.6904070961     2.1360804154    23.0423059857
Ni      1.2238677673     2.1285973167    23.0207311450
Ni      2.4547656789     4.2598554051    23.0195423439
Ni      6.1481112580     2.1288013430    23.0193994804
Ni     -0.0001995585    -0.0005211092    23.0243369866
Ni      2.4548340028    -0.0049674472    23.0205497704
Ni      7.3715026047     4.2558008727    23.0245098127
Ni      4.9174994884     4.2599286135    23.0193204343
Ni      4.9165030741    -0.0041804607    23.0212790569
O       3.6958406538     2.1290918272    24.8668756350
H       5.2778719624     2.8608347283    25.9586072801
H       3.8006782286     3.8740695550    25.9612423668
C       4.1622834325     2.8370484958    25.9858923507
O       4.1818001467     0.7800776744    27.2375578950
H       5.1620806502     0.8371720699    27.2393815214
C       3.7075898249     2.1207876771    27.2656456500
H       2.5896043564     2.0435986102    27.2636847471
C       4.1770451701     2.8226220476    28.5299697044
H       3.8333665522     3.8619842294    28.5628958777
H       5.2865677240     2.8098647099    28.5627027241
O       3.6950815749     2.1248709310    29.6804656810
H       4.0393032250     2.6015087824    30.4517991138
85
Step 2 | ATOMIC_POSITIONS (angstrom) | Cartesian Angstrom
Ni      1.2286390390     0.7093535490     9.0125970590
Ni      2.4572760100     2.8374169220     9.0125970590
Ni      3.6859498400     4.9655441370     9.0125970590
Ni      3.6859144660     0.7093535490     9.0125970590
Ni      4.9145514370     2.8374169220     9.0125970590
Ni      6.1432252670     4.9655441370     9.0125970590
Ni      6.1432636120     0.7093535490     9.0125970590
Ni      7.3719005830     2.8374169220     9.0125970590
Ni      8.6005744130     4.9655441370     9.0125970590
Ni      0.0000019230    -0.0000011100    11.0191845730
Ni      1.2286511800     2.1280835430    11.0191845730
Ni      2.4573004380     4.2561681970    11.0191845730
Ni      2.4573019230    -0.0000011100    11.0191845730
Ni      3.6859511800     2.1280835430    11.0191845730
Ni      4.9146004380     4.2561681970    11.0191845730
Ni      4.9146019230    -0.0000011100    11.0191845730
Ni      6.1432511800     2.1280835430    11.0191845730
Ni      7.3719004380     4.2561681970    11.0191845730
Ni      9.8291970100     5.6748892401    13.0324849556
Ni      4.9145980198     5.6748893593    13.0324852164
Ni      7.3718991758     1.4187202853    13.0324856500
Ni      8.6005492460     3.5468057814    13.0324864151
Ni      7.3718984520     5.6748900664    13.0324864346
Ni      2.4573016324     1.4187213286    13.0324867123
Ni      3.6859500153     3.5468058594    13.0324876950
Ni      6.1432488122     3.5468055587    13.0324879319
Ni      4.9146003559     1.4187209547    13.0324881305
Ni      4.9146024517     2.8374451427    15.0334585589
Ni      2.4573039655     2.8374470172    15.0334598186
Ni      6.1432518675     4.9655284072    15.0334598528
Ni      7.3719008977     2.8374462771    15.0334599804
Ni      3.6859555058     0.7093603620    15.0334602556
Ni      1.2286550209     0.7093609929    15.0334616076
Ni      3.6859521613     4.9655297045    15.0334616685
Ni      8.6005513471     4.9655301153    15.0334618667
Ni      6.1432529377     0.7093606827    15.0334623189
Ni      7.3718981461     4.2561658701    17.0436126492
Ni      2.4573001516     4.2561668027    17.0436139163
Ni      4.9146014848    -0.0000023770    17.0436145683
Ni      4.9146006221     4.2561672435    17.0436152860
Ni      0.0000023638    -0.0000021113    17.0436153847
Ni      6.1432512178     2.1280823767    17.0436158106
Ni      1.2286541909     2.1280837412    17.0436166733
Ni      2.4573047358    -0.0000005294    17.0436167517
Ni      3.6859557290     2.1280847607    17.0436183569
Ni      7.3724486674     1.4186727917    19.0420424500
Ni      9.8292934523     5.6751239197    19.0423760421
Ni      2.4565244964     1.4184055915    19.0417945540
Ni      4.9147568859     5.6753157908    19.0421139616
Ni      4.9148803588     1.4185148410    19.0422860220
Ni      3.6860515046     3.5472885717    19.0423438879
Ni      7.3716559893     5.6726412674    19.0416106415
Ni      8.5986305993     3.5473937466    19.0426021774
Ni      6.1443396127     3.5474774668    19.0436552212
Ni      4.9089347984     2.8339069223    21.0454633763
Ni      6.1428636367     4.9655453819    21.0590800776
Ni      3.6859156197     4.9652362580    21.0511865510
Ni      3.6853977207     0.7189903611    21.0493611086
Ni      2.4656972044     2.8311295972    21.0491212176
Ni      1.2295264754     0.7101263981    21.0528797752
Ni      7.3717054995     2.8363975280    21.0598010341
Ni      6.1425088478     0.7095941327    21.0519790021
Ni      8.6011764884     4.9660438304    21.0602783460
Ni      3.6982050887     2.1502404988    23.0744947682
Ni      1.2160656195     2.1293119935    23.0154424574
Ni      2.4504117816     4.2661577168    23.0121846753
Ni      6.1563646907     2.1297847403    23.0120330965
Ni     -0.0005331318    -0.0013059748    23.0261983058
Ni      2.4508820717    -0.0130557852    23.0148554952
Ni      7.3709500803     4.2553837278    23.0268722700
Ni      4.9224319458     4.2664670344    23.0119388249
Ni      4.9194527299    -0.0110550473    23.0170218081
O       3.6802662385     2.1144267850    24.8740863612
H       5.2803631737     2.8649119359    25.9646180799
H       3.7994313130     3.8878297863    25.9639777203
C       4.1598522577     2.8361026842    25.9657008469
O       4.1857451719     0.7653280357    27.2391397327
H       5.1548307819     0.8325012838    27.2395395870
C       3.7111620996     2.1119623957    27.2673300407
H       2.6027225868     2.0445408027    27.2636634787
C       4.1807157143     2.8248886438    28.5389731424
H       3.8327864642     3.8757661703    28.5538432580
H       5.2914970195     2.8160633580    28.5507423114
O       3.6849980115     2.1181397282    29.6850873556
H       4.0365933617     2.5986134202    30.4543046171
85
Step 3 | ATOMIC_POSITIONS (angstrom) | Cartesian Angstrom
Ni      1.2286390390     0.7093535490     9.0125970590
Ni      2.4572760100     2.8374169220     9.0125970590
Ni      3.6859498400     4.9655441370     9.0125970590
Ni      3.6859144660     0.7093535490     9.0125970590
Ni      4.9145514370     2.8374169220     9.0125970590
Ni      6.1432252670     4.9655441370     9.0125970590
Ni      6.1432636120     0.7093535490     9.0125970590
Ni      7.3719005830     2.8374169220     9.0125970590
Ni      8.6005744130     4.9655441370     9.0125970590
Ni      0.0000019230    -0.0000011100    11.0191845730
Ni      1.2286511800     2.1280835430    11.0191845730
Ni      2.4573004380     4.2561681970    11.0191845730
Ni      2.4573019230    -0.0000011100    11.0191845730
Ni      3.6859511800     2.1280835430    11.0191845730
Ni      4.9146004380     4.2561681970    11.0191845730
Ni      4.9146019230    -0.0000011100    11.0191845730
Ni      6.1432511800     2.1280835430    11.0191845730
Ni      7.3719004380     4.2561681970    11.0191845730
Ni      9.8291970100     5.6748892401    13.0324849556
Ni      4.9145980198     5.6748893593    13.0324852164
Ni      7.3718991758     1.4187202853    13.0324856500
Ni      8.6005492460     3.5468057814    13.0324864151
Ni      7.3718984520     5.6748900664    13.0324864346
Ni      2.4573016324     1.4187213286    13.0324867123
Ni      3.6859500153     3.5468058594    13.0324876950
Ni      6.1432488122     3.5468055587    13.0324879319
Ni      4.9146003559     1.4187209547    13.0324881305
Ni      4.9146024517     2.8374451427    15.0334585589
Ni      2.4573039655     2.8374470172    15.0334598186
Ni      6.1432518675     4.9655284072    15.0334598528
Ni      7.3719008977     2.8374462771    15.0334599804
Ni      3.6859555058     0.7093603620    15.0334602556
Ni      1.2286550209     0.7093609929    15.0334616076
Ni      3.6859521613     4.9655297045    15.0334616685
Ni      8.6005513471     4.9655301153    15.0334618667
Ni      6.1432529377     0.7093606827    15.0334623189
Ni      7.3718981461     4.2561658701    17.0436126492
Ni      2.4573001516     4.2561668027    17.0436139163
Ni      4.9146014848    -0.0000023770    17.0436145683
Ni      4.9146006221     4.2561672435    17.0436152860
Ni      0.0000023638    -0.0000021113    17.0436153847
Ni      6.1432512178     2.1280823767    17.0436158106
Ni      1.2286541909     2.1280837412    17.0436166733
Ni      2.4573047358    -0.0000005294    17.0436167517
Ni      3.6859557290     2.1280847607    17.0436183569
Ni      7.3727739868     1.4188448783    19.0426740025
Ni      9.8291206589     5.6751382508    19.0431727951
Ni      2.4559165178     1.4181107599    19.0419244582
Ni      4.9150248870     5.6754845003    19.0427552225
Ni      4.9151777332     1.4182011213    19.0426133812
Ni      3.6860291258     3.5477919669    19.0427079098
Ni      7.3715862556     5.6713484957    19.0423165717
Ni      8.5974941137     3.5478064482    19.0438093392
Ni      6.1450821003     3.5478988699    19.0452138621
Ni      4.9048992235     2.8314112340    21.0413687148
Ni      6.1437137354     4.9653988235    21.0616037192
Ni      3.6857807664     4.9654130782    21.0491643216
Ni      3.6850728674     0.7261341864    21.0490265739
Ni      2.4717151629     2.8266930914    21.0480225041
Ni      1.2299068735     0.7104763772    21.0524308875
Ni      7.3719860344     2.8367675372    21.0627424052
Ni      6.1420650693     0.7093742936    21.0508315376
Ni      8.6006847403     4.9660511002    21.0638902581
Ni      3.7056742815     2.1640171187    23.1022722135
Ni      1.2099274302     2.1296188024    23.0091851828
Ni      2.4466081615     4.2715556626    23.0041278285
Ni      6.1633260577     2.1302424890    23.0042488895
Ni     -0.0007688334    -0.0017498307    23.0283042313
Ni      2.4478489504    -0.0194374080    23.0080881578
Ni      7.3706859806     4.2553881655    23.0298947727
Ni      4.9267234574     4.2722949426    23.0044907460
Ni      4.9214641438    -0.0165361854    23.0119384232
O       3.6634842966     2.0991891859    24.8846275634
H       5.2773870338     2.8687870133    25.9657433077
H       3.7997716863     3.8927844965    25.9640303191
C       4.1610637545     2.8383706205    25.9669112828
O       4.1804970920     0.7571567179    27.2412272111
H       5.1579696754     0.8251872792    27.2397615084
C       3.7146385843     2.1088234602    27.2655912676
H       2.6146919908     2.0438091336    27.2642134486
C       4.1817580239     2.8259961673    28.5390551798
H       3.8342257096     3.8815433005    28.5454946075
H       5.2939964577     2.8226810669    28.5421611666
O       3.6808677934     2.1200037337    29.6871762800
H       4.0315937908     2.5926705709    30.4571629096
85
Step 4 | ATOMIC_POSITIONS (angstrom) | Cartesian Angstrom
Ni      1.2286390390     0.7093535490     9.0125970590
Ni      2.4572760100     2.8374169220     9.0125970590
Ni      3.6859498400     4.9655441370     9.0125970590
Ni      3.6859144660     0.7093535490     9.0125970590
Ni      4.9145514370     2.8374169220     9.0125970590
Ni      6.1432252670     4.9655441370     9.0125970590
Ni      6.1432636120     0.7093535490     9.0125970590
Ni      7.3719005830     2.8374169220     9.0125970590
Ni      8.6005744130     4.9655441370     9.0125970590
Ni      0.0000019230    -0.0000011100    11.0191845730
Ni      1.2286511800     2.1280835430    11.0191845730
Ni      2.4573004380     4.2561681970    11.0191845730
Ni      2.4573019230    -0.0000011100    11.0191845730
Ni      3.6859511800     2.1280835430    11.0191845730
Ni      4.9146004380     4.2561681970    11.0191845730
Ni      4.9146019230    -0.0000011100    11.0191845730
Ni      6.1432511800     2.1280835430    11.0191845730
Ni      7.3719004380     4.2561681970    11.0191845730
Ni      9.8291970100     5.6748892401    13.0324849556
Ni      4.9145980198     5.6748893593    13.0324852164
Ni      7.3718991758     1.4187202853    13.0324856500
Ni      8.6005492460     3.5468057814    13.0324864151
Ni      7.3718984520     5.6748900664    13.0324864346
Ni      2.4573016324     1.4187213286    13.0324867123
Ni      3.6859500153     3.5468058594    13.0324876950
Ni      6.1432488122     3.5468055587    13.0324879319
Ni      4.9146003559     1.4187209547    13.0324881305
Ni      4.9146024517     2.8374451427    15.0334585589
Ni      2.4573039655     2.8374470172    15.0334598186
Ni      6.1432518675     4.9655284072    15.0334598528
Ni      7.3719008977     2.8374462771    15.0334599804
Ni      3.6859555058     0.7093603620    15.0334602556
Ni      1.2286550209     0.7093609929    15.0334616076
Ni      3.6859521613     4.9655297045    15.0334616685
Ni      8.6005513471     4.9655301153    15.0334618667
Ni      6.1432529377     0.7093606827    15.0334623189
Ni      7.3718981461     4.2561658701    17.0436126492
Ni      2.4573001516     4.2561668027    17.0436139163
Ni      4.9146014848    -0.0000023770    17.0436145683
Ni      4.9146006221     4.2561672435    17.0436152860
Ni      0.0000023638    -0.0000021113    17.0436153847
Ni      6.1432512178     2.1280823767    17.0436158106
Ni      1.2286541909     2.1280837412    17.0436166733
Ni      2.4573047358    -0.0000005294    17.0436167517
Ni      3.6859557290     2.1280847607    17.0436183569
Ni      7.3732532641     1.4193817265    19.0435900848
Ni      9.8285228673     5.6749761102    19.0441964923
Ni      2.4548178611     1.4175014927    19.0415696678
Ni      4.9156926369     5.6756282309    19.0435984197
Ni      4.9157911260     1.4174524657    19.0423911020
Ni      3.6858662812     3.5488325491    19.0425733760
Ni      7.3715840040     5.6696925280    19.0437930976
Ni      8.5959616759     3.5484499371    19.0458999809
Ni      6.1462380773     3.5485156948    19.0474643473
Ni      4.8983539974     2.8274296431    21.0355686502
Ni      6.1464836267     4.9648326755    21.0638630809
Ni      3.6854620842     4.9663592064    21.0448529347
Ni      3.6846988905     0.7384165699    21.0505175968
Ni      2.4819270114     2.8194289848    21.0476950453
Ni      1.2300136631     0.7106983313    21.0512035491
Ni      7.3728889257     2.8387767268    21.0656797731
Ni      6.1416147247     0.7084349704    21.0483308584
Ni      8.5987345953     4.9656475955    21.0682605153
Ni      3.7175360133     2.1861772361    23.1435572417
Ni      1.2025984037     2.1295685482    22.9978536075
Ni      2.4414767285     4.2787557693    22.9902421457
Ni      6.1723339725     2.1302900727    22.9911362435
Ni     -0.0010004988    -0.0019463680    23.0321956544
Ni      2.4442672196    -0.0272148655    22.9957621028
Ni      7.3706379450     4.2559749031    23.0359463014
Ni      4.9326623422     4.2804991838    22.9923068784
Ni      4.9233819116    -0.0231796688    23.0026898253
O       3.6375581338     2.0779999604    24.9129165779
H       5.2714023324     2.8748553700    25.9625772449
H       3.8012027479     3.8937974431    25.9620614789
C       4.1591044023     2.8385857604    25.9797131961
O       4.1844159379     0.7505961340    27.2444210037
H       5.1536978377     0.8082263665    27.2402447698
C       3.7228937098     2.1087842641    27.2655191728
H       2.6285402841     2.0416693574    27.2650469278
C       4.1830412687     2.8279987751    28.5346538995
H       3.8380977174     3.8841313952    28.5315809070
H       5.2952911399     2.8338516118    28.5309158198
O       3.6762131164     2.1265210124    29.6806240785
H       4.0241789936     2.5842365684    30.4671084680
85
Step 5 | ATOMIC_POSITIONS (angstrom) | Cartesian Angstrom
Ni      1.2286390390     0.7093535490     9.0125970590
Ni      2.4572760100     2.8374169220     9.0125970590
Ni      3.6859498400     4.9655441370     9.0125970590
Ni      3.6859144660     0.7093535490     9.0125970590
Ni      4.9145514370     2.8374169220     9.0125970590
Ni      6.1432252670     4.9655441370     9.0125970590
Ni      6.1432636120     0.7093535490     9.0125970590
Ni      7.3719005830     2.8374169220     9.0125970590
Ni      8.6005744130     4.9655441370     9.0125970590
Ni      0.0000019230    -0.0000011100    11.0191845730
Ni      1.2286511800     2.1280835430    11.0191845730
Ni      2.4573004380     4.2561681970    11.0191845730
Ni      2.4573019230    -0.0000011100    11.0191845730
Ni      3.6859511800     2.1280835430    11.0191845730
Ni      4.9146004380     4.2561681970    11.0191845730
Ni      4.9146019230    -0.0000011100    11.0191845730
Ni      6.1432511800     2.1280835430    11.0191845730
Ni      7.3719004380     4.2561681970    11.0191845730
Ni      9.8291970100     5.6748892401    13.0324849556
Ni      4.9145980198     5.6748893593    13.0324852164
Ni      7.3718991758     1.4187202853    13.0324856500
Ni      8.6005492460     3.5468057814    13.0324864151
Ni      7.3718984520     5.6748900664    13.0324864346
Ni      2.4573016324     1.4187213286    13.0324867123
Ni      3.6859500153     3.5468058594    13.0324876950
Ni      6.1432488122     3.5468055587    13.0324879319
Ni      4.9146003559     1.4187209547    13.0324881305
Ni      4.9146024517     2.8374451427    15.0334585589
Ni      2.4573039655     2.8374470172    15.0334598186
Ni      6.1432518675     4.9655284072    15.0334598528
Ni      7.3719008977     2.8374462771    15.0334599804
Ni      3.6859555058     0.7093603620    15.0334602556
Ni      1.2286550209     0.7093609929    15.0334616076
Ni      3.6859521613     4.9655297045    15.0334616685
Ni      8.6005513471     4.9655301153    15.0334618667
Ni      6.1432529377     0.7093606827    15.0334623189
Ni      7.3718981461     4.2561658701    17.0436126492
Ni      2.4573001516     4.2561668027    17.0436139163
Ni      4.9146014848    -0.0000023770    17.0436145683
Ni      4.9146006221     4.2561672435    17.0436152860
Ni      0.0000023638    -0.0000021113    17.0436153847
Ni      6.1432512178     2.1280823767    17.0436158106
Ni      1.2286541909     2.1280837412    17.0436166733
Ni      2.4573047358    -0.0000005294    17.0436167517
Ni      3.6859557290     2.1280847607    17.0436183569
Ni      7.3734620728     1.4201063741    19.0439705035
Ni      9.8276682681     5.6745968215    19.0443085823
Ni      2.4540125458     1.4169318291    19.0405106685
Ni      4.9164869467     5.6755142788    19.0437573857
Ni      4.9163398333     1.4166556941    19.0410934665
Ni      3.6855934820     3.5497618784    19.0413874295
Ni      7.3717360650     5.6695579570    19.0451165316
Ni      8.5956606736     3.5487161842    19.0473236267
Ni      6.1467637655     3.5487379058    19.0483362409
Ni      4.8947178657     2.8253702495    21.0330673922
Ni      6.1502185939     4.9638766298    21.0623494431
Ni      3.6852092083     4.9680774903    21.0406152948
Ni      3.6848061916     0.7465447558    21.0539257276
Ni      2.4885461964     2.8152289513    21.0492828300
Ni      1.2290781621     0.7102049181    21.0494530988
Ni      7.3740489871     2.8421563085    21.0646584478
Ni      6.1419460765     0.7069467884    21.0457081438
Ni      8.5957953274     4.9647783008    21.0684741063
Ni      3.7246464685     2.1998239649    23.1699557327
Ni      1.2019683471     2.1288605867    22.9893750561
Ni      2.4399897193     4.2808612710    22.9806564021
Ni      6.1743716646     2.1293512172    22.9824148728
Ni     -0.0009582367    -0.0013343959    23.0354204028
Ni      2.4439053241    -0.0283374180    22.9864002193
Ni      7.3711191440     4.2570822202    23.0414829821
Ni      4.9348565331     4.2838268063    22.9845690389
Ni      4.9227595061    -0.0238488009    22.9957707839
O       3.6210659795     2.0675764098    24.9390035461
H       5.2655578184     2.8782656948    25.9552552319
H       3.8017722866     3.8880993070    25.9599000151
C       4.1571886220     2.8351470117    25.9949575319
O       4.1825146339     0.7531900186    27.2465291756
H       5.1582087552     0.7927319545    27.2407108011
C       3.7260846841     2.1100417015    27.2712897334
H       2.6341758352     2.0389864066    27.2659404481
C       4.1877046408     2.8303826720    28.5297488009
H       3.8410675293     3.8815244552    28.5211864011
H       5.2935577190     2.8418191344    28.5265163774
O       3.6769387246     2.1368620907    29.6756912354
H       4.0168776241     2.5758872819    30.4704397381
85
Step 6 | ATOMIC_POSITIONS (angstrom) | Cartesian Angstrom
Ni      1.2286390390     0.7093535490     9.0125970590
Ni      2.4572760100     2.8374169220     9.0125970590
Ni      3.6859498400     4.9655441370     9.0125970590
Ni      3.6859144660     0.7093535490     9.0125970590
Ni      4.9145514370     2.8374169220     9.0125970590
Ni      6.1432252670     4.9655441370     9.0125970590
Ni      6.1432636120     0.7093535490     9.0125970590
Ni      7.3719005830     2.8374169220     9.0125970590
Ni      8.6005744130     4.9655441370     9.0125970590
Ni      0.0000019230    -0.0000011100    11.0191845730
Ni      1.2286511800     2.1280835430    11.0191845730
Ni      2.4573004380     4.2561681970    11.0191845730
Ni      2.4573019230    -0.0000011100    11.0191845730
Ni      3.6859511800     2.1280835430    11.0191845730
Ni      4.9146004380     4.2561681970    11.0191845730
Ni      4.9146019230    -0.0000011100    11.0191845730
Ni      6.1432511800     2.1280835430    11.0191845730
Ni      7.3719004380     4.2561681970    11.0191845730
Ni      9.8291970100     5.6748892401    13.0324849556
Ni      4.9145980198     5.6748893593    13.0324852164
Ni      7.3718991758     1.4187202853    13.0324856500
Ni      8.6005492460     3.5468057814    13.0324864151
Ni      7.3718984520     5.6748900664    13.0324864346
Ni      2.4573016324     1.4187213286    13.0324867123
Ni      3.6859500153     3.5468058594    13.0324876950
Ni      6.1432488122     3.5468055587    13.0324879319
Ni      4.9146003559     1.4187209547    13.0324881305
Ni      4.9146024517     2.8374451427    15.0334585589
Ni      2.4573039655     2.8374470172    15.0334598186
Ni      6.1432518675     4.9655284072    15.0334598528
Ni      7.3719008977     2.8374462771    15.0334599804
Ni      3.6859555058     0.7093603620    15.0334602556
Ni      1.2286550209     0.7093609929    15.0334616076
Ni      3.6859521613     4.9655297045    15.0334616685
Ni      8.6005513471     4.9655301153    15.0334618667
Ni      6.1432529377     0.7093606827    15.0334623189
Ni      7.3718981461     4.2561658701    17.0436126492
Ni      2.4573001516     4.2561668027    17.0436139163
Ni      4.9146014848    -0.0000023770    17.0436145683
Ni      4.9146006221     4.2561672435    17.0436152860
Ni      0.0000023638    -0.0000021113    17.0436153847
Ni      6.1432512178     2.1280823767    17.0436158106
Ni      1.2286541909     2.1280837412    17.0436166733
Ni      2.4573047358    -0.0000005294    17.0436167517
Ni      3.6859557290     2.1280847607    17.0436183569
Ni      7.3734310088     1.4209882532    19.0437999485
Ni      9.8266311894     5.6740507935    19.0434702414
Ni      2.4535240851     1.4164463835    19.0390224567
Ni      4.9174053405     5.6751802458    19.0431917614
Ni      4.9167789545     1.4159285121    19.0390440841
Ni      3.6852850616     3.5504957122    19.0394439858
Ni      7.3719927234     5.6709237994    19.0460677087
Ni      8.5965853160     3.5485479233    19.0479984015
Ni      6.1466001949     3.5485423213    19.0479087649
Ni      4.8936056842     2.8250376425    21.0330515497
Ni      6.1544156696     4.9625934965    21.0581265937
Ni      3.6851260038     4.9704916819    21.0365521953
Ni      3.6853912627     0.7511606296    21.0582375590
Ni      2.4921167222     2.8137332758    21.0519678942
Ni      1.2271285014     0.7090819053    21.0470895744
Ni      7.3752951990     2.8463906630    21.0608859343
Ni      6.1430972948     0.7050656922    21.0429529896
Ni      8.5923046850     4.9636386899    21.0655468224
Ni      3.7277205307     2.2061693696    23.1893757826
Ni      1.2061975697     2.1277794029    22.9833175777
Ni      2.4413325400     4.2793557645    22.9746770679
Ni      6.1712761582     2.1277404829    22.9771521850
Ni     -0.0007316772    -0.0001221243    23.0381124420
Ni      2.4457807008    -0.0245942245    22.9795899355
Ni      7.3719434591     4.2584370147    23.0464195550
Ni      4.9343424040     4.2838074202    22.9802502189
Ni      4.9205628022    -0.0200003260    22.9909220965
O       3.6102978380     2.0632268765    24.9556941766
H       5.2615673435     2.8788789706    25.9466171839
H       3.8008851032     3.8794005182    25.9592849718
C       4.1547762039     2.8320822758    26.0067110108
O       4.1851329723     0.7571247825    27.2488096185
H       5.1600676241     0.7794473864    27.2412352648
C       3.7287234446     2.1116062459    27.2807494534
H       2.6326170262     2.0365811646    27.2680525445
C       4.1895487241     2.8335108319    28.5291447067
H       3.8428663992     3.8788217471    28.5128424407
H       5.2953968086     2.8472236527    28.5265383535
O       3.6774275981     2.1436378654    29.6681691055
H       4.0130551709     2.5720548050    30.4738795705
85
Step 7 | ATOMIC_POSITIONS (angstrom) | Cartesian Angstrom
Ni      1.2286390390     0.7093535490     9.0125970590
Ni      2.4572760100     2.8374169220     9.0125970590
Ni      3.6859498400     4.9655441370     9.0125970590
Ni      3.6859144660     0.7093535490     9.0125970590
Ni      4.9145514370     2.8374169220     9.0125970590
Ni      6.1432252670     4.9655441370     9.0125970590
Ni      6.1432636120     0.7093535490     9.0125970590
Ni      7.3719005830     2.8374169220     9.0125970590
Ni      8.6005744130     4.9655441370     9.0125970590
Ni      0.0000019230    -0.0000011100    11.0191845730
Ni      1.2286511800     2.1280835430    11.0191845730
Ni      2.4573004380     4.2561681970    11.0191845730
Ni      2.4573019230    -0.0000011100    11.0191845730
Ni      3.6859511800     2.1280835430    11.0191845730
Ni      4.9146004380     4.2561681970    11.0191845730
Ni      4.9146019230    -0.0000011100    11.0191845730
Ni      6.1432511800     2.1280835430    11.0191845730
Ni      7.3719004380     4.2561681970    11.0191845730
Ni      9.8291970100     5.6748892401    13.0324849556
Ni      4.9145980198     5.6748893593    13.0324852164
Ni      7.3718991758     1.4187202853    13.0324856500
Ni      8.6005492460     3.5468057814    13.0324864151
Ni      7.3718984520     5.6748900664    13.0324864346
Ni      2.4573016324     1.4187213286    13.0324867123
Ni      3.6859500153     3.5468058594    13.0324876950
Ni      6.1432488122     3.5468055587    13.0324879319
Ni      4.9146003559     1.4187209547    13.0324881305