72
Step 1 | ATOMIC_POSITIONS (angstrom) | Cartesian Angstrom
Ni      1.2286390390     0.7093535490     9.0128649340
Ni      0.0000019230    -0.0000011100    11.0189462060
Ni      2.4573306381     1.4187390661    13.0274115818
Ni      1.2336779591     0.7122614028    15.0230960072
Ni      2.4572760100     2.8374169220     9.0128649340
Ni      1.2286511800     2.1280835430    11.0189462060
Ni      3.6860621205     3.5469698536    13.0270280100
Ni      2.4638900467     2.8410420000    15.0221537438
Ni      3.6859498400     4.9655441370     9.0128649340
Ni      2.4573004370     4.2561681970    11.0189462060
Ni      4.9147952629     5.6749237851    13.0269415219
Ni      3.6939643945     4.9678176047    15.0164926743
Ni      3.6859144660     0.7093535490     9.0128649340
Ni      2.4573019230    -0.0000011100    11.0189462060
Ni      4.9147980381     1.4187373717    13.0270282917
Ni      3.6923612639     0.7132673756    15.0221543471
Ni      4.9145514370     2.8374169220     9.0128649340
Ni      3.6859511800     2.1280835430    11.0189462060
Ni      6.1435547107     3.5469824644    13.0266419061
Ni      4.9226480210     2.8420911619    15.0207448232
Ni      6.1432252670     4.9655441370     9.0128649340
Ni      4.9146004370     4.2561681970    11.0189462060
Ni      7.3722975861     5.6749464756    13.0265154683
Ni      6.1526899516     4.9689400371    15.0146632619
Ni      6.1432636120     0.7093535490     9.0128649340
Ni      4.9146019230    -0.0000011100    11.0189462060
Ni      7.3720288663     1.4188744052    13.0269417302
Ni      6.1492414582     0.7151552405    15.0164932778
Ni      7.3719005830     2.8374169220     9.0128649340
Ni      6.1432511800     2.1280835430    11.0189462060
Ni      8.6007987786     3.5471228388    13.0265152815
Ni      7.3795755733     2.8439142784    15.0146633748
Ni      8.6005744130     4.9655441370     9.0128649340
Ni      7.3719004370     4.2561681970    11.0189462060
Ni      9.8295050683     5.6750655139    13.0264006434
Ni      8.6095910316     4.9707480916    15.0081099995
Cu      0.1337986655     0.0772443399    23.2409730512
Cu      1.3940139403     2.2471561483    23.2343881002
Cu      2.6565293942     4.4133198982    23.2361460542
Cu      2.6431052253     0.0836670979    23.2343877486
Cu      0.1361581119     0.0786071480    17.0347792081
Cu      2.6638647160     1.5379799903    19.1034806578
Cu      1.4011956738     0.8089766382    21.1836773260
Cu      3.9035045930     2.2536856949    23.2278979749
Cu      1.3902127355     2.2470522793    17.0437801322
Cu      3.9232246419     3.7071585318    19.1043473314
Cu      2.6611483633     2.9759106832    21.1787954971
Cu      5.1633516644     4.4245648371    23.2294459167
Cu      5.1503161638     0.0939569347    23.2361462406
Cu      2.6411134037     0.0804291461    17.0437801691
Cu      5.1721087199     1.5440292598    19.1043474584
Cu      3.9077914924     0.8166616431    21.1787954814
Cu      6.4134644326     2.2593061375    23.2294463202
Cu      3.8958681985     2.2492782705    17.0500367595
Cu      6.4317313860     3.7133595304    19.1051163910
Cu      5.1675367620     2.9834757525    21.1738203567
Cu      7.6732147612     4.4301298261    23.2311560738
Cu      2.6506536570     4.4111006801    17.0456190060
Cu      5.1829104119     5.8697955998    19.1034150713
Cu      3.9239362547     5.1390703800    21.1735774867
Cu      5.1535289344     4.4179917024    17.0523144719
Cu      7.6885155303     5.8806262147    19.1043874433
Cu      6.4276203893     5.1514926464    21.1688068642
Cu      5.1454549969     0.0899793705    17.0456193420
Cu      7.6748501318     1.5536311314    19.1034150097
Cu      6.4125372822     0.8286892089    21.1735775132
Cu      6.4028598096     2.2540885743    17.0523147912
Cu      8.9370318643     3.7181339968    19.1043872091
Cu      7.6751361419     2.9907325841    21.1688067134
Cu      7.6602843278     4.4226654154    17.0552755347
Cu     10.1931169076     5.8849971415    19.1067315005
Cu      8.9350769004     5.1586666828    21.1635846093
72
Step 2 | ATOMIC_POSITIONS (angstrom) | Cartesian Angstrom
Ni      1.2286390390     0.7093535490     9.0128649340
Ni      0.0000019230    -0.0000011100    11.0189462060
Ni      2.4577784906     1.4189973227    13.0278114808
Ni      1.2432489790     0.7177873668    15.0098598552
Ni      2.4572760100     2.8374169220     9.0128649340
Ni      1.2286511800     2.1280835430    11.0189462060
Ni      3.6866264370     3.5470082022    13.0268196551
Ni      2.4746226734     2.8466723294    15.0094988438
Ni      3.6859498400     4.9655441370     9.0128649340
Ni      2.4573004370     4.2561681970    11.0189462060
Ni      4.9155344095     5.6755488995    13.0262723166
Ni      3.7058687386     4.9721148063    14.9992154838
Ni      3.6859144660     0.7093535490     9.0128649340
Ni      2.4573019230    -0.0000011100    11.0189462060
Ni      4.9151137741     1.4192064172    13.0268200204
Ni      3.7026038576     0.7197468524    15.0094990736
Ni      4.9145514370     2.8374169220     9.0128649340
Ni      3.6859511800     2.1280835430    11.0189462060
Ni      6.1440027309     3.5472408106    13.0257755255
Ni      4.9342936671     2.8488145117    15.0083178147
Ni      6.1432252670     4.9655441370     9.0128649340
Ni      4.9146004370     4.2561681970    11.0189462060
Ni      7.3729497523     5.6758546404    13.0252025085
Ni      6.1653297015     4.9743449861    14.9978381429
Ni      6.1432636120     0.7093535490     9.0128649340
Ni      4.9146019230    -0.0000011100    11.0189462060
Ni      7.3729391956     1.4192019613    13.0262724771
Ni      6.1589148438     0.7233163327    14.9992157757
Ni      7.3719005830     2.8374169220     9.0128649340
Ni      6.1432511800     2.1280835430    11.0189462060
Ni      8.6019108321     3.5472335777    13.0252021454
Ni      7.3905758986     2.8521578808    14.9978382150
Ni      8.6005744130     4.9655441370     9.0128649340
Ni      7.3719004370     4.2561681970    11.0189462060
Ni      9.8308631633     5.6758503514    13.0246531739
Ni      8.6215819673     4.9776713243    14.9874286785
Cu      0.1634665105     0.0943729509    23.2465379638
Cu      1.4187281571     2.2407703063    23.2344831106
Cu      2.6753230319     4.3827742532    23.2367571198
Cu      2.6499321040     0.1082632886    23.2344828874
Cu      0.1643829750     0.0949028990    17.0344542957
Cu      2.6912103512     1.5537679488    19.1063585032
Cu      1.4322287405     0.8268937206    21.1978360034
Cu      3.9047128829     2.2543833191    23.2219352836
Cu      1.4073503396     2.2389099744    17.0492699163
Cu      3.9446716622     3.6983458090    19.1076737039
Cu      2.6866895282     2.9681384935    21.1892346540
Cu      5.1585542445     4.4014651628    23.2242011775
Cu      5.1332595162     0.1255054769    23.2367572239
Cu      2.6426308547     0.0993419337    17.0492701440
Cu      5.1752001490     1.5670090762    19.1076737277
Cu      3.9138314326     0.8426671341    21.1892346891
Cu      6.3910608895     2.2667014595    23.2242015106
Cu      3.8858331983     2.2434844416    17.0610633845
Cu      6.4285434092     3.7115189122    19.1090352463
Cu      5.1675062146     2.9834580800    21.1800065482
Cu      7.6451131588     4.4139053364    23.2264491630
Cu      2.6599072500     4.3780897977    17.0516085649
Cu      5.1941661929     5.8364490085    19.1065617505
Cu      3.9435455896     5.1063578567    21.1804040103
Cu      5.1357082575     4.3871545925    17.0636326874
Cu      7.6755176770     5.8537123952    19.1080676099
Cu      6.4218694554     5.1260335723    21.1711674328
Cu      5.1214936572     0.1144987573    17.0516088205
Cu      7.6515990090     1.5800522373    19.1065616034
Cu      6.3940119052     0.8620276464    21.1804039863
Cu      6.3672437515     2.2540737596    17.0636328411
Cu      8.9072246673     3.7203344493    19.1080674025
Cu      7.6502125981     2.9984815602    21.1711673656
Cu      7.6176679277     4.3980608392    17.0671372125
Cu     10.1542048467     5.8625313293    19.1107902142
Cu      8.9048031181     5.1411881959    21.1627229255
