72
Step 1 | ATOMIC_POSITIONS (angstrom) | Cartesian Angstrom
Ni      1.2286390390     0.7093535490     9.0128649340
Ni      0.0000019230    -0.0000011100    11.0189462060
Ni      2.4573306381     1.4187390661    13.0274115818
Ni      1.2336779591     0.7122614028    15.0230960072
Ni      2.4572760100     2.8374169220     9.0128649340
Ni      1.2286511800     2.1280835430    11.0189462060
Ni      3.6860621205     3.5469698536    13.0270280100
Ni      2.4638900467     2.8410420000    15.0221537438
Ni      3.6859498400     4.9655441370     9.0128649340
Ni      2.4573004370     4.2561681970    11.0189462060
Ni      4.9147952629     5.6749237851    13.0269415219
Ni      3.6939643945     4.9678176047    15.0164926743
Ni      3.6859144660     0.7093535490     9.0128649340
Ni      2.4573019230    -0.0000011100    11.0189462060
Ni      4.9147980381     1.4187373717    13.0270282917
Ni      3.6923612639     0.7132673756    15.0221543471
Ni      4.9145514370     2.8374169220     9.0128649340
Ni      3.6859511800     2.1280835430    11.0189462060
Ni      6.1435547107     3.5469824644    13.0266419061
Ni      4.9226480210     2.8420911619    15.0207448232
Ni      6.1432252670     4.9655441370     9.0128649340
Ni      4.9146004370     4.2561681970    11.0189462060
Ni      7.3722975861     5.6749464756    13.0265154683
Ni      6.1526899516     4.9689400371    15.0146632619
Ni      6.1432636120     0.7093535490     9.0128649340
Ni      4.9146019230    -0.0000011100    11.0189462060
Ni      7.3720288663     1.4188744052    13.0269417302
Ni      6.1492414582     0.7151552405    15.0164932778
Ni      7.3719005830     2.8374169220     9.0128649340
Ni      6.1432511800     2.1280835430    11.0189462060
Ni      8.6007987786     3.5471228388    13.0265152815
Ni      7.3795755733     2.8439142784    15.0146633748
Ni      8.6005744130     4.9655441370     9.0128649340
Ni      7.3719004370     4.2561681970    11.0189462060
Ni      9.8295050683     5.6750655139    13.0264006434
Ni      8.6095910316     4.9707480916    15.0081099995
Cu      0.1337986655     0.0772443399    23.2409730512
Cu      1.3940139403     2.2471561483    23.2343881002
Cu      2.6565293942     4.4133198982    23.2361460542
Cu      2.6431052253     0.0836670979    23.2343877486
Cu      0.1361581119     0.0786071480    17.0347792081
Cu      2.6638647160     1.5379799903    19.1034806578
Cu      1.4011956738     0.8089766382    21.1836773260
Cu      3.9035045930     2.2536856949    23.2278979749
Cu      1.3902127355     2.2470522793    17.0437801322
Cu      3.9232246419     3.7071585318    19.1043473314
Cu      2.6611483633     2.9759106832    21.1787954971
Cu      5.1633516644     4.4245648371    23.2294459167
Cu      5.1503161638     0.0939569347    23.2361462406
Cu      2.6411134037     0.0804291461    17.0437801691
Cu      5.1721087199     1.5440292598    19.1043474584
Cu      3.9077914924     0.8166616431    21.1787954814
Cu      6.4134644326     2.2593061375    23.2294463202
Cu      3.8958681985     2.2492782705    17.0500367595
Cu      6.4317313860     3.7133595304    19.1051163910
Cu      5.1675367620     2.9834757525    21.1738203567
Cu      7.6732147612     4.4301298261    23.2311560738
Cu      2.6506536570     4.4111006801    17.0456190060
Cu      5.1829104119     5.8697955998    19.1034150713
Cu      3.9239362547     5.1390703800    21.1735774867
Cu      5.1535289344     4.4179917024    17.0523144719
Cu      7.6885155303     5.8806262147    19.1043874433
Cu      6.4276203893     5.1514926464    21.1688068642
Cu      5.1454549969     0.0899793705    17.0456193420
Cu      7.6748501318     1.5536311314    19.1034150097
Cu      6.4125372822     0.8286892089    21.1735775132
Cu      6.4028598096     2.2540885743    17.0523147912
Cu      8.9370318643     3.7181339968    19.1043872091
Cu      7.6751361419     2.9907325841    21.1688067134
Cu      7.6602843278     4.4226654154    17.0552755347
Cu     10.1931169076     5.8849971415    19.1067315005
Cu      8.9350769004     5.1586666828    21.1635846093
72
Step 2 | ATOMIC_POSITIONS (angstrom) | Cartesian Angstrom
Ni      1.2286390390     0.7093535490     9.0128649340
Ni      0.0000019230    -0.0000011100    11.0189462060
Ni      2.4577784906     1.4189973227    13.0278114808
Ni      1.2432489790     0.7177873668    15.0098598552
Ni      2.4572760100     2.8374169220     9.0128649340
Ni      1.2286511800     2.1280835430    11.0189462060
Ni      3.6866264370     3.5470082022    13.0268196551
Ni      2.4746226734     2.8466723294    15.0094988438
Ni      3.6859498400     4.9655441370     9.0128649340
Ni      2.4573004370     4.2561681970    11.0189462060
Ni      4.9155344095     5.6755488995    13.0262723166
Ni      3.7058687386     4.9721148063    14.9992154838
Ni      3.6859144660     0.7093535490     9.0128649340
Ni      2.4573019230    -0.0000011100    11.0189462060
Ni      4.9151137741     1.4192064172    13.0268200204
Ni      3.7026038576     0.7197468524    15.0094990736
Ni      4.9145514370     2.8374169220     9.0128649340
Ni      3.6859511800     2.1280835430    11.0189462060
Ni      6.1440027309     3.5472408106    13.0257755255
Ni      4.9342936671     2.8488145117    15.0083178147
Ni      6.1432252670     4.9655441370     9.0128649340
Ni      4.9146004370     4.2561681970    11.0189462060
Ni      7.3729497523     5.6758546404    13.0252025085
Ni      6.1653297015     4.9743449861    14.9978381429
Ni      6.1432636120     0.7093535490     9.0128649340
Ni      4.9146019230    -0.0000011100    11.0189462060
Ni      7.3729391956     1.4192019613    13.0262724771
Ni      6.1589148438     0.7233163327    14.9992157757
Ni      7.3719005830     2.8374169220     9.0128649340
Ni      6.1432511800     2.1280835430    11.0189462060
Ni      8.6019108321     3.5472335777    13.0252021454
Ni      7.3905758986     2.8521578808    14.9978382150
Ni      8.6005744130     4.9655441370     9.0128649340
Ni      7.3719004370     4.2561681970    11.0189462060
Ni      9.8308631633     5.6758503514    13.0246531739
Ni      8.6215819673     4.9776713243    14.9874286785
Cu      0.1634665105     0.0943729509    23.2465379638
Cu      1.4187281571     2.2407703063    23.2344831106
Cu      2.6753230319     4.3827742532    23.2367571198
Cu      2.6499321040     0.1082632886    23.2344828874
Cu      0.1643829750     0.0949028990    17.0344542957
Cu      2.6912103512     1.5537679488    19.1063585032
Cu      1.4322287405     0.8268937206    21.1978360034
Cu      3.9047128829     2.2543833191    23.2219352836
Cu      1.4073503396     2.2389099744    17.0492699163
Cu      3.9446716622     3.6983458090    19.1076737039
Cu      2.6866895282     2.9681384935    21.1892346540
Cu      5.1585542445     4.4014651628    23.2242011775
Cu      5.1332595162     0.1255054769    23.2367572239
Cu      2.6426308547     0.0993419337    17.0492701440
Cu      5.1752001490     1.5670090762    19.1076737277
Cu      3.9138314326     0.8426671341    21.1892346891
Cu      6.3910608895     2.2667014595    23.2242015106
Cu      3.8858331983     2.2434844416    17.0610633845
Cu      6.4285434092     3.7115189122    19.1090352463
Cu      5.1675062146     2.9834580800    21.1800065482
Cu      7.6451131588     4.4139053364    23.2264491630
Cu      2.6599072500     4.3780897977    17.0516085649
Cu      5.1941661929     5.8364490085    19.1065617505
Cu      3.9435455896     5.1063578567    21.1804040103
Cu      5.1357082575     4.3871545925    17.0636326874
Cu      7.6755176770     5.8537123952    19.1080676099
Cu      6.4218694554     5.1260335723    21.1711674328
Cu      5.1214936572     0.1144987573    17.0516088205
Cu      7.6515990090     1.5800522373    19.1065616034
Cu      6.3940119052     0.8620276464    21.1804039863
Cu      6.3672437515     2.2540737596    17.0636328411
Cu      8.9072246673     3.7203344493    19.1080674025
Cu      7.6502125981     2.9984815602    21.1711673656
Cu      7.6176679277     4.3980608392    17.0671372125
Cu     10.1542048467     5.8625313293    19.1107902142
Cu      8.9048031181     5.1411881959    21.1627229255
72
Step 3 | ATOMIC_POSITIONS (angstrom) | Cartesian Angstrom
Ni      1.2286390390     0.7093535490     9.0128649340
Ni      0.0000019230    -0.0000011100    11.0189462060
Ni      2.4588768964     1.4196314045    13.0253493049
Ni      1.2540580617     0.7240281413    14.9981711756
Ni      2.4572760100     2.8374169220     9.0128649340
Ni      1.2286511800     2.1280835430    11.0189462060
Ni      3.6878384426     3.5471140784    13.0239239167
Ni      2.4856243799     2.8524180333    14.9996303396
Ni      3.6859498400     4.9655441370     9.0128649340
Ni      2.4573004370     4.2561681970    11.0189462060
Ni      4.9170108269     5.6766425953    13.0227858262
Ni      3.7173044485     4.9773295780    14.9882538626
Ni      3.6859144660     0.7093535490     9.0128649340
Ni      2.4573019230    -0.0000011100    11.0189462060
Ni      4.9158117280     1.4202028554    13.0239241546
Ni      3.7130807963     0.7264018627    14.9996304875
Ni      4.9145514370     2.8374169220     9.0128649340
Ni      3.6859511800     2.1280835430    11.0189462060
Ni      6.1448631817     3.5477373943    13.0224065162
Ni      4.9451688024     2.8550930977    15.0001652114
Ni      6.1432252670     4.9655441370     9.0128649340
Ni      4.9146004370     4.2561681970    11.0189462060
Ni      7.3740813088     5.6773721117    13.0212803559
Ni      6.1765798866     4.9801219581    14.9888617205
Ni      6.1432636120     0.7093535490     9.0128649340
Ni      4.9146019230    -0.0000011100    11.0189462060
Ni      7.3746242714     1.4199337934    13.0227859779
Ni      6.1691486916     0.7306127227    14.9882539200
Ni      7.3719005830     2.8374169220     9.0128649340
Ni      6.1432511800     2.1280835430    11.0189462060
Ni      8.6037904949     3.5474547781    13.0212800706
Ni      7.4012038445     2.8590122438    14.9888617314
Ni      8.6005744130     4.9655441370     9.0128649340
Ni      7.3719004370     4.2561681970    11.0189462060
Ni      9.8330581722     5.6771180448    13.0201800845
Ni      8.6326420037     4.9840568455    14.9780932522
Cu      0.1855882395     0.1071449053    23.2487668229
Cu      1.4361933885     2.2384123990    23.2352457560
Cu      2.6865936091     4.3656348960    23.2364564823
Cu      2.6566228629     0.1245677073    23.2352455259
Cu      0.1809787068     0.1044845874    17.0376316999
Cu      2.7080808468     1.5635080566    19.1121781038
Cu      1.4535975186     0.8392309907    21.2050379084
Cu      3.9064226413     2.2553704983    23.2208708196
Cu      1.4160644884     2.2330076107    17.0525805744
Cu      3.9561035141     3.6921576929    19.1131375105
Cu      2.7026405341     2.9653232956    21.1952758606
Cu      5.1550347550     4.3860533075    23.2221317389
Cu      5.1240516344     0.1438356338    23.2364565016
Cu      2.6418764192     0.1098397988    17.0525809741
Cu      5.1755568934     1.5800033760    19.1131375466
Cu      3.9193690082     0.8578887600    21.1952758831
Cu      6.3759542173     2.2713595719    23.2221319755
Cu      3.8766683651     2.2381930750    17.0655125455
Cu      6.4232849242     3.7084828996    19.1142208849
Cu      5.1676869248     2.9835623567    21.1848567458
Cu      7.6248416466     4.4022015993    23.2231116251
Cu      2.6615449158     4.3583075922    17.0539953255
Cu      5.1965589199     5.8177873372    19.1117645616
Cu      3.9532522412     5.0898602674    21.1868274041
Cu      5.1205830751     4.3659054672    17.0667403637
Cu      7.6625612080     5.8362432909    19.1130179273
Cu      6.4167468131     5.1105837521    21.1761687288
Cu      5.1051807117     0.1258081046    17.0539955006
Cu      7.6366339006     1.5914552542    19.1117644079
Cu      6.3845777868     0.8786826211    21.1868273580
Cu      6.3412787410     2.2515993634    17.0667405333
Cu      8.8856176633     3.7178482613    19.1130177455
Cu      7.6342713100     3.0017701095    21.1761686911
Cu      7.5860263866     4.3797926389    17.0690069833
Cu     10.1254092864     5.8459061855    19.1144444355
Cu      8.8836317156     5.1289649625    21.1683116678
72
Step 4 | ATOMIC_POSITIONS (angstrom) | Cartesian Angstrom
Ni      1.2286390390     0.7093535490     9.0128649340
Ni      0.0000019230    -0.0000011100    11.0189462060
Ni      2.4603453978     1.4204791577    13.0218276263
Ni      1.2618878559     0.7285486571    14.9920234647
Ni      2.4572760100     2.8374169220     9.0128649340
Ni      1.2286511800     2.1280835430    11.0189462060
Ni      3.6893564640     3.5475027368    13.0203958605
Ni      2.4930932890     2.8564585850    14.9949384797
Ni      3.6859498400     4.9655441370     9.0128649340
Ni      2.4573004370     4.2561681970    11.0189462060
Ni      4.9187654126     5.6776422977    13.0189067962
Ni      3.7246921542     4.9816151042    14.9849066028
Ni      3.6859144660     0.7093535490     9.0128649340
Ni      2.4573019230    -0.0000011100    11.0189462060
Ni      4.9169074389     1.4213230111    13.0203960676
Ni      3.7203145857     0.7308498271    14.9949386149
Ni      4.9145514370     2.8374169220     9.0128649340
Ni      3.6859511800     2.1280835430    11.0189462060
Ni      6.1460677395     3.5484327782    13.0188725323
Ni      4.9520848793     2.8590859472    14.9969990716
Ni      6.1432252670     4.9655441370     9.0128649340
Ni      4.9146004370     4.2561681970    11.0189462060
Ni      7.3755061494     5.6786597701    13.0174205071
Ni      6.1834771049     4.9843851148    14.9871068840
Ni      6.1432636120     0.7093535490     9.0128649340
Ni      4.9146019230    -0.0000011100    11.0189462060
Ni      7.3763671444     1.4209534940    13.0189069434
Ni      6.1765537871     0.7348679826    14.9849066965
Ni      7.3719005830     2.8374169220     9.0128649340
Ni      6.1432511800     2.1280835430    11.0189462060
Ni      8.6056179249     3.5480449185    13.0174203160
Ni      7.4083443181     2.8628538580    14.9871068601
Ni      8.6005744130     4.9655441370     9.0128649340
Ni      7.3719004370     4.2561681970    11.0189462060
Ni      9.8351076162     5.6783014734    13.0159852151
Ni      8.6398031175     4.9881913907    14.9778167741
Cu      0.1958806671     0.1130871341    23.2484402810
Cu      1.4430827406     2.2398944567    23.2365157506
Cu      2.6895727255     4.3625881939    23.2362254571
Cu      2.6613509208     0.1297930927    23.2365155177
Cu      0.1848076899     0.1066953122    17.0412603610
Cu      2.7125259767     1.5660744142    19.1175425180
Cu      1.4619589831     0.8440584707    21.2057185201
Cu      3.9078918023     2.2562187078    23.2237467248
Cu      1.4162337718     2.2307771978    17.0535263422
Cu      3.9567903548     3.6902020106    19.1177387912
Cu      2.7071140430     2.9669510227    21.1966906996
Cu      5.1531196810     4.3813645718    23.2234098231
Cu      5.1229026237     0.1479389915    23.2362254445
Cu      2.6400295020     0.1111015774    17.0535267369
Cu      5.1742065967     1.5815759923    19.1177388599
Cu      3.9230153878     0.8609491052    21.1966906949
Cu      6.3709360242     2.2720455499    23.2234100360
Cu      3.8710346235     2.2349404014    17.0645049013
Cu      6.4182199815     3.7055586569    19.1180110222
Cu      5.1677865240     2.9836198342    21.1873137134
Cu      7.6163247455     4.3972843547    23.2226300518
Cu      2.6577780326     4.3529049325    17.0537709804
Cu      5.1927609358     5.8136625001    19.1159677626
Cu      3.9536634394     5.0885826821    21.1907910976
Cu      5.1116364228     4.3583044525    17.0643298882
Cu      7.6536467849     5.8302905388    19.1165219270
Cu      6.4131303939     5.1070319381    21.1811225579
Cu      5.0986183382     0.1252471939    17.0537711447
Cu      7.6311627317     1.5902285444    19.1159675940
Cu      6.3836769485     0.8796775341    21.1907909990
Cu      6.3302227957     2.2476518117    17.0643299276
Cu      8.8760052006     3.7131045174    19.1165218341
Cu      7.6293871541     3.0004141469    21.1811225146
Cu      7.5714428850     4.3713728751    17.0651766466
Cu     10.1119070074     5.8381106067    19.1167171597
Cu      8.8749176068     5.1239338092    21.1757714900
72
Step 5 | ATOMIC_POSITIONS (angstrom) | Cartesian Angstrom
Ni      1.2286390390     0.7093535490     9.0128649340
Ni      0.0000019230    -0.0000011100    11.0189462060
Ni      2.4629267992     1.4219694562    13.0164334217
Ni      1.2722632926     0.7345388490    14.9854095142
Ni      2.4572760100     2.8374169220     9.0128649340
Ni      1.2286511800     2.1280835430    11.0189462060
Ni      3.6919691432     3.5484717621    13.0152731256
Ni      2.5028169923     2.8619124614    14.9898891650
Ni      3.6859498400     4.9655441370     9.0128649340
Ni      2.4573004370     4.2561681970    11.0189462060
Ni      4.9216865032     5.6790891845    13.0134631977
Ni      3.7341663241     4.9877712103    14.9825173492
Ni      3.6859144660     0.7093535490     9.0128649340
Ni      2.4573019230    -0.0000011100    11.0189462060
Ni      4.9190531033     1.4231010110    13.0152732925
Ni      3.7298997611     0.7365438470    14.9898892831
Ni      4.9145514370     2.8374169220     9.0128649340
Ni      3.6859511800     2.1280835430    11.0189462060
Ni      6.1483215101     3.5497338955    13.0140385207
Ni      4.9609858134     2.8642247577    14.9936842229
Ni      6.1432252670     4.9655441370     9.0128649340
Ni      4.9146004370     4.2561681970    11.0189462060
Ni      7.3780413191     5.6803918025    13.0122931578
Ni      6.1922412379     4.9902504105    14.9864862402
Ni      6.1432636120     0.7093535490     9.0128649340
Ni      4.9146019230    -0.0000011100    11.0189462060
Ni      7.3790805338     1.4227598033    13.0134633012
Ni      6.1866220815     0.7399948622    14.9825174191
Ni      7.3719005830     2.8374169220     9.0128649340
Ni      6.1432511800     2.1280835430    11.0189462060
Ni      8.6083853139     3.5493744393    13.0122930303
Ni      7.4178057374     2.8675112064    14.9864861134
Ni      8.6005744130     4.9655441370     9.0128649340
Ni      7.3719004370     4.2561681970    11.0189462060
Ni      9.8381400009     5.6800524154    13.0105412986
Ni      8.6491649421     4.9935965959    14.9798427839
Cu      0.2069213920     0.1194614670    23.2473504129
Cu      1.4495106254     2.2434710955    23.2387263729
Cu      2.6910555286     4.3633372781    23.2363598754
Cu      2.6676622548     0.1335715866    23.2387261696
Cu      0.1857061909     0.1072140968    17.0462359121
Cu      2.7143359197     1.5671193416    19.1246264235
Cu      1.4697139716     0.8485358285    21.2049564054
Cu      3.9098945609     2.2573749659    23.2293358056
Cu      1.4132803252     2.2287277077    17.0541072339
Cu      3.9536824977     3.6888492449    19.1236190930
Cu      2.7097775781     2.9707149353    21.1976693207
Cu      5.1507162059     4.3786167768    23.2268155400
Cu      5.1242927141     0.1488486374    23.2363598583
Cu      2.6367779190     0.1095685665    17.0541075497
Cu      5.1714811372     1.5795608184    19.1236191536
Cu      3.9276067779     0.8613738509    21.1976693050
Cu      6.3673545828     2.2713380622    23.2268157122
Cu      3.8639357948     2.2308418180    17.0615134197
Cu      6.4106823321     3.7012067844    19.1226220832
Cu      5.1677431941     2.9835948423    21.1904649810
Cu      7.6081526749     4.3925661800    23.2236390116
Cu      2.6501430181     4.3498825600    17.0527800201
Cu      5.1848772778     5.8121736528    19.1214420765
Cu      3.9510236689     5.0918513540    21.1957940562
Cu      5.1004927384     4.3520751791    17.0595497808
Cu      7.6419180333     5.8249977849    19.1208701083
Cu      6.4081156209     5.1058759007    21.1882728401
Cu      5.0921832928     0.1201463008    17.0527801447
Cu      7.6259315357     1.5841455163    19.1214419053
Cu      6.3851878244     0.8757570661    21.1957939510
Cu      6.3192562351     2.2411156790    17.0595497531
Cu      8.8655571408     3.7055934839    19.1208700428
Cu      7.6258786235     2.9966492578    21.1882728302
Cu      7.5560405436     4.3624803445    17.0585010108
Cu     10.0970595723     5.8295384546    19.1196613055
Cu      8.8662955562     5.1189558672    21.1868444041
72
Step 6 | ATOMIC_POSITIONS (angstrom) | Cartesian Angstrom
Ni      1.2286390390     0.7093535490     9.0128649340
Ni      0.0000019230    -0.0000011100    11.0189462060
Ni      2.4685838186     1.4252354237    13.0067709640
Ni      1.2901517186     0.7448666907    14.9763103803
Ni      2.4572760100     2.8374169220     9.0128649340
Ni      1.2286511800     2.1280835430    11.0189462060
Ni      3.6976160312     3.5511375338    13.0065356726
Ni      2.5194614802     2.8716254314    14.9824921594
Ni      3.6859498400     4.9655441370     9.0128649340
Ni      2.4573004370     4.2561681970    11.0189462060
Ni      4.9277922105     5.6818416924    13.0044895384
Ni      3.7502626512     4.9991426338    14.9803346252
Ni      3.6859144660     0.7093535490     9.0128649340
Ni      2.4573019230    -0.0000011100    11.0189462060
Ni      4.9241852885     1.4266582462    13.0065357595
Ni      3.7466337185     0.7461018327    14.9824923350
Ni      4.9145514370     2.8374169220     9.0128649340
Ni      3.6859511800     2.1280835430    11.0189462060
Ni      6.1535415052     3.5527476505    13.0062720973
Ni      4.9762854938     2.8730579541    14.9883295604
Ni      6.1432252670     4.9655441370     9.0128649340
Ni      4.9146004370     4.2561681970    11.0189462060
Ni      7.3836778796     5.6834017619    13.0043181698
Ni      6.2071764880     5.0007762754    14.9863803508
Ni      6.1432636120     0.7093535490     9.0128649340
Ni      4.9146019230    -0.0000011100    11.0189462060
Ni      7.3845169787     1.4266712112    13.0044895574
Ni      6.2045180227     0.7482491179    14.9803347394
Ni      7.3719005830     2.8374169220     9.0128649340
Ni      6.1432511800     2.1280835430    11.0189462060
Ni      8.6138101618     3.5527509180    13.0043181664
Ni      7.4343888403     2.8751827240    14.9863802236
Ni      8.6005744130     4.9655441370     9.0128649340
Ni      7.3719004370     4.2561681970    11.0189462060
Ni      9.8439415281     5.6834021361    13.0023127535
Ni      8.6654250497     5.0029845226    14.9848052067
Cu      0.2234581385     0.1290089395    23.2453981433
Cu      1.4579493271     2.2513340321    23.2433691337
Cu      2.6911250070     4.3700333241    23.2378918820
Cu      2.6786909637     0.1369483722    23.2433689697
Cu      0.1823790476     0.1052932206    17.0542356675
Cu      2.7125774774     1.5661040302    19.1357163273
Cu      1.4797243906     0.8543153530    21.2028874666
Cu      3.9133431508     2.2593659991    23.2407045673
Cu      1.4046077367     2.2258693627    17.0543749184
Cu      3.9435905680     3.6875831184    19.1326479142
Cu      2.7112286345     2.9784055285    21.1993693656
Cu      5.1465707438     4.3779092053    23.2350011350
Cu      5.1301263233     0.1455608635    23.2378918284
Cu      2.6299662877     0.1034870025    17.0543750940
Cu      5.1653386707     1.5714539430    19.1326479816
Cu      3.9349924963     0.8587852021    21.1993693010
Cu      6.3646689772     2.2681018899    23.2350012309
Cu      3.8519506317     2.2239221185    17.0552097982
Cu      6.3963909414     3.6929556476    19.1295167319
Cu      5.1671860634     2.9832731999    21.1965230727
Cu      7.5975906814     4.3864682060    23.2283270041
Cu      2.6339457676     4.3486077197    17.0506681564
Cu      5.1680107882     5.8128029992    19.1303106901
Cu      3.9432540779     5.1021029002    21.2042172680
Cu      5.0818366175     4.3453162064    17.0506653155
Cu      7.6215492262     5.8175534592    19.1277508604
Cu      6.3989078577     5.1071297564    21.2010199125
Cu      5.0829804600     0.1067565267    17.0506682343
Cu      7.6180433398     1.5692239701    19.1303105632
Cu      6.3901811544     0.8639026473    21.2042171598
Cu      6.3040747625     2.2283384443    17.0506651355
Cu      8.8489257784     3.6916757446    19.1277508868
Cu      7.6223606112     2.9880482083    21.2010199254
Cu      7.5335669620     4.3495052466    17.0467302859
Cu     10.0739515062     5.8161969818    19.1248432991
Cu      8.8540093630     5.1118624039    21.2061806306
72
Step 7 | ATOMIC_POSITIONS (angstrom) | Cartesian Angstrom
Ni      1.2286390390     0.7093535490     9.0128649340
Ni      0.0000019230    -0.0000011100    11.0189462060
Ni      2.4742465192     1.4285048170    13.0002768486
Ni      1.3028729456     0.7522113002    14.9725245731
Ni      2.4572760100     2.8374169220     9.0128649340
Ni      1.2286511800     2.1280835430    11.0189462060
Ni      3.7031925265     3.5544807583    13.0011505387
Ni      2.5312069357     2.8789672508    14.9785290729
Ni      3.6859498400     4.9655441370     9.0128649340
Ni      2.4573004370     4.2561681970    11.0189462060
Ni      4.9335270177     5.6843080171    12.9993869788
Ni      3.7614847540     5.0080361855    14.9802101267
Ni      3.6859144660     0.7093535490     9.0128649340
Ni      2.4573019230    -0.0000011100    11.0189462060
Ni      4.9298688059     1.4298160577    13.0011505216
Ni      3.7588646311     0.7526028033    14.9785293475
Ni      4.9145514370     2.8374169220     9.0128649340
Ni      3.6859511800     2.1280835430    11.0189462060
Ni      6.1591358999     3.5559775904    13.0020431107
Ni      4.9872836358     2.8794076973    14.9843883157
Ni      6.1432252670     4.9655441370     9.0128649340
Ni      4.9146004370     4.2561681970    11.0189462060
Ni      7.3894208085     5.6857029272    13.0003560104
Ni      6.2177218739     5.0087141963    14.9862989774
Ni      6.1432636120     0.7093535490     9.0128649340
Ni      4.9146019230    -0.0000011100    11.0189462060
Ni      7.3895202539     1.4304045634    12.9993869896
Ni      6.2178311146     0.7535211295    14.9802102482
Ni      7.3719005830     2.8374169220     9.0128649340
Ni      6.1432511800     2.1280835430    11.0189462060
Ni      8.6186745660     3.5565738913    13.0003562331
Ni      7.4465359870     2.8803464661    14.9862988726
Ni      8.6005744130     4.9655441370     9.0128649340
Ni      7.3719004370     4.2561681970    11.0189462060
Ni      9.8489333954     5.6862841233    12.9985935199
Ni      8.6771386777     5.0097473436    14.9884564357
Cu      0.2333561944     0.1347236253    23.2449087695
Cu      1.4619954482     2.2582602695    23.2477884322
Cu      2.6893713745     4.3794956923    23.2411959989
Cu      2.6867122051     0.1369893581    23.2477883042
Cu      0.1752424864     0.1011729097    17.0586663778
Cu      2.7064941055     1.5625917593    19.1413390914
Cu      1.4840100396     0.8567897102    21.2021001199
Cu      3.9157686680     2.2607663834    23.2501411072
Cu      1.3952509147     2.2239547454    17.0539473169
Cu      3.9318888505     3.6870661062    19.1371992409
Cu      2.7098384473     2.9842036031    21.2017113726
Cu      5.1435936985     4.3810792906    23.2433419869
Cu      5.1374441068     0.1393110548    23.2411958904
Cu      2.6236297366     0.0963410759    17.0539474765
Cu      5.1590400802     1.5615784286    19.1371992979
Cu      3.9393186586     0.8546822116    21.2017112924
Cu      6.3659257606     2.2639387083    23.2433420457
Cu      3.8435750614     2.2190864906    17.0504049998
Cu      6.3845556737     3.6861225283    19.1329569357
Cu      5.1659880253     2.9825815280    21.2021692274
Cu      7.5933473940     4.3840183587    23.2355458786
Cu      2.6198829359     4.3502172375    17.0492247621
Cu      5.1531002235     5.8145636022    19.1355919036
Cu      3.9353539179     5.1120326853    21.2100229784
Cu      5.0690758133     4.3436376542    17.0449274417
Cu      7.6066502330     5.8125601345    19.1318460061
Cu      6.3916014580     5.1099743524    21.2101293493
Cu      5.0773428840     0.0937730506    17.0492249275
Cu      7.6121128072     1.5554307020    19.1355918414
Cu      6.3948305354     0.8520960006    21.2100229055
Cu      6.2962407737     2.2181266157    17.0449272748
Cu      8.8371519322     3.6812694780    19.1318460695
Cu      7.6211709236     2.9802984126    21.2101293722
Cu      7.5211082640     4.3423121667    17.0397581017
Cu     10.0589335024     5.8075263147    19.1287890879
Cu      8.8468039353     5.1077023464    21.2187548387
72
Step 8 | ATOMIC_POSITIONS (angstrom) | Cartesian Angstrom
Ni      1.2286390390     0.7093535490     9.0128649340
Ni      0.0000019230    -0.0000011100    11.0189462060
Ni      2.4787448198     1.4311018973    12.9983559219
Ni      1.3087918782     0.7556286135    14.9735917884
Ni      2.4572760100     2.8374169220     9.0128649340
Ni      1.2286511800     2.1280835430    11.0189462060
Ni      3.7075712000     3.5576870579    13.0000445267
Ni      2.5365987517     2.8828150474    14.9780181708
Ni      3.6859498400     4.9655441370     9.0128649340
Ni      2.4573004370     4.2561681970    11.0189462060
Ni      4.9377590009     5.6862214018    12.9988861458
Ni      3.7664754984     5.0127863016    14.9811512234
Ni      3.6859144660     0.7093535490     9.0128649340
Ni      2.4573019230    -0.0000011100    11.0189462060
Ni      4.9348348289     1.4320049911    13.0000444348
Ni      3.7648927550     0.7553482447    14.9780184365
Ni      4.9145514370     2.8374169220     9.0128649340
Ni      3.6859511800     2.1280835430    11.0189462060
Ni      6.1639036034     3.5587302736    13.0017992657
Ni      4.9925927459     2.8824728819    14.9823258310
Ni      6.1432252670     4.9655441370     9.0128649340
Ni      4.9146004370     4.2561681970    11.0189462060
Ni      7.3940533511     5.6871543431    13.0006708123
Ni      6.2225860821     5.0127049103    14.9856689183
Ni      6.1432636120     0.7093535490     9.0128649340
Ni      4.9146019230    -0.0000011100    11.0189462060
Ni      7.3932933389     1.4331128382    12.9988861376
Ni      6.2244402494     0.7554682180    14.9811513920
Ni      7.3719005830     2.8374169220     9.0128649340
Ni      6.1432511800     2.1280835430    11.0189462060
Ni      8.6222477971     3.5598600398    13.0006710874
Ni      7.4524241462     2.8825636983    14.9856688276