
     Program PWSCF v.7.5 starts on 15May2026 at  7:10:34 

     This program is part of the open-source Quantum ESPRESSO suite
     for quantum simulation of materials; please cite
         "P. Giannozzi et al., J. Phys.:Condens. Matter 21 395502 (2009);
         "P. Giannozzi et al., J. Phys.:Condens. Matter 29 465901 (2017);
         "P. Giannozzi et al., J. Chem. Phys. 152 154105 (2020);
          URL http://www.quantum-espresso.org", 
     in publications or presentations arising from this work. More details at
     http://www.quantum-espresso.org/quote

     Parallel version (MPI), running on    38 processors

     MPI processes distributed on     1 nodes
     234085 MiB available memory on the printing compute node when the environment starts
 
     Waiting for input...
     Reading input from standard input

     Current dimensions of program PWSCF are:
     Max number of different atomic species (ntypx) = 10
     Max number of k-points (npk) =  40000
     Max angular momentum in pseudopotentials (lmaxx) =  4

     gamma-point specific algorithms are used
     Message from routine setup:
     the system is metallic, specify occupations
--------------------------------------------------------------------------------
NOTICE: Bravais lattice has wrong number (10) of symmetries - symmetries are disabled
--------------------------------------------------------------------------------
 
     R & G space division:  proc/nbgrp/npool/nimage =      38
     Subspace diagonalization in iterative solution of the eigenvalue problem:
     a serial algorithm will be used

 
     Parallelization info
     --------------------
     sticks:   dense  smooth     PW     G-vecs:    dense   smooth      PW
     Min         562     280     69                92270    32608    4074
     Max         564     282     72                92292    32634    4088
     Sum       21397   10699   2677              3506693  1239635  155043
 
     Using Slab Decomposition
 


     bravais-lattice index     =            0
     lattice parameter (alat)  =      27.8617  a.u.
     unit-cell volume          =   25955.6796 (a.u.)^3
     number of atoms/cell      =           13
     number of atomic types    =            3
     number of electrons       =        37.00
     number of Kohn-Sham states=           19
     kinetic-energy cutoff     =      50.0000  Ry
     charge density cutoff     =     400.0000  Ry
     scf convergence threshold =      1.0E-08
     mixing beta               =       0.1000
     number of iterations used =            8  plain     mixing
     energy convergence thresh.=      1.0E-04
     force convergence thresh. =      5.0E-04
     Exchange-correlation= PBE
                           (   1   4   3   4   0   0   0)
     nstep                     =          100


     celldm(1)=  27.861744  celldm(2)=   0.000000  celldm(3)=   0.000000
     celldm(4)=   0.000000  celldm(5)=   0.000000  celldm(6)=   0.000000

     crystal axes: (cart. coord. in units of alat)
               a(1) = (   1.000000   0.000000   0.000000 )  
               a(2) = (   0.500000   0.866026   0.000000 )  
               a(3) = (   0.000000  -0.000000   1.385724 )  

     reciprocal axes: (cart. coord. in units 2 pi/alat)
               b(1) = (  1.000000 -0.577350 -0.000000 )  
               b(2) = (  0.000000  1.154700  0.000000 )  
               b(3) = (  0.000000  0.000000  0.721644 )  


     PseudoPot. # 1 for O  read from file:
     /home/node1/PSP/PseudosP/pslibrary-master/pbe/PSEUDOPOTENTIALS/O.pbe-n-rrkjus_psl.1.0.0.UPF
     MD5 check sum: 66e118037d9dd57828d9d1a5cad1bd82
     Pseudo is Ultrasoft + core correction, Zval =  6.0
     Generated using 'atomic' code by A. Dal Corso  v.6.7MaX
     Using radial grid of 1095 points,  4 beta functions with: 
                l(1) =   0
                l(2) =   0
                l(3) =   1
                l(4) =   1
     Q(r) pseudized with 0 coefficients 


     PseudoPot. # 2 for C  read from file:
     /home/node1/PSP/PseudosP/pslibrary-master/pbe/PSEUDOPOTENTIALS/C.pbe-n-rrkjus_psl.1.0.0.UPF
     MD5 check sum: 9469534515bf835955f84783fe7a44bc
     Pseudo is Ultrasoft + core correction, Zval =  4.0
     Generated using 'atomic' code by A. Dal Corso  v.6.7MaX
     Using radial grid of 1073 points,  4 beta functions with: 
                l(1) =   0
                l(2) =   0
                l(3) =   1
                l(4) =   1
     Q(r) pseudized with 0 coefficients 


     PseudoPot. # 3 for H  read from file:
     /home/node1/PSP/PseudosP/pslibrary-master/pbe/PSEUDOPOTENTIALS/H.pbe-rrkjus_psl.1.0.0.UPF
     MD5 check sum: 0c00c21d8e5ed0b20428f4e7f172b485
     Pseudo is Ultrasoft, Zval =  1.0
     Generated using 'atomic' code by A. Dal Corso  v.6.7MaX
     Using radial grid of  929 points,  2 beta functions with: 
                l(1) =   0
                l(2) =   0
     Q(r) pseudized with 0 coefficients 


     atomic species   valence    mass     pseudopotential
     O                 6.00    15.99940     O ( 1.00)
     C                 4.00    12.01100     C ( 1.00)
     H                 1.00     1.00797     H ( 1.00)

     No symmetry found


                                    s                        frac. trans.

      isym =  1     identity                                     

 cryst.   s( 1) = (     1          0          0      )
                  (     0          1          0      )
                  (     0          0          1      )

 cart.    s( 1) = (  1.0000000 -0.0000000 -0.0000000 )
                  (  0.0000000  1.0000000 -0.0000000 )
                  (  0.0000000  0.0000000  1.0000000 )


   Cartesian axes

     site n.     atom                  positions (alat units)
         1        O      tau(   1) = (   0.7547801   0.4682715   0.4387720  )
         2        H      tau(   2) = (   0.8145087   0.5401091   0.5422632  )
         3        H      tau(   3) = (   0.6932682   0.5326174   0.5467310  )
         4        C      tau(   4) = (   0.7558615   0.4946636   0.5327165  )
         5        O      tau(   5) = (   0.8345654   0.3530523   0.5699449  )
         6        H      tau(   6) = (   0.8138913   0.3176343   0.5177924  )
         7        C      tau(   7) = (   0.7629189   0.4128303   0.5960590  )
         8        H      tau(   8) = (   0.6974799   0.3761089   0.5968616  )
         9        C      tau(   9) = (   0.7821228   0.4476627   0.6913031  )
        10        H      tau(  10) = (   0.7433000   0.5108709   0.7026917  )
        11        H      tau(  11) = (   0.8551130   0.4640012   0.6953183  )
        12        O      tau(  12) = (   0.7574759   0.3799061   0.7561750  )
        13        H      tau(  13) = (   0.7816957   0.3978154   0.8147374  )

     --------------------------------------------
     DFT-D3 Dispersion Correction (3-body terms):
     --------------------------------------------
       Reference C6 values for interpolation: 

         atom   Coordination number   C6
         H          0.912             6.05
         H          0.000            15.18
         C          0.000            98.23
         C          0.987            86.49
         C          1.998            58.72
         C          2.999            51.56
         C          3.984            36.41
         O          0.000            31.01
         O          0.993            25.63
         O          1.989            20.74

       Values used:

         atom   Coordination number  R0_AB[au]  C6      C8
         O          1.012            2.345     25.60    516.64
         H          0.998            2.062      6.18     74.74
         H          0.999            2.062      6.18     74.73
         C          4.034            2.750     36.60   1058.42
         O          2.028            2.345     20.80    419.82
         H          1.004            2.062      6.18     74.67
         C          4.036            2.750     36.59   1058.34
         H          1.002            2.062      6.18     74.70
         C          4.052            2.750     36.57   1057.71
         H          0.998            2.062      6.18     74.74
         H          0.998            2.062      6.18     74.74
         O          2.010            2.345     20.81    420.01
         H          1.005            2.062      6.18     74.66

         Molecular C6 ( Ry / a.u.^6 ) =      2443.82


   Crystallographic axes

     site n.     atom                  positions (cryst. coord.)
         1        O      tau(   1) = (  0.4844234  0.5407134  0.3166373  )
         2        H      tau(   2) = (  0.5026765  0.6236643  0.3913212  )
         3        H      tau(   3) = (  0.3857614  0.6150136  0.3945454  )
         4        C      tau(   4) = (  0.4702674  0.5711883  0.3844319  )
         5        O      tau(   5) = (  0.6307305  0.4076697  0.4112975  )
         6        H      tau(   6) = (  0.6305049  0.3667725  0.3736619  )
         7        C      tau(   7) = (  0.5245711  0.4766954  0.4301426  )
         8        H      tau(   8) = (  0.4803332  0.4342932  0.4307218  )
         9        C      tau(   9) = (  0.5236645  0.5169164  0.4988750  )
        10        H      tau(  10) = (  0.4483485  0.5899029  0.5070935  )
        11        H      tau(  11) = (  0.5872217  0.5357825  0.5017725  )
        12        O      tau(  12) = (  0.5381368  0.4386779  0.5456894  )
        13        H      tau(  13) = (  0.5520167  0.4593578  0.5879506  )

     number of k points=     1
                       cart. coord. in units 2pi/alat
        k(    1) = (   0.0000000   0.0000000   0.0000000), wk =   2.0000000

                       cryst. coord.
        k(    1) = (   0.0000000   0.0000000   0.0000000), wk =   2.0000000

     Dense  grid:  1753347 G-vectors     FFT dimensions: ( 180, 180, 250)

     Smooth grid:   619818 G-vectors     FFT dimensions: ( 125, 125, 180)

     Dynamical RAM for                 wfc:       0.59 MB

     Dynamical RAM for     wfc (w. buffer):       0.59 MB

     Dynamical RAM for           str. fact:       2.11 MB

     Dynamical RAM for           local pot:       0.00 MB

     Dynamical RAM for          nlocal pot:       1.93 MB

     Dynamical RAM for                qrad:       1.38 MB

     Dynamical RAM for          rho,v,vnew:       7.30 MB

     Dynamical RAM for               rhoin:       2.43 MB

     Dynamical RAM for            rho*nmix:      11.26 MB

     Dynamical RAM for           G-vectors:       2.76 MB

     Dynamical RAM for          h,s,v(r/c):       0.03 MB

     Dynamical RAM for          <psi|beta>:       0.01 MB

     Dynamical RAM for                 psi:       1.18 MB

     Dynamical RAM for                hpsi:       1.18 MB

     Dynamical RAM for                spsi:       1.18 MB

     Dynamical RAM for      wfcinit/wfcrot:       1.19 MB

     Dynamical RAM for           addusdens:      35.20 MB

     Dynamical RAM for          addusforce:      44.01 MB

     Estimated static dynamical RAM per process >      29.98 MB

     Estimated max dynamical RAM per process >      85.25 MB

     Estimated total dynamical RAM >       3.16 GB
