13
Step 1 | ATOMIC_POSITIONS (angstrom) | Cartesian Angstrom
O      11.1265733264     6.9152913805     6.5150452417
H      12.0133026467     7.9651185149     7.9982872440
H      10.2167681157     7.8569498433     8.0647025584
C      11.1432414105     7.2831611799     7.7892208243
O      12.2985497268     5.2058498876     8.4058224287
H      12.0019121754     4.6888324842     7.6359175296
C      11.2530283852     6.0727593561     8.7984907804
H      10.2843224082     5.5470831042     8.7977645399
C      11.5334745822     6.5993254180    10.1945463178
H      10.9587163271     7.5316886043    10.3600358458
H      12.6077383930     6.8413959804    10.2514632063
O      11.1681682670     5.6017306384    11.1466097994
H      11.5248883189     5.8647711812    12.0126360427
13
Step 2 | ATOMIC_POSITIONS (angstrom) | Cartesian Angstrom
O      11.1247672173     6.9118194210     6.5130955359
H      12.0133623248     7.9623849705     8.0004250238
H      10.2183597365     7.8563062951     8.0671201295
C      11.1397854737     7.2938983333     7.7823804880
O      12.2968079512     5.2053645408     8.4126001975
H      12.0024104784     4.6921462135     7.6343913263
C      11.2570686369     6.0657783545     8.8014027414
H      10.2828308986     5.5474536117     8.7955399001
C      11.5352062135     6.6015227429    10.1934632837
H      10.9587561519     7.5306277791    10.3587428184
H      12.6088765176     6.8418251526    10.2518236586
O      11.1686565792     5.6012574536    11.1481642202
H      11.5237959035     5.8635727044    12.0113930355
13
Step 3 | ATOMIC_POSITIONS (angstrom) | Cartesian Angstrom
O      11.1204232072     6.9047928158     6.5084531321
H      12.0156105678     7.9575026497     8.0048270837
H      10.2169949294     7.8571033312     8.0733275968
C      11.1362433724     7.3082697836     7.7702302626
O      12.2943126094     5.1982212680     8.4208864203
H      12.0059278649     4.7026428140     7.6355578868
C      11.2596557266     6.0587624232     8.8063025822
H      10.2808000655     5.5488155962     8.7904544108
C      11.5384205319     6.6020527612    10.1932612426
H      10.9582757750     7.5293784598    10.3555727277
H      12.6121698514     6.8432095106    10.2527916585
O      11.1685256084     5.6007667192    11.1453840119
H      11.5233239730     5.8624394405    12.0134933431
13
Step 4 | ATOMIC_POSITIONS (angstrom) | Cartesian Angstrom
O      11.1157206992     6.8995106806     6.5061856469
H      12.0196916518     7.9535914696     8.0081849695
H      10.2130919828     7.8589556637     8.0792767102
C      11.1348597194     7.3137397300     7.7603806005
O      12.2933535919     5.1939652309     8.4325786856
H      12.0085581010     4.7105569348     7.6322339101
C      11.2602531541     6.0564775173     8.8079897054
H      10.2792312986     5.5507175758     8.7852966172
C      11.5408819528     6.6019452246    10.1932019810
H      10.9580871582     7.5282888403    10.3521364347
H      12.6154412801     6.8446202234    10.2538256246
O      11.1702442140     5.6014353507    11.1469879670
H      11.5212692791     5.8601531312    12.0122635063
13
Step 5 | ATOMIC_POSITIONS (angstrom) | Cartesian Angstrom
O      11.1121799690     6.8968031798     6.5053364381
H      12.0228820650     7.9506323149     8.0087875320
H      10.2113612287     7.8594132005     8.0820617650
C      11.1337921329     7.3137280833     7.7585703591
O      12.2914032010     5.1902950311     8.4375562202
H      12.0120803884     4.7170629244     7.6309707123
C      11.2601337312     6.0572339007     8.8084045540
H      10.2782884982     5.5526871550     8.7815327418
C      11.5416904397     6.6026004054    10.1935975236
H      10.9584387077     7.5275348903    10.3497399407
H      12.6169816664     6.8454065100    10.2544044261
O      11.1707810836     5.6012117793    11.1459412893
H      11.5206709714     5.8593481982    12.0136388568
13
Step 6 | ATOMIC_POSITIONS (angstrom) | Cartesian Angstrom
O      11.1082921451     6.8946557610     6.5055747860
H      12.0255634087     7.9469019647     8.0080295322
H      10.2106081754     7.8593029619     8.0840862342
C      11.1333178074     7.3120334278     7.7592480743
O      12.2892150514     5.1870927527     8.4420923522
H      12.0163304329     4.7238272156     7.6288872343
C      11.2594033266     6.0587069555     8.8085483120
H      10.2774757193     5.5553567318     8.7777407487
C      11.5425168022     6.6026773955    10.1937619231
H      10.9586123519     7.5275904253    10.3476103594
H      12.6179112756     6.8461296234    10.2548997888
O      11.1716536215     5.6012336962    11.1454223672
H      11.5197839650     5.8584486616    12.0146406466
13
Step 7 | ATOMIC_POSITIONS (angstrom) | Cartesian Angstrom
O      11.1025835282     6.8919490874     6.5070609448
H      12.0288315325     7.9410937469     8.0057852544
H      10.2108362412     7.8586957295     8.0864343016
C      11.1329791145     7.3085313503     7.7616245780
O      12.2861433350     5.1833588989     8.4482188140
H      12.0228390072     4.7334975988     7.6247062310
C      11.2585062267     6.0606026398     8.8087290161
H      10.2759242909     5.5595712260     8.7726944042
C      11.5428558552     6.6030885685    10.1941240698
H      10.9590032695     7.5279626478    10.3450158160
H      12.6188044557     6.8470634247    10.2553956259
O      11.1728663784     5.6011629476    11.1446122705
H      11.5185108478     5.8573797069    12.0161410329
13
Step 8 | ATOMIC_POSITIONS (angstrom) | Cartesian Angstrom
O      11.0944605140     6.8879480817     6.5098717571
H      12.0329344623     7.9325797518     8.0015694915
H      10.2127148369     7.8575572986     8.0895953388
C      11.1328283260     7.3032901793     7.7656451696
O      12.2820708445     5.1783581775     8.4553340836
H      12.0327570947     4.7477931295     7.6182003662
C      11.2570854104     6.0624828645     8.8095779946
H      10.2731822351     5.5657950931     8.7663552970
C      11.5431578572     6.6036755080    10.1945248569
H      10.9593399636     7.5291900185    10.3422207887
H      12.6191563559     6.8482327807    10.2557685578
O      11.1746589241     5.6011275867    11.1445105393
H      11.5163372582     5.8559271031    12.0173681179
13
Step 9 | ATOMIC_POSITIONS (angstrom) | Cartesian Angstrom
O      11.0829629644     6.8813900640     6.5145302911
H      12.0382763208     7.9203772764     7.9943816924
H      10.2175078048     7.8560073606     8.0944379961
C      11.1332006829     7.2961782955     7.7708413982
O      12.2769958980     5.1727428986     8.4645975495
H      12.0473154699     4.7685007079     7.6066226426
C      11.2553917838     6.0629852405     8.8115178547
H      10.2682151700     5.5745518847     8.7591440049
C      11.5424859899     6.6043488530    10.1955821454
H      10.9596147657     7.5315241628    10.3397794942
H      12.6187637529     6.8497632306    10.2557509793
O      11.1763731379     5.6008346788    11.1435288453
H      11.5135803420     5.8547529197    12.0198274652
13
Step 10 | ATOMIC_POSITIONS (angstrom) | Cartesian Angstrom
O      11.0754377728     6.8757888255     6.5181718185
H      12.0417536244     7.9123480172     7.9880834105
H      10.2231136731     7.8552199486     8.0981325935
C      11.1340759959     7.2913206700     7.7739897239
O      12.2740409832     5.1691630292     8.4665404549
H      12.0583888862     4.7840272055     7.5985940060
C      11.2540038391     6.0619324878     8.8136867466
H      10.2638038902     5.5799911670     8.7567479435
C      11.5409203530     6.6050634839    10.1962782578
H      10.9595562583     7.5335414204    10.3400804654
H      12.6171598841     6.8505225495    10.2551076308
O      11.1773246979     5.6007276698    11.1452326595
H      11.5111042248     5.8543110985    12.0198966481
13
Step 11 | ATOMIC_POSITIONS (angstrom) | Cartesian Angstrom
O      11.0644918541     6.8648272544     6.5228223805
H      12.0476262000     7.9008940834     7.9779006601
H      10.2334217618     7.8552403184     8.1051344079
C      11.1358879131     7.2857187634     7.7761407119
O      12.2709407734     5.1659182475     8.4692692862
H      12.0748799983     4.8080254052     7.5828716920
C      11.2517139637     6.0578735135     8.8172939920
H      10.2562297270     5.5867462516     8.7565097149
C      11.5383085310     6.6051219621    10.1980377536
H      10.9587344682     7.5366545973    10.3427991297
H      12.6134584842     6.8514257914    10.2535375776
O      11.1768311773     5.6002142467    11.1462979397
H      11.5081592308     5.8552971381    12.0219271130
13
Step 12 | ATOMIC_POSITIONS (angstrom) | Cartesian Angstrom
O      11.0551778249     6.8503876821     6.5266634385
H      12.0545610078     7.8914205146     7.9656376176
H      10.2472405487     7.8576793268     8.1133540837
C      11.1390204192     7.2805012727     7.7759121606
O      12.2697152810     5.1654831875     8.4648834550
H      12.0911729263     4.8332527597     7.5649492830
C      11.2488285148     6.0525733617     8.8206916390
H      10.2476625165     5.5897089271     8.7636573546
C      11.5329298614     6.6045350430    10.2001566584
H      10.9571465309     7.5386576547    10.3500771273
H      12.6077831301     6.8515249354    10.2509668070
O      11.1741683918     5.5997813839    11.1499219143
H      11.5052771294     5.8584515238    12.0236708200
13
Step 13 | ATOMIC_POSITIONS (angstrom) | Cartesian Angstrom
O      11.0494334168     6.8383689160     6.5276640978
H      12.0611224783     7.8856840469     7.9573835223
H      10.2563774796     7.8616858776     8.1194948523
C      11.1410460993     7.2778038685     7.7736588652
O      12.2693843758     5.1664283765     8.4614938231
H      12.1006115560     4.8514521855     7.5515986979
C      11.2460191019     6.0504943831     8.8215821898
H      10.2431917381     5.5885274695     8.7714515069
C      11.5300267142     6.6032072606    10.2015995166
H      10.9552086023     7.5378979126    10.3561001476
H      12.6037475356     6.8510374926    10.2495415367
O      11.1710181230     5.5996629683    11.1532770618
H      11.5034968619     5.8617068154    12.0256965410
13
Step 14 | ATOMIC_POSITIONS (angstrom) | Cartesian Angstrom
O      11.0468894765     6.8280579501     6.5272368936
H      12.0672366477     7.8825906034     7.9507758111
H      10.2632366459     7.8679051742     8.1227550864
C      11.1427639643     7.2762233418     7.7705121092
O      12.2694148770     5.1699658410     8.4554068391
H      12.1041050179     4.8650669709     7.5421357969
C      11.2437643093     6.0513399547     8.8206048973
H      10.2425839479     5.5823305034     8.7819184578
C      11.5272592625     6.6009861988    10.2026553670
H      10.9526630481     7.5339664097    10.3622663236
H      12.6011774747     6.8495650141    10.2491964081
O      11.1670471204     5.6000175589    11.1569176879
H      11.5025422908     5.8659420520    12.0281606810
13
Step 15 | ATOMIC_POSITIONS (angstrom) | Cartesian Angstrom
O      11.0416701378     6.8189472143     6.5273846803
H      12.0738455018     7.8759490541     7.9448418015
H      10.2678361658     7.8735321225     8.1247736497
C      11.1429910110     7.2744544590     7.7689366485
O      12.2673727563     5.1707920857     8.4555150767
H      12.1083278310     4.8818022211     7.5329999449
C      11.2417650724     6.0534366055     8.8206119837
H      10.2434298762     5.5783720497     8.7865307989
C      11.5268029504     6.5995119415    10.2036410604
H      10.9502289633     7.5297406419    10.3645291754
H      12.6007001854     6.8484222936    10.2503528341
O      11.1650025518     5.6003646492    11.1597724223
H      11.5007110796     5.8686322350    12.0306522826
13
Step 16 | ATOMIC_POSITIONS (angstrom) | Cartesian Angstrom
O      11.0398699013     6.8143488499     6.5274876121
H      12.0780584430     7.8711053172     7.9405179517
H      10.2700078467     7.8807668373     8.1208409995
C      11.1423616597     7.2734915648     7.7683738859
O      12.2659162630     5.1741268450     8.4519456096
H      12.1052524039     4.8928072173     7.5301414089
C      11.2409648562     6.0570437398     8.8202021174
H      10.2490185356     5.5703596012     8.7918600417
C      11.5279082102     6.5975337573    10.2047371527
H      10.9469222967     7.5236800543    10.3657946239
H      12.6017137235     6.8460065866    10.2533233395
O      11.1632346426     5.6007507644    11.1622679357
H      11.4994553005     5.8719364379    12.0330496806
13
Step 17 | ATOMIC_POSITIONS (angstrom) | Cartesian Angstrom
O      11.0317894314     6.8066253686     6.5301071062
H      12.0842328562     7.8589006184     7.9326586364
H      10.2748703405     7.8877909418     8.1180729480
C      11.1413413913     7.2702607324     7.7696056844
O      12.2627720185     5.1739506773     8.4529336272
H      12.1090819539     4.9156000452     7.5212845592
C      11.2406975218     6.0583993534     8.8232274195
H      10.2514703899     5.5671838796     8.7927615877
C      11.5280353754     6.5963630521    10.2067844107
H      10.9437156815     7.5196240858    10.3653951556
H      12.6032587559     6.8443698870    10.2570041409
O      11.1633908711     5.6004736103    11.1647638486
H      11.4960274957     5.8744153212    12.0359432345
13
Step 18 | ATOMIC_POSITIONS (angstrom) | Cartesian Angstrom
O      11.0239782635     6.8002616032     6.5336952419
H      12.0888598945     7.8453322441     7.9243222339
H      10.2803916203     7.8961080952     8.1114359137
C      11.1395255546     7.2670000101     7.7716793333
O      12.2616386661     5.1743964587     8.4509107994
H      12.1105054625     4.9389019888     7.5137684528
C      11.2412099270     6.0573786735     8.8277096069
H      10.2545162507     5.5638141809     8.7937144878
C      11.5293025771     6.5953528881    10.2100261648
H      10.9400473728     7.5168258347    10.3647972532
H      12.6043278144     6.8422318920    10.2621285850
O      11.1646020203     5.5990405655    11.1675264221
H      11.4917786592     5.8773131382    12.0388278644
13
Step 19 | ATOMIC_POSITIONS (angstrom) | Cartesian Angstrom
O      11.0179568956     6.7942078394     6.5364051817
H      12.0919408531     7.8351576108     7.9178958844
H      10.2858628821     7.9023933588     8.1072685833
C      11.1384741293     7.2641785872     7.7724674788
O      12.2625899202     5.1748998933     8.4477699986
H      12.1127013368     4.9567179771     7.5063068428
C      11.2423156314     6.0547584887     8.8314900389
H      10.2540086554     5.5626069125     8.7955580507
C      11.5285023440     6.5943989241    10.2127238298
H      10.9382331593     7.5165301508    10.3656146985
H      12.6040874360     6.8413055677    10.2657916699
O      11.1659939394     5.5972132798    11.1698737728
H      11.4880169004     5.8795889828    12.0413763288
13
Step 20 | ATOMIC_POSITIONS (angstrom) | Cartesian Angstrom
O      11.0152635267     6.7901586557     6.5372927442
H      12.0931803041     7.8297028754     7.9151053555
H      10.2890096552     7.9068825664     8.1040218224
C      11.1375020798     7.2627735427     7.7719906982
O      12.2649198365     5.1761637037     8.4442270078
H      12.1125063504     4.9658506896     7.5018333214
C      11.2428154538     6.0523828118     8.8331458591
H      10.2535127084     5.5619649457     8.7977717661
C      11.5284279352     6.5936300287    10.2145958183
H      10.9379741744     7.5168940530    10.3667092883
H      12.6030557980     6.8411451200    10.2686590709
O      11.1674022937     5.5953113275    11.1716867762
H      11.4851139669     5.8810972529    12.0435028306
