13
Step 1 | ATOMIC_POSITIONS (angstrom) | Cartesian Angstrom
O      11.1265733264     6.9152913805     6.5150452417
H      12.0133026467     7.9651185149     7.9982872440
H      10.2167681157     7.8569498433     8.0647025584
C      11.1432414105     7.2831611799     7.7892208243
O      12.2985497268     5.2058498876     8.4058224287
H      12.0019121754     4.6888324842     7.6359175296
C      11.2530283852     6.0727593561     8.7984907804
H      10.2843224082     5.5470831042     8.7977645399
C      11.5334745822     6.5993254180    10.1945463178
H      10.9587163271     7.5316886043    10.3600358458
H      12.6077383930     6.8413959804    10.2514632063
O      11.1681682670     5.6017306384    11.1466097994
H      11.5248883189     5.8647711812    12.0126360427
13
Step 2 | ATOMIC_POSITIONS (angstrom) | Cartesian Angstrom
O      11.1247672173     6.9118194210     6.5130955359
H      12.0133623248     7.9623849705     8.0004250238
H      10.2183597365     7.8563062951     8.0671201295
C      11.1397854737     7.2938983333     7.7823804880
O      12.2968079512     5.2053645408     8.4126001975
H      12.0024104784     4.6921462135     7.6343913263
C      11.2570686369     6.0657783545     8.8014027414
H      10.2828308986     5.5474536117     8.7955399001
C      11.5352062135     6.6015227429    10.1934632837
H      10.9587561519     7.5306277791    10.3587428184
H      12.6088765176     6.8418251526    10.2518236586
O      11.1686565792     5.6012574536    11.1481642202
H      11.5237959035     5.8635727044    12.0113930355
13
Step 3 | ATOMIC_POSITIONS (angstrom) | Cartesian Angstrom
O      11.1204232072     6.9047928158     6.5084531321
H      12.0156105678     7.9575026497     8.0048270837
H      10.2169949294     7.8571033312     8.0733275968
C      11.1362433724     7.3082697836     7.7702302626
O      12.2943126094     5.1982212680     8.4208864203
H      12.0059278649     4.7026428140     7.6355578868
C      11.2596557266     6.0587624232     8.8063025822
H      10.2808000655     5.5488155962     8.7904544108
C      11.5384205319     6.6020527612    10.1932612426
H      10.9582757750     7.5293784598    10.3555727277
H      12.6121698514     6.8432095106    10.2527916585
O      11.1685256084     5.6007667192    11.1453840119
H      11.5233239730     5.8624394405    12.0134933431
13
Step 4 | ATOMIC_POSITIONS (angstrom) | Cartesian Angstrom
O      11.1157206992     6.8995106806     6.5061856469
H      12.0196916518     7.9535914696     8.0081849695
H      10.2130919828     7.8589556637     8.0792767102
C      11.1348597194     7.3137397300     7.7603806005
O      12.2933535919     5.1939652309     8.4325786856
H      12.0085581010     4.7105569348     7.6322339101
C      11.2602531541     6.0564775173     8.8079897054
H      10.2792312986     5.5507175758     8.7852966172
C      11.5408819528     6.6019452246    10.1932019810
H      10.9580871582     7.5282888403    10.3521364347
H      12.6154412801     6.8446202234    10.2538256246
O      11.1702442140     5.6014353507    11.1469879670
H      11.5212692791     5.8601531312    12.0122635063
13
Step 5 | ATOMIC_POSITIONS (angstrom) | Cartesian Angstrom
O      11.1121799690     6.8968031798     6.5053364381
H      12.0228820650     7.9506323149     8.0087875320
H      10.2113612287     7.8594132005     8.0820617650
C      11.1337921329     7.3137280833     7.7585703591
O      12.2914032010     5.1902950311     8.4375562202
H      12.0120803884     4.7170629244     7.6309707123
C      11.2601337312     6.0572339007     8.8084045540
H      10.2782884982     5.5526871550     8.7815327418
C      11.5416904397     6.6026004054    10.1935975236
H      10.9584387077     7.5275348903    10.3497399407
H      12.6169816664     6.8454065100    10.2544044261
O      11.1707810836     5.6012117793    11.1459412893
H      11.5206709714     5.8593481982    12.0136388568
13
Step 6 | ATOMIC_POSITIONS (angstrom) | Cartesian Angstrom
O      11.1082921451     6.8946557610     6.5055747860
H      12.0255634087     7.9469019647     8.0080295322
H      10.2106081754     7.8593029619     8.0840862342
C      11.1333178074     7.3120334278     7.7592480743
O      12.2892150514     5.1870927527     8.4420923522
H      12.0163304329     4.7238272156     7.6288872343
C      11.2594033266     6.0587069555     8.8085483120
H      10.2774757193     5.5553567318     8.7777407487
C      11.5425168022     6.6026773955    10.1937619231
H      10.9586123519     7.5275904253    10.3476103594
H      12.6179112756     6.8461296234    10.2548997888
O      11.1716536215     5.6012336962    11.1454223672
H      11.5197839650     5.8584486616    12.0146406466
