13
Step 1 | ATOMIC_POSITIONS (angstrom) | Cartesian Angstrom
O      11.1265733264     6.9152913805     6.5150452417
H      12.0133026467     7.9651185149     7.9982872440
H      10.2167681157     7.8569498433     8.0647025584
C      11.1432414105     7.2831611799     7.7892208243
O      12.2985497268     5.2058498876     8.4058224287
H      12.0019121754     4.6888324842     7.6359175296
C      11.2530283852     6.0727593561     8.7984907804
H      10.2843224082     5.5470831042     8.7977645399
C      11.5334745822     6.5993254180    10.1945463178
H      10.9587163271     7.5316886043    10.3600358458
H      12.6077383930     6.8413959804    10.2514632063
O      11.1681682670     5.6017306384    11.1466097994
H      11.5248883189     5.8647711812    12.0126360427
13
Step 2 | ATOMIC_POSITIONS (angstrom) | Cartesian Angstrom
O      11.1247672173     6.9118194210     6.5130955359
H      12.0133623248     7.9623849705     8.0004250238
H      10.2183597365     7.8563062951     8.0671201295
C      11.1397854737     7.2938983333     7.7823804880
O      12.2968079512     5.2053645408     8.4126001975
H      12.0024104784     4.6921462135     7.6343913263
C      11.2570686369     6.0657783545     8.8014027414
H      10.2828308986     5.5474536117     8.7955399001
C      11.5352062135     6.6015227429    10.1934632837
H      10.9587561519     7.5306277791    10.3587428184
H      12.6088765176     6.8418251526    10.2518236586
O      11.1686565792     5.6012574536    11.1481642202
H      11.5237959035     5.8635727044    12.0113930355
13
Step 3 | ATOMIC_POSITIONS (angstrom) | Cartesian Angstrom
O      11.1204232072     6.9047928158     6.5084531321
H      12.0156105678     7.9575026497     8.0048270837
H      10.2169949294     7.8571033312     8.0733275968
C      11.1362433724     7.3082697836     7.7702302626
O      12.2943126094     5.1982212680     8.4208864203
H      12.0059278649     4.7026428140     7.6355578868
C      11.2596557266     6.0587624232     8.8063025822
H      10.2808000655     5.5488155962     8.7904544108
C      11.5384205319     6.6020527612    10.1932612426
H      10.9582757750     7.5293784598    10.3555727277
H      12.6121698514     6.8432095106    10.2527916585
O      11.1685256084     5.6007667192    11.1453840119
H      11.5233239730     5.8624394405    12.0134933431
13
Step 4 | ATOMIC_POSITIONS (angstrom) | Cartesian Angstrom
O      11.1157206992     6.8995106806     6.5061856469
H      12.0196916518     7.9535914696     8.0081849695
H      10.2130919828     7.8589556637     8.0792767102
C      11.1348597194     7.3137397300     7.7603806005
O      12.2933535919     5.1939652309     8.4325786856
H      12.0085581010     4.7105569348     7.6322339101
C      11.2602531541     6.0564775173     8.8079897054
H      10.2792312986     5.5507175758     8.7852966172
C      11.5408819528     6.6019452246    10.1932019810
H      10.9580871582     7.5282888403    10.3521364347
H      12.6154412801     6.8446202234    10.2538256246
O      11.1702442140     5.6014353507    11.1469879670
H      11.5212692791     5.8601531312    12.0122635063
13
Step 5 | ATOMIC_POSITIONS (angstrom) | Cartesian Angstrom
O      11.1121799690     6.8968031798     6.5053364381
H      12.0228820650     7.9506323149     8.0087875320
H      10.2113612287     7.8594132005     8.0820617650
C      11.1337921329     7.3137280833     7.7585703591
O      12.2914032010     5.1902950311     8.4375562202
H      12.0120803884     4.7170629244     7.6309707123
C      11.2601337312     6.0572339007     8.8084045540
H      10.2782884982     5.5526871550     8.7815327418
C      11.5416904397     6.6026004054    10.1935975236
H      10.9584387077     7.5275348903    10.3497399407
H      12.6169816664     6.8454065100    10.2544044261
O      11.1707810836     5.6012117793    11.1459412893
H      11.5206709714     5.8593481982    12.0136388568
13
Step 6 | ATOMIC_POSITIONS (angstrom) | Cartesian Angstrom
O      11.1082921451     6.8946557610     6.5055747860
H      12.0255634087     7.9469019647     8.0080295322
H      10.2106081754     7.8593029619     8.0840862342
C      11.1333178074     7.3120334278     7.7592480743
O      12.2892150514     5.1870927527     8.4420923522
H      12.0163304329     4.7238272156     7.6288872343
C      11.2594033266     6.0587069555     8.8085483120
H      10.2774757193     5.5553567318     8.7777407487
C      11.5425168022     6.6026773955    10.1937619231
H      10.9586123519     7.5275904253    10.3476103594
H      12.6179112756     6.8461296234    10.2548997888
O      11.1716536215     5.6012336962    11.1454223672
H      11.5197839650     5.8584486616    12.0146406466
13
Step 7 | ATOMIC_POSITIONS (angstrom) | Cartesian Angstrom
O      11.1025835282     6.8919490874     6.5070609448
H      12.0288315325     7.9410937469     8.0057852544
H      10.2108362412     7.8586957295     8.0864343016
C      11.1329791145     7.3085313503     7.7616245780
O      12.2861433350     5.1833588989     8.4482188140
H      12.0228390072     4.7334975988     7.6247062310
C      11.2585062267     6.0606026398     8.8087290161
H      10.2759242909     5.5595712260     8.7726944042
C      11.5428558552     6.6030885685    10.1941240698
H      10.9590032695     7.5279626478    10.3450158160
H      12.6188044557     6.8470634247    10.2553956259
O      11.1728663784     5.6011629476    11.1446122705
H      11.5185108478     5.8573797069    12.0161410329
13
Step 8 | ATOMIC_POSITIONS (angstrom) | Cartesian Angstrom
O      11.0944605140     6.8879480817     6.5098717571
H      12.0329344623     7.9325797518     8.0015694915
H      10.2127148369     7.8575572986     8.0895953388
C      11.1328283260     7.3032901793     7.7656451696
O      12.2820708445     5.1783581775     8.4553340836
H      12.0327570947     4.7477931295     7.6182003662
C      11.2570854104     6.0624828645     8.8095779946
H      10.2731822351     5.5657950931     8.7663552970
C      11.5431578572     6.6036755080    10.1945248569
H      10.9593399636     7.5291900185    10.3422207887
H      12.6191563559     6.8482327807    10.2557685578
O      11.1746589241     5.6011275867    11.1445105393
H      11.5163372582     5.8559271031    12.0173681179
13
Step 9 | ATOMIC_POSITIONS (angstrom) | Cartesian Angstrom
O      11.0829629644     6.8813900640     6.5145302911
H      12.0382763208     7.9203772764     7.9943816924
H      10.2175078048     7.8560073606     8.0944379961
C      11.1332006829     7.2961782955     7.7708413982
O      12.2769958980     5.1727428986     8.4645975495
H      12.0473154699     4.7685007079     7.6066226426
C      11.2553917838     6.0629852405     8.8115178547
H      10.2682151700     5.5745518847     8.7591440049
C      11.5424859899     6.6043488530    10.1955821454
H      10.9596147657     7.5315241628    10.3397794942
H      12.6187637529     6.8497632306    10.2557509793
O      11.1763731379     5.6008346788    11.1435288453
H      11.5135803420     5.8547529197    12.0198274652
13
Step 10 | ATOMIC_POSITIONS (angstrom) | Cartesian Angstrom
O      11.0754377728     6.8757888255     6.5181718185
H      12.0417536244     7.9123480172     7.9880834105
H      10.2231136731     7.8552199486     8.0981325935
C      11.1340759959     7.2913206700     7.7739897239
O      12.2740409832     5.1691630292     8.4665404549
H      12.0583888862     4.7840272055     7.5985940060
C      11.2540038391     6.0619324878     8.8136867466
H      10.2638038902     5.5799911670     8.7567479435
C      11.5409203530     6.6050634839    10.1962782578
H      10.9595562583     7.5335414204    10.3400804654
H      12.6171598841     6.8505225495    10.2551076308
O      11.1773246979     5.6007276698    11.1452326595
H      11.5111042248     5.8543110985    12.0198966481
13
Step 11 | ATOMIC_POSITIONS (angstrom) | Cartesian Angstrom
O      11.0644918541     6.8648272544     6.5228223805
H      12.0476262000     7.9008940834     7.9779006601
H      10.2334217618     7.8552403184     8.1051344079
C      11.1358879131     7.2857187634     7.7761407119
O      12.2709407734     5.1659182475     8.4692692862
H      12.0748799983     4.8080254052     7.5828716920
C      11.2517139637     6.0578735135     8.8172939920
H      10.2562297270     5.5867462516     8.7565097149
C      11.5383085310     6.6051219621    10.1980377536
H      10.9587344682     7.5366545973    10.3427991297
H      12.6134584842     6.8514257914    10.2535375776
O      11.1768311773     5.6002142467    11.1462979397
H      11.5081592308     5.8552971381    12.0219271130
13
Step 12 | ATOMIC_POSITIONS (angstrom) | Cartesian Angstrom
O      11.0551778249     6.8503876821     6.5266634385
H      12.0545610078     7.8914205146     7.9656376176
H      10.2472405487     7.8576793268     8.1133540837
C      11.1390204192     7.2805012727     7.7759121606
O      12.2697152810     5.1654831875     8.4648834550
H      12.0911729263     4.8332527597     7.5649492830
C      11.2488285148     6.0525733617     8.8206916390
H      10.2476625165     5.5897089271     8.7636573546
C      11.5329298614     6.6045350430    10.2001566584
H      10.9571465309     7.5386576547    10.3500771273
H      12.6077831301     6.8515249354    10.2509668070
O      11.1741683918     5.5997813839    11.1499219143
H      11.5052771294     5.8584515238    12.0236708200
13
Step 13 | ATOMIC_POSITIONS (angstrom) | Cartesian Angstrom
O      11.0494334168     6.8383689160     6.5276640978
H      12.0611224783     7.8856840469     7.9573835223
H      10.2563774796     7.8616858776     8.1194948523
C      11.1410460993     7.2778038685     7.7736588652
O      12.2693843758     5.1664283765     8.4614938231
H      12.1006115560     4.8514521855     7.5515986979
C      11.2460191019     6.0504943831     8.8215821898
H      10.2431917381     5.5885274695     8.7714515069
C      11.5300267142     6.6032072606    10.2015995166
H      10.9552086023     7.5378979126    10.3561001476
H      12.6037475356     6.8510374926    10.2495415367
O      11.1710181230     5.5996629683    11.1532770618
H      11.5034968619     5.8617068154    12.0256965410
13
Step 14 | ATOMIC_POSITIONS (angstrom) | Cartesian Angstrom
O      11.0468894765     6.8280579501     6.5272368936
H      12.0672366477     7.8825906034     7.9507758111
H      10.2632366459     7.8679051742     8.1227550864
C      11.1427639643     7.2762233418     7.7705121092
O      12.2694148770     5.1699658410     8.4554068391
H      12.1041050179     4.8650669709     7.5421357969
C      11.2437643093     6.0513399547     8.8206048973
H      10.2425839479     5.5823305034     8.7819184578
C      11.5272592625     6.6009861988    10.2026553670
H      10.9526630481     7.5339664097    10.3622663236
H      12.6011774747     6.8495650141    10.2491964081
O      11.1670471204     5.6000175589    11.1569176879
H      11.5025422908     5.8659420520    12.0281606810
13
Step 15 | ATOMIC_POSITIONS (angstrom) | Cartesian Angstrom
O      11.0416701378     6.8189472143     6.5273846803
H      12.0738455018     7.8759490541     7.9448418015
H      10.2678361658     7.8735321225     8.1247736497
C      11.1429910110     7.2744544590     7.7689366485
O      12.2673727563     5.1707920857     8.4555150767
H      12.1083278310     4.8818022211     7.5329999449
C      11.2417650724     6.0534366055     8.8206119837
H      10.2434298762     5.5783720497     8.7865307989
C      11.5268029504     6.5995119415    10.2036410604
H      10.9502289633     7.5297406419    10.3645291754
H      12.6007001854     6.8484222936    10.2503528341
O      11.1650025518     5.6003646492    11.1597724223
H      11.5007110796     5.8686322350    12.0306522826
13
Step 16 | ATOMIC_POSITIONS (angstrom) | Cartesian Angstrom
O      11.0398699013     6.8143488499     6.5274876121
H      12.0780584430     7.8711053172     7.9405179517
H      10.2700078467     7.8807668373     8.1208409995
C      11.1423616597     7.2734915648     7.7683738859
O      12.2659162630     5.1741268450     8.4519456096
H      12.1052524039     4.8928072173     7.5301414089
C      11.2409648562     6.0570437398     8.8202021174
H      10.2490185356     5.5703596012     8.7918600417
C      11.5279082102     6.5975337573    10.2047371527
H      10.9469222967     7.5236800543    10.3657946239
H      12.6017137235     6.8460065866    10.2533233395
O      11.1632346426     5.6007507644    11.1622679357
H      11.4994553005     5.8719364379    12.0330496806
13
Step 17 | ATOMIC_POSITIONS (angstrom) | Cartesian Angstrom
O      11.0317894314     6.8066253686     6.5301071062
H      12.0842328562     7.8589006184     7.9326586364
H      10.2748703405     7.8877909418     8.1180729480
C      11.1413413913     7.2702607324     7.7696056844
O      12.2627720185     5.1739506773     8.4529336272
H      12.1090819539     4.9156000452     7.5212845592
C      11.2406975218     6.0583993534     8.8232274195
H      10.2514703899     5.5671838796     8.7927615877
C      11.5280353754     6.5963630521    10.2067844107
H      10.9437156815     7.5196240858    10.3653951556
H      12.6032587559     6.8443698870    10.2570041409
O      11.1633908711     5.6004736103    11.1647638486
H      11.4960274957     5.8744153212    12.0359432345
13
Step 18 | ATOMIC_POSITIONS (angstrom) | Cartesian Angstrom
O      11.0239782635     6.8002616032     6.5336952419
H      12.0888598945     7.8453322441     7.9243222339
H      10.2803916203     7.8961080952     8.1114359137
C      11.1395255546     7.2670000101     7.7716793333
O      12.2616386661     5.1743964587     8.4509107994
H      12.1105054625     4.9389019888     7.5137684528
C      11.2412099270     6.0573786735     8.8277096069
H      10.2545162507     5.5638141809     8.7937144878
C      11.5293025771     6.5953528881    10.2100261648
H      10.9400473728     7.5168258347    10.3647972532
H      12.6043278144     6.8422318920    10.2621285850
O      11.1646020203     5.5990405655    11.1675264221
H      11.4917786592     5.8773131382    12.0388278644
13
Step 19 | ATOMIC_POSITIONS (angstrom) | Cartesian Angstrom
O      11.0179568956     6.7942078394     6.5364051817
H      12.0919408531     7.8351576108     7.9178958844
H      10.2858628821     7.9023933588     8.1072685833
C      11.1384741293     7.2641785872     7.7724674788
O      12.2625899202     5.1748998933     8.4477699986
H      12.1127013368     4.9567179771     7.5063068428
C      11.2423156314     6.0547584887     8.8314900389
H      10.2540086554     5.5626069125     8.7955580507
C      11.5285023440     6.5943989241    10.2127238298
H      10.9382331593     7.5165301508    10.3656146985
H      12.6040874360     6.8413055677    10.2657916699
O      11.1659939394     5.5972132798    11.1698737728
H      11.4880169004     5.8795889828    12.0413763288
13
Step 20 | ATOMIC_POSITIONS (angstrom) | Cartesian Angstrom
O      11.0152635267     6.7901586557     6.5372927442
H      12.0931803041     7.8297028754     7.9151053555
H      10.2890096552     7.9068825664     8.1040218224
C      11.1375020798     7.2627735427     7.7719906982
O      12.2649198365     5.1761637037     8.4442270078
H      12.1125063504     4.9658506896     7.5018333214
C      11.2428154538     6.0523828118     8.8331458591
H      10.2535127084     5.5619649457     8.7977717661
C      11.5284279352     6.5936300287    10.2145958183
H      10.9379741744     7.5168940530    10.3667092883
H      12.6030557980     6.8411451200    10.2686590709
O      11.1674022937     5.5953113275    11.1716867762
H      11.4851139669     5.8810972529    12.0435028306
13
Step 21 | ATOMIC_POSITIONS (angstrom) | Cartesian Angstrom
O      11.0138749644     6.7866650373     6.5372155140
H      12.0938202697     7.8261234293     7.9143018199
H      10.2906773575     7.9104470385     8.1013902408
C      11.1365369357     7.2618222787     7.7708012287
O      12.2669758397     5.1779495167     8.4412266846
H      12.1114690354     4.9711125442     7.4982644986
C      11.2435818902     6.0513344943     8.8338952178
H      10.2530149496     5.5615300821     8.7997533925
C      11.5282245674     6.5925853701    10.2156812489
H      10.9388157136     7.5170541315    10.3677491662
H      12.6023246609     6.8416676123    10.2713504315
O      11.1691242313     5.5935739140    11.1730733780
H      11.4822436677     5.8820921240    12.0458395376
13
Step 22 | ATOMIC_POSITIONS (angstrom) | Cartesian Angstrom
O      11.0142061877     6.7841448153     6.5362427319
H      12.0932628338     7.8241819003     7.9159403383
H      10.2904752540     7.9132711475     8.0979017039
C      11.1351392255     7.2615761368     7.7691024902
O      12.2691085082     5.1807281272     8.4380944010
H      12.1083391870     4.9717999321     7.4961750420
C      11.2441569747     6.0512933646     8.8336757373
H      10.2535729220     5.5614018145     8.8012862584
C      11.5290383625     6.5916286536    10.2165548333
H      10.9409537866     7.5168793885    10.3685099061
H      12.6019710423     6.8429242435    10.2745123191
O      11.1717500545     5.5915426292    11.1740453623
H      11.4787097441     5.8825854200    12.0485012353
13
Step 23 | ATOMIC_POSITIONS (angstrom) | Cartesian Angstrom
O      11.0151342787     6.7825237911     6.5353364554
H      12.0923883672     7.8233653611     7.9182732234
H      10.2892035260     7.9143793472     8.0951534495
C      11.1339964883     7.2616509316     7.7678244043
O      12.2696917255     5.1832412232     8.4361475199
H      12.1056314888     4.9701590416     7.4949574252
C      11.2446826241     6.0525327856     8.8333049731
H      10.2544287460     5.5617031773     8.8017845708
C      11.5303677917     6.5909185874    10.2169459816
H      10.9431649037     7.5163811525    10.3690935133
H      12.6024807231     6.8444399014    10.2768338968
O      11.1742955751     5.5900611336    11.1742740146
H      11.4752178446     5.8826011394    12.0506129312
13
Step 24 | ATOMIC_POSITIONS (angstrom) | Cartesian Angstrom
O      11.0163884856     6.7816043058     6.5349495748
H      12.0913892605     7.8232706123     7.9203712896
H      10.2874824989     7.9141503198     8.0929341677
C      11.1331805762     7.2620074334     7.7671809685
O      12.2692291332     5.1852121990     8.4347593270
H      12.1034779593     4.9675715888     7.4944713038
C      11.2448572022     6.0541130046     8.8329403411
H      10.2555851974     5.5623095822     8.8017698214
C      11.5320790150     6.5908037562    10.2172845111
H      10.9449451083     7.5155841517    10.3698302832
H      12.6038254990     6.8458476158    10.2781914879
O      11.1765349508     5.5889853744    11.1739038597
H      11.4717091967     5.8824976290    12.0519554232
13
Step 25 | ATOMIC_POSITIONS (angstrom) | Cartesian Angstrom
O      11.0168416309     6.7796899901     6.5353941534
H      12.0911124303     7.8223359615     7.9210168710
H      10.2863284046     7.9136530706     8.0911858583
C      11.1326236121     7.2621070487     7.7669742931
O      12.2680202767     5.1865430289     8.4334484446
H      12.1026622181     4.9675545462     7.4929282436
C      11.2450179098     6.0556127792     8.8331272710
H      10.2563171436     5.5631599915     8.8019692267
C      11.5341040415     6.5908512220    10.2177727391
H      10.9460067832     7.5146289252    10.3713756845
H      12.6057378573     6.8470855816    10.2789273409
O      11.1787028907     5.5879526939    11.1733174947
H      11.4672088842     5.8827827337    12.0531047380
13
Step 26 | ATOMIC_POSITIONS (angstrom) | Cartesian Angstrom
O      11.0170771940     6.7774977429     6.5362059695
H      12.0910687478     7.8213304810     7.9208743677
H      10.2854000999     7.9131249096     8.0896283441
C      11.1322092697     7.2621682739     7.7669217776
O      12.2669872029     5.1873127387     8.4320512236
H      12.1021506985     4.9687562558     7.4912612448
C      11.2452592511     6.0565797573     8.8335166416
H      10.2567515091     5.5641417403     8.8025387888
C      11.5360457063     6.5910752825    10.2183260342
H      10.9467166666     7.5136741202    10.3734155965
H      12.6079125353     6.8480840099    10.2792214985
O      11.1808969768     5.5868280624    11.1725627756
H      11.4622082249     5.8833841985    12.0540180965
13
Step 27 | ATOMIC_POSITIONS (angstrom) | Cartesian Angstrom
O      11.0169840718     6.7739176481     6.5375087385
H      12.0913741266     7.8197291314     7.9198652247
H      10.2844835068     7.9126148249     8.0877888317
C      11.1317475975     7.2620003630     7.7668653689
O      12.2658420811     5.1878029266     8.4302286196
H      12.1018412177     4.9721358784     7.4884931585
C      11.2457339994     6.0574390806     8.8342617258
H      10.2569132760     5.5656615669     8.8037929077
C      11.5386809722     6.5913162024    10.2190824707
H      10.9474888918     7.5124423600    10.3766737471
H      12.6108033897     6.8492246685    10.2792912548
O      11.1840694710     5.5850882677    11.1714625140
H      11.4547214814     5.8845846545    12.0552277971
13
Step 28 | ATOMIC_POSITIONS (angstrom) | Cartesian Angstrom
O      11.0170703784     6.7689394107     6.5392008183
H      12.0916428668     7.8180586213     7.9182456830
H      10.2830506558     7.9119051602     8.0852314841
C      11.1311436389     7.2617189700     7.7666954691
O      12.2647026271     5.1880646539     8.4277645484
H      12.1009716924     4.9771918214     7.4849376551
C      11.2466596603     6.0583019919     8.8352997188
H      10.2570173669     5.5679352296     8.8060500037
C      11.5423166089     6.5915683987    10.2200238576
H      10.9487589803     7.5107067127    10.3815459051
H      12.6148700629     6.8506244518    10.2790397355
O      11.1889947535     5.5823461673    11.1697493599
H      11.4434847910     5.8865959836    12.0567581204
13
Step 29 | ATOMIC_POSITIONS (angstrom) | Cartesian Angstrom
O      11.0171804836     6.7617408045     6.5413714167
H      12.0919526897     7.8162018716     7.9154940338
H      10.2811663616     7.9110244989     8.0818168541
C      11.1303664537     7.2610067591     7.7663392891
O      12.2634513898     5.1878946443     8.4246673614
H      12.0995390137     4.9854169796     7.4799238661
C      11.2481470523     6.0592432542     8.8367892365
H      10.2570281629     5.5713062378     8.8098974278
C      11.5474171860     6.5916472852    10.2212420152
H      10.9508624161     7.5082112506    10.3886520712
H      12.6203212437     6.8522899070    10.2782746518
O      11.1966072148     5.5780672080    11.1673402918
H      11.4266444150     5.8899068723    12.0587338434
13
Step 30 | ATOMIC_POSITIONS (angstrom) | Cartesian Angstrom
O      11.0183991650     6.7526080765     6.5437300081
H      12.0913490102     7.8159182275     7.9118033995
H      10.2778639064     7.9090873757     8.0772066637
C      11.1294201912     7.2600483369     7.7656319169
O      12.2621048595     5.1867708265     8.4211493268
H      12.0962845056     4.9961000218     7.4744452979
C      11.2506809578     6.0603989921     8.8387219925
H      10.2571759186     5.5763111488     8.8161060816
C      11.5546666545     6.5913875720    10.2225403525
H      10.9547156205     7.5045568030    10.3987425817
H      12.6279659632     6.8541531232    10.2761547700
O      11.2087439377     5.5715486363    11.1637758495
H      11.4013133927     5.8950684328    12.0605341184
13
Step 31 | ATOMIC_POSITIONS (angstrom) | Cartesian Angstrom
O      11.0198837509     6.7460380898     6.5448645584
H      12.0900589533     7.8179351834     7.9082288991
H      10.2753970418     7.9069622155     8.0743384020
C      11.1290159653     7.2587673756     7.7649583178
O      12.2611044697     5.1845816542     8.4198044842
H      12.0933289616     5.0054935127     7.4710327340
C      11.2527777042     6.0610491048     8.8402352030
H      10.2572574591     5.5805089064     8.8221624034
C      11.5603376558     6.5905850893    10.2232413867
H      10.9587607125     7.5014268881    10.4066460748
H      12.6334911013     6.8547871093    10.2731008780
O      11.2199586422     5.5659169171    11.1613511490
H      11.3793116651     5.8999055267    12.0605778687
13
Step 32 | ATOMIC_POSITIONS (angstrom) | Cartesian Angstrom
O      11.0230105901     6.7414378613     6.5444377200
H      12.0865166565     7.8232389487     7.9052318432
H      10.2728397980     7.9044742694     8.0709613204
C      11.1286761527     7.2570212824     7.7640681312
O      12.2603540430     5.1823002160     8.4193575561
H      12.0882740775     5.0132866666     7.4696584798
C      11.2550473207     6.0619499954     8.8415736100
H      10.2580322596     5.5841174329     8.8295042486
C      11.5659454716     6.5885956749    10.2235720565
H      10.9648580023     7.4980083530    10.4134783054
H      12.6382380248     6.8545286831    10.2694290363
O      11.2336668913     5.5593413830    11.1595814067
H      11.3552247950     5.9056568062    12.0596886447
13
Step 33 | ATOMIC_POSITIONS (angstrom) | Cartesian Angstrom
O      11.0252483157     6.7396634123     6.5429487510
H      12.0829510282     7.8279352152     7.9034219586
H      10.2723595503     7.9030785332     8.0689507493
C      11.1284586451     7.2552986445     7.7633811298
O      12.2592200684     5.1810655804     8.4202466142
H      12.0851080694     5.0185004051     7.4689910259
C      11.2557227524     6.0627933251     8.8424092470
H      10.2588205367     5.5854054312     8.8346131034
C      11.5692886298     6.5862589880    10.2238069850
H      10.9701945655     7.4956914793    10.4159097207
H      12.6402107943     6.8535570566    10.2671435047
O      11.2438327035     5.5547647584    11.1598468121
H      11.3392684236     5.9099447438    12.0588727573
13
Step 34 | ATOMIC_POSITIONS (angstrom) | Cartesian Angstrom
O      11.0284704995     6.7392368961     6.5415871829
H      12.0787020233     7.8322187801     7.9039775485
H      10.2707085033     7.9015911897     8.0656748734
C      11.1277625874     7.2547756677     7.7626901960
O      12.2577828428     5.1817623694     8.4195369292
H      12.0812267203     5.0186395512     7.4691478173
C      11.2562567350     6.0642402915     8.8429013395
H      10.2598950994     5.5858234240     8.8380350550
C      11.5730425658     6.5844196029    10.2241038138
H      10.9752410091     7.4937535918    10.4174379255
H      12.6432217009     6.8534102120    10.2662883238
O      11.2530362884     5.5507458470    11.1597942861
H      11.3253375078     5.9133401498    12.0593670680
13
Step 35 | ATOMIC_POSITIONS (angstrom) | Cartesian Angstrom
O      11.0307738873     6.7460001369     6.5391103371
H      12.0750645037     7.8377923316     7.9066862333
H      10.2711442705     7.8998947667     8.0676985907
C      11.1281957644     7.2555356358     7.7629193682
O      12.2560057226     5.1816297390     8.4224831673
H      12.0820814906     5.0109918147     7.4732515377
C      11.2542572090     6.0643504420     8.8420604325
H      10.2596472783     5.5828320958     8.8363104089
C      11.5720608814     6.5833695640    10.2232256125
H      10.9769205655     7.4945655754    10.4117246989
H      12.6420651458     6.8514767735    10.2652046611
O      11.2532977494     5.5525039423    11.1624723863
H      11.3291696144     5.9130147552    12.0573949246
13
Step 36 | ATOMIC_POSITIONS (angstrom) | Cartesian Angstrom
O      11.0294676435     6.7421647248     6.5405149483
H      12.0771273294     7.8346315885     7.9051501468
H      10.2708971483     7.9008568027     8.0665509471
C      11.1279501111     7.2551046603     7.7627894054
O      12.2570135217     5.1817049532     8.4208123652
H      12.0815967531     5.0153288215     7.4709243311
C      11.2553911338     6.0642879760     8.8425373082
H      10.2597878169     5.5845284684     8.8372884501
C      11.5726175914     6.5839650377    10.2237236377
H      10.9759680945     7.4941051021    10.4149646513
H      12.6427210245     6.8525732202    10.2658192027
O      11.2531494757     5.5515069321    11.1609536443
H      11.3269964391     5.9131992855    12.0585133208
13
Step 37 | ATOMIC_POSITIONS (angstrom) | Cartesian Angstrom
O      11.0286925042     6.7399380606     6.5410158059
H      12.0767690008     7.8336242342     7.9037102750
H      10.2717540409     7.9010499486     8.0658886984
C      11.1275345059     7.2542206655     7.7629013882
O      12.2548178781     5.1817257836     8.4203582239
H      12.0836636349     5.0203615153     7.4671011570
C      11.2542798351     6.0645495114     8.8433340794
H      10.2590931088     5.5842561380     8.8384501077
C      11.5748094093     6.5833090083    10.2245662336
H      10.9776283500     7.4930019945    10.4154958788
H      12.6449109745     6.8522846224    10.2657064116
O      11.2573989148     5.5501358969    11.1620375912
H      11.3193319257     5.9155001937    12.0599765083
13
Step 38 | ATOMIC_POSITIONS (angstrom) | Cartesian Angstrom
O      11.0300674454     6.7408082684     6.5412513578
H      12.0753366700     7.8350545600     7.9048167141
H      10.2701575295     7.9002021023     8.0650547955
C      11.1270149774     7.2549769837     7.7631909493
O      12.2535817530     5.1817618529     8.4191272305
H      12.0840207113     5.0184383474     7.4667153214
C      11.2538395778     6.0643973517     8.8434118158
H      10.2584314096     5.5835447877     8.8384630293
C      11.5769904168     6.5832851716    10.2246245147
H      10.9788384243     7.4925116995    10.4156487641
H      12.6478821921     6.8520165419    10.2650656938
O      11.2605183873     5.5499680401    11.1624455639
H      11.3140045886     5.9169918658    12.0607266088
13
Step 39 | ATOMIC_POSITIONS (angstrom) | Cartesian Angstrom
O      11.0303983476     6.7413746853     6.5419801957
H      12.0748267803     7.8355397995     7.9052225809
H      10.2688817196     7.9001365366     8.0650690982
C      11.1264543726     7.2554166449     7.7638608194
O      12.2526404108     5.1806447651     8.4178164767
H      12.0861463393     5.0190317960     7.4649346840
C      11.2531973182     6.0631063539     8.8435921590