146
Step 1 | ATOMIC_POSITIONS (angstrom) | Cartesian Angstrom
NI      1.2254504230     0.7101865830     1.4556095020
NI      2.4444040200     2.8214761450     1.4556095020
NI      3.6633576180     4.9327657080     1.4556095020
NI      4.8823112150     7.0440552710     1.4556095020
NI      6.1012648120     9.1553448320     1.4556095020
NI      7.3202184090    11.2666343950     1.4556095020
NI      3.6633576170     0.7101865830     1.4556095020
NI      4.8823112140     2.8214761450     1.4556095020
NI      6.1012648110     4.9327657080     1.4556095020
NI      7.3202184090     7.0440552710     1.4556095020
NI      8.5391720050     9.1553448320     1.4556095020
NI      9.7581256030    11.2666343950     1.4556095020
NI      6.1012648120     0.7101865830     1.4556095020
NI      7.3202184090     2.8214761450     1.4556095020
NI      8.5391720060     4.9327657080     1.4556095020
NI      9.7581256040     7.0440552710     1.4556095020
NI     10.9770792000     9.1553448320     1.4556095020
NI     12.1960327980    11.2666343950     1.4556095020
NI      8.5391720070     0.7101865830     1.4556095020
NI      9.7581256040     2.8214761450     1.4556095020
NI     10.9770792010     4.9327657080     1.4556095020
NI     12.1960327990     7.0440552710     1.4556095020
NI     13.4149863960     9.1553448320     1.4556095020
NI     14.6339399930    11.2666343950     1.4556095020
NI     10.9770792000     0.7101865830     1.4556095020
NI     12.1960327970     2.8214761450     1.4556095020
NI     13.4149863950     4.9327657080     1.4556095020
NI     14.6339399920     7.0440552710     1.4556095020
NI     15.8528935890     9.1553448320     1.4556095020
NI     17.0718471870    11.2666343950     1.4556095020
NI     13.4149863960     0.7101865830     1.4556095020
NI     14.6339399920     2.8214761450     1.4556095020
NI     15.8528935900     4.9327657080     1.4556095020
NI     17.0718471870     7.0440552710     1.4556095020
NI     18.2908007840     9.1553448320     1.4556095020
NI     19.5097543820    11.2666343950     1.4556095020
NI     13.4530017028     7.7620722117     3.4115218745
NI     14.6486346714     9.8288872634     3.4002924476
NI     15.8398953323     7.7656090700     3.3920503854
NI     12.2451875076     9.8344153863     3.4276921352
NI     14.6446549240     5.6893661152     3.4230929785
NI     17.0364822933     9.8322999495     3.4131640733
NI     11.0253045805     7.7531726901     3.4440126517
NI     13.4427172810    11.9251821374     3.4403008310
NI     12.2319355819     5.6722673142     3.4408250132
NI     15.8442892234    11.9203179247     3.4312593577
NI     17.0477964852     5.6828402280     3.4334249100
NI     18.2412514400     7.7595828803     3.4229801823
NI      9.7930688913     9.8420300526     3.4675194496
NI     11.0138440663    11.9448169140     3.4636524888
NI     13.4258316587     3.5689173057     3.4639872375
NI     18.2545085698    11.9347898091     3.4524861525
NI     15.8496181163     3.5774706073     3.4517792868
NI     19.4602277414     9.8392071425     3.4435171430
NI      4.8453449981     5.6625073046     3.4506462964
NI      7.3259306861     1.3756072111     3.4619870089
NI      9.7853772673     5.6510770238     3.4709217903
NI      3.6507432262     3.5574808986     3.4729144164
NI      6.0612216439     7.7483191529     3.4626448294
NI      4.8981572583     1.3995266798     3.4784606308
NI      8.5515243449     7.7441868308     3.4800932964
NI      9.7455651171     1.3833388897     3.4714614598
NI     10.9885147501     3.5425736428     3.4789843627
NI      2.4530350354     1.4278927835     3.4821390654
NI      7.3045304555     9.8436912798     3.4808148872
NI     12.1811295536     1.4129016916     3.4816569086
NI      6.0924866375     3.5279427190     3.4819458544
NI      7.3072970685     5.6440820798     3.4814567584
NI      8.5421573399     3.5158665819     3.4895567266
NI      8.5491507041    11.9616548170     3.4941909460
NI     14.6299676915     1.4354497216     3.4845010994
NI     20.7001620249    11.9543794757     3.4774328873
AG     -0.1191810313     0.0099494726     5.7671100597
AG      5.7496339048     5.0469892361     5.7846473114
AG      7.1845549774     2.5601903220     5.7779000246
AG      8.6303240096     5.0582450287     5.7674670567
AG      1.3326478496     2.4900952532     5.7808762747
AG      5.7656138347    10.1684475253     5.7963713861
AG      2.7685296182     0.0152835833     5.7772144677
AG      8.6298133567    10.1639203286     5.7849208283
AG     11.6091147270     0.0338072866     5.8051721987
AG     13.0376443663     2.5096295221     5.7974692138
AG      4.2587349809     2.5222217102     5.8025921236
AG      7.1990923890     7.6022232980     5.7918699257
AG     10.1110373595     2.5497074098     5.7929953156
AG      2.8251398785     5.0092847859     5.8316630986
AG      4.3206331114     7.5863608495     5.8277510650
AG      5.6938571687     0.0488834757     5.8129198409
AG     10.0552554401     7.6003637600     5.8032971204
AG      8.6603031355     0.0625076934     5.8202762512
AG     11.5320261788     5.0379184045     5.8036861880
AG     11.5098589782    10.1687572682     5.8182998342
AG     14.4886320184     5.0040570991     5.8302940254
AG     17.4716758114    10.1721936604     5.8491002759
AG     12.9725610239     7.5906895317     5.8526623532
AG     14.4833626952    10.1761422612     5.8552014704
AG     15.9834199999     7.5725139654     5.8594609376
AG      5.7182852194     3.3784273077     8.1043982991
AG      7.1869749076     5.9180626474     8.0973700347
AG      8.6427662546     3.3793114082     8.0990543458
AG      4.2646821776     5.9048820764     8.1162695751
AG      7.1783415351     0.8580981420     8.1111748328
AG     10.0945227581     5.9057729332     8.0958060871
AG      1.3280673680     0.8465299603     8.1074589353
AG      7.1852709679    10.9998482058     8.1103300436
AG     13.0454285962     0.8485448003     8.1152664176
AG      2.7887397880     3.3616198462     8.1221282691
AG      5.7255451646     8.4629953154     8.1132897406
AG      4.2444634022     0.8418923172     8.1170604374
AG      8.6226764930     8.4695535886     8.1013492588
AG     10.1191291834     0.8552057734     8.1183910536
AG     11.5771668670     3.3739116744     8.1153235538
AG     11.5310188292     8.4641343355     8.0984397869
AG     13.0218091638    10.9910130247     8.1181561222
AG     13.0300640681     5.8953652163     8.1145451528
AG     15.9653384988    10.9949554204     8.1295289047
AG     15.9576056343     5.8981546955     8.1374982377
AG     17.4355066395     8.4469304342     8.1257807283
AG     10.0865975383    11.0008679444     8.1124801104
AG     14.5046280793     3.3621923089     8.1228523007
AG     18.9035472491    10.9941920357     8.1273187807
AG     14.4987936931     8.4459816255     8.1151335602
O      11.3543946722     8.1966752583    10.7205079639
H      13.2920608802     8.8352932971    10.8793456500
C      12.4607572697     8.2081457232    11.2564546986
H      10.8563419965     6.9086278919    12.1531990028
O      11.5407695500     6.6333703205    12.8064119315
C      12.7058730638     7.3765554575    12.4825800636
H      13.5487741062     6.6930344927    12.2652085080
O      14.3835470529     8.8895033576    13.1713882388
C      13.1670224409     8.3162844767    13.6331212576
H      12.3864150205     9.0893786189    13.7831238404
H      14.9322508140     9.0827121008    13.9668625431
H      14.0869661953     6.7717858271    14.8464375197
C      13.3254962649     7.5678647112    14.9732448841
O      12.0833005326     7.0173753826    15.4141768267
O      15.1613493532     8.8806727647    15.7517801057
C      13.8016601985     8.5090393683    16.0909025876
H      11.6126565963     6.6794069176    14.6198008290
H      13.1471066891     9.4001318909    16.1059141050
H      15.4481950899     9.5812163524    16.3623549320
H      14.2015924014     6.8443602647    17.4268449353
C      13.7514729798     7.8539454797    17.4791747614
O      12.4428660508     7.8321339943    18.0289548179
H      14.3704434112     8.4522850275    18.1661252367
H      11.8844802032     7.3761934427    17.3687189195
146
Step 2 | ATOMIC_POSITIONS (angstrom) | Cartesian Angstrom
NI      1.2254504230     0.7101865830     1.4556095020
NI      2.4444040200     2.8214761450     1.4556095020
NI      3.6633576180     4.9327657080     1.4556095020
NI      4.8823112150     7.0440552710     1.4556095020
NI      6.1012648120     9.1553448320     1.4556095020
NI      7.3202184090    11.2666343950     1.4556095020
NI      3.6633576170     0.7101865830     1.4556095020
NI      4.8823112140     2.8214761450     1.4556095020
NI      6.1012648110     4.9327657080     1.4556095020
NI      7.3202184090     7.0440552710     1.4556095020
NI      8.5391720050     9.1553448320     1.4556095020
NI      9.7581256030    11.2666343950     1.4556095020
NI      6.1012648120     0.7101865830     1.4556095020
NI      7.3202184090     2.8214761450     1.4556095020
NI      8.5391720060     4.9327657080     1.4556095020
NI      9.7581256040     7.0440552710     1.4556095020
NI     10.9770792000     9.1553448320     1.4556095020
NI     12.1960327980    11.2666343950     1.4556095020
NI      8.5391720070     0.7101865830     1.4556095020
NI      9.7581256040     2.8214761450     1.4556095020
NI     10.9770792010     4.9327657080     1.4556095020
NI     12.1960327990     7.0440552710     1.4556095020
NI     13.4149863960     9.1553448320     1.4556095020
NI     14.6339399930    11.2666343950     1.4556095020
NI     10.9770792000     0.7101865830     1.4556095020
NI     12.1960327970     2.8214761450     1.4556095020
NI     13.4149863950     4.9327657080     1.4556095020
NI     14.6339399920     7.0440552710     1.4556095020
NI     15.8528935890     9.1553448320     1.4556095020
NI     17.0718471870    11.2666343950     1.4556095020
NI     13.4149863960     0.7101865830     1.4556095020
NI     14.6339399920     2.8214761450     1.4556095020
NI     15.8528935900     4.9327657080     1.4556095020
NI     17.0718471870     7.0440552710     1.4556095020
NI     18.2908007840     9.1553448320     1.4556095020
NI     19.5097543820    11.2666343950     1.4556095020
NI     13.4529859927     7.7619226030     3.4113114278
NI     14.6485971940     9.8292283776     3.4004344894
NI     15.8401718448     7.7654244778     3.3922246544
NI     12.2453352281     9.8345288284     3.4278438494
NI     14.6445722738     5.6893587855     3.4229512559
NI     17.0362654379     9.8322815923     3.4132732250
NI     11.0257075462     7.7530196711     3.4437362505
NI     13.4427433785    11.9250809888     3.4403715154
NI     12.2321500520     5.6724356959     3.4405587087
NI     15.8441800196    11.9199770924     3.4311240603
NI     17.0476555895     5.6829724084     3.4332051122
NI     18.2411022318     7.7594600578     3.4230629974
NI      9.7932877206     9.8421640506     3.4673613337
NI     11.0138690112    11.9448325769     3.4638042847
NI     13.4256008898     3.5690323521     3.4639027099
NI     18.2544846267    11.9347615505     3.4523928143
NI     15.8497084162     3.5772296145     3.4517406458
NI     19.4600806836     9.8391685561     3.4436403915
NI      4.8452600811     5.6624201229     3.4507252210
NI      7.3258529914     1.3756963866     3.4618998644
NI      9.7853497862     5.6509577973     3.4710354260
NI      3.6508950930     3.5575765112     3.4729438631
NI      6.0612298181     7.7483250737     3.4627683593
NI      4.8981464316     1.3994538151     3.4785130647
NI      8.5514698305     7.7442623433     3.4799909642
NI      9.7456648024     1.3834276452     3.4713388462
NI     10.9885074919     3.5423309467     3.4788596359
NI      2.4532393985     1.4280262483     3.4821536113
NI      7.3045629066     9.8437866057     3.4808031052
NI     12.1811725998     1.4129421391     3.4818339688
NI      6.0924506962     3.5278704110     3.4819328916
NI      7.3073478763     5.6441334041     3.4817385011
NI      8.5421750205     3.5160561099     3.4895431025
NI      8.5490102110    11.9614110971     3.4939610649
NI     14.6299002929     1.4355423756     3.4845361542
NI     20.7002438901    11.9544838453     3.4774665506
AG     -0.1191077354     0.0098009668     5.7673539804
AG      5.7497201973     5.0471413888     5.7845354131
AG      7.1846988179     2.5600240269     5.7779865061
AG      8.6305035138     5.0583806118     5.7675080783
AG      1.3325478605     2.4903982785     5.7812670305
AG      5.7657912441    10.1681321614     5.7964351468
AG      2.7684169891     0.0153483067     5.7772533788
AG      8.6296821186    10.1638700035     5.7848764804
AG     11.6090374437     0.0337344624     5.8051217819
AG     13.0376652246     2.5095804705     5.7975094629
AG      4.2584799797     2.5221874281     5.8025352408
AG      7.1989251478     7.6022602060     5.7921359678
AG     10.1108711689     2.5497106130     5.7928423447
AG      2.8248488696     5.0095053372     5.8314942487
AG      4.3205445346     7.5864950590     5.8279397170
AG      5.6937729756     0.0488020581     5.8129639918
AG     10.0554669703     7.6003909332     5.8035362251
AG      8.6602111683     0.0625386419     5.8202345198
AG     11.5319819352     5.0379175017     5.8037989562
AG     11.5099507672    10.1686261756     5.8180866710
AG     14.4886939168     5.0041757350     5.8304174719
AG     17.4716568460    10.1722346013     5.8491413780
AG     12.9724438213     7.5906991482     5.8526805882
AG     14.4831506449    10.1762476602     5.8551359621
AG     15.9832563835     7.5723535537     5.8592483046
AG      5.7181948987     3.3783785985     8.1043056567
AG      7.1865953133     5.9181011829     8.0973740378
AG      8.6429443511     3.3795517946     8.0989725001
AG      4.2647262019     5.9049643575     8.1161823396
AG      7.1782685018     0.8577987123     8.1111331034
AG     10.0946847553     5.9058112483     8.0957656728
AG      1.3279731038     0.8463517408     8.1075390802
AG      7.1851704508    10.9998986570     8.1105641648
AG     13.0456244099     0.8484869924     8.1154010237
AG      2.7888560479     3.3615248654     8.1221360568
AG      5.7257777281     8.4629561039     8.1134353765
AG      4.2443385337     0.8421023563     8.1171835837
AG      8.6225745332     8.4691694217     8.1014049449
AG     10.1193235525     0.8550674120     8.1182223568
AG     11.5771819440     3.3739818667     8.1152448699
AG     11.5310193706     8.4640719998     8.0990686852
AG     13.0217293242    10.9911882879     8.1182938052
AG     13.0300697738     5.8955349710     8.1143636377
AG     15.9652999213    10.9947692982     8.1295242273
AG     15.9576717047     5.8980529438     8.1371810874
AG     17.4354495859     8.4471624178     8.1259201329
AG     10.0866449468    11.0011785463     8.1126656329
AG     14.5043484951     3.3620387594     8.1229884043
AG     18.9035477204    10.9943467976     8.1274002063
AG     14.4985723551     8.4459813249     8.1151198500
O      11.3543453130     8.1967220910    10.7202578438
H      13.2924564049     8.8345914070    10.8791038415
C      12.4607038787     8.2084742601    11.2567788120
H      10.8567112087     6.9088380739    12.1533880743
O      11.5410877167     6.6330674238    12.8064383470
C      12.7061059705     7.3765943270    12.4828367332
H      13.5491133993     6.6928514108    12.2656335127
O      14.3834252606     8.8899327327    13.1716093672
C      13.1669426389     8.3164820714    13.6332966554
H      12.3860931065     9.0894222048    13.7829336662
H      14.9322001084     9.0828512664    13.9670011435
H      14.0871926944     6.7719946333    14.8463341531
C      13.3254201103     7.5678626883    14.9732911601
O      12.0830310324     7.0175395260    15.4140400236
O      15.1614531087     8.8806209131    15.7513428470
C      13.8018070521     8.5088852518    16.0909188329
H      11.6124028281     6.6793966516    14.6196791077
H      13.1473980704     9.3999410249    16.1061643301
H      15.4483307271     9.5808721125    16.3622269062
H      14.2014402023     6.8443808564    17.4266326834
C      13.7515072661     7.8539914595    17.4793761171
O      12.4427298545     7.8318499802    18.0291122272
H      14.3706026186     8.4524202257    18.1663082893
H      11.8844768457     7.3761468650    17.3685352010
