146
Step 1 | ATOMIC_POSITIONS (angstrom) | Cartesian Angstrom
NI      1.2254504230     0.7101865830     1.4556095020
NI      2.4444040200     2.8214761450     1.4556095020
NI      3.6633576180     4.9327657080     1.4556095020
NI      4.8823112150     7.0440552710     1.4556095020
NI      6.1012648120     9.1553448320     1.4556095020
NI      7.3202184090    11.2666343950     1.4556095020
NI      3.6633576170     0.7101865830     1.4556095020
NI      4.8823112140     2.8214761450     1.4556095020
NI      6.1012648110     4.9327657080     1.4556095020
NI      7.3202184090     7.0440552710     1.4556095020
NI      8.5391720050     9.1553448320     1.4556095020
NI      9.7581256030    11.2666343950     1.4556095020
NI      6.1012648120     0.7101865830     1.4556095020
NI      7.3202184090     2.8214761450     1.4556095020
NI      8.5391720060     4.9327657080     1.4556095020
NI      9.7581256040     7.0440552710     1.4556095020
NI     10.9770792000     9.1553448320     1.4556095020
NI     12.1960327980    11.2666343950     1.4556095020
NI      8.5391720070     0.7101865830     1.4556095020
NI      9.7581256040     2.8214761450     1.4556095020
NI     10.9770792010     4.9327657080     1.4556095020
NI     12.1960327990     7.0440552710     1.4556095020
NI     13.4149863960     9.1553448320     1.4556095020
NI     14.6339399930    11.2666343950     1.4556095020
NI     10.9770792000     0.7101865830     1.4556095020
NI     12.1960327970     2.8214761450     1.4556095020
NI     13.4149863950     4.9327657080     1.4556095020
NI     14.6339399920     7.0440552710     1.4556095020
NI     15.8528935890     9.1553448320     1.4556095020
NI     17.0718471870    11.2666343950     1.4556095020
NI     13.4149863960     0.7101865830     1.4556095020
NI     14.6339399920     2.8214761450     1.4556095020
NI     15.8528935900     4.9327657080     1.4556095020
NI     17.0718471870     7.0440552710     1.4556095020
NI     18.2908007840     9.1553448320     1.4556095020
NI     19.5097543820    11.2666343950     1.4556095020
NI     13.4530017028     7.7620722117     3.4115218745
NI     14.6486346714     9.8288872634     3.4002924476
NI     15.8398953323     7.7656090700     3.3920503854
NI     12.2451875076     9.8344153863     3.4276921352
NI     14.6446549240     5.6893661152     3.4230929785
NI     17.0364822933     9.8322999495     3.4131640733
NI     11.0253045805     7.7531726901     3.4440126517
NI     13.4427172810    11.9251821374     3.4403008310
NI     12.2319355819     5.6722673142     3.4408250132
NI     15.8442892234    11.9203179247     3.4312593577
NI     17.0477964852     5.6828402280     3.4334249100
NI     18.2412514400     7.7595828803     3.4229801823
NI      9.7930688913     9.8420300526     3.4675194496
NI     11.0138440663    11.9448169140     3.4636524888
NI     13.4258316587     3.5689173057     3.4639872375
NI     18.2545085698    11.9347898091     3.4524861525
NI     15.8496181163     3.5774706073     3.4517792868
NI     19.4602277414     9.8392071425     3.4435171430
NI      4.8453449981     5.6625073046     3.4506462964
NI      7.3259306861     1.3756072111     3.4619870089
NI      9.7853772673     5.6510770238     3.4709217903
NI      3.6507432262     3.5574808986     3.4729144164
NI      6.0612216439     7.7483191529     3.4626448294
NI      4.8981572583     1.3995266798     3.4784606308
NI      8.5515243449     7.7441868308     3.4800932964
NI      9.7455651171     1.3833388897     3.4714614598
NI     10.9885147501     3.5425736428     3.4789843627
NI      2.4530350354     1.4278927835     3.4821390654
NI      7.3045304555     9.8436912798     3.4808148872
NI     12.1811295536     1.4129016916     3.4816569086
NI      6.0924866375     3.5279427190     3.4819458544
NI      7.3072970685     5.6440820798     3.4814567584
NI      8.5421573399     3.5158665819     3.4895567266
NI      8.5491507041    11.9616548170     3.4941909460
NI     14.6299676915     1.4354497216     3.4845010994
NI     20.7001620249    11.9543794757     3.4774328873
AG     -0.1191810313     0.0099494726     5.7671100597
AG      5.7496339048     5.0469892361     5.7846473114
AG      7.1845549774     2.5601903220     5.7779000246
AG      8.6303240096     5.0582450287     5.7674670567
AG      1.3326478496     2.4900952532     5.7808762747
AG      5.7656138347    10.1684475253     5.7963713861
AG      2.7685296182     0.0152835833     5.7772144677
AG      8.6298133567    10.1639203286     5.7849208283
AG     11.6091147270     0.0338072866     5.8051721987
AG     13.0376443663     2.5096295221     5.7974692138
AG      4.2587349809     2.5222217102     5.8025921236
AG      7.1990923890     7.6022232980     5.7918699257
AG     10.1110373595     2.5497074098     5.7929953156
AG      2.8251398785     5.0092847859     5.8316630986
AG      4.3206331114     7.5863608495     5.8277510650
AG      5.6938571687     0.0488834757     5.8129198409
AG     10.0552554401     7.6003637600     5.8032971204
AG      8.6603031355     0.0625076934     5.8202762512
AG     11.5320261788     5.0379184045     5.8036861880
AG     11.5098589782    10.1687572682     5.8182998342
AG     14.4886320184     5.0040570991     5.8302940254
AG     17.4716758114    10.1721936604     5.8491002759
AG     12.9725610239     7.5906895317     5.8526623532
AG     14.4833626952    10.1761422612     5.8552014704
AG     15.9834199999     7.5725139654     5.8594609376
AG      5.7182852194     3.3784273077     8.1043982991
AG      7.1869749076     5.9180626474     8.0973700347
AG      8.6427662546     3.3793114082     8.0990543458
AG      4.2646821776     5.9048820764     8.1162695751
AG      7.1783415351     0.8580981420     8.1111748328
AG     10.0945227581     5.9057729332     8.0958060871
AG      1.3280673680     0.8465299603     8.1074589353
AG      7.1852709679    10.9998482058     8.1103300436
AG     13.0454285962     0.8485448003     8.1152664176
AG      2.7887397880     3.3616198462     8.1221282691
AG      5.7255451646     8.4629953154     8.1132897406
AG      4.2444634022     0.8418923172     8.1170604374
AG      8.6226764930     8.4695535886     8.1013492588
AG     10.1191291834     0.8552057734     8.1183910536
AG     11.5771668670     3.3739116744     8.1153235538
AG     11.5310188292     8.4641343355     8.0984397869
AG     13.0218091638    10.9910130247     8.1181561222
AG     13.0300640681     5.8953652163     8.1145451528
AG     15.9653384988    10.9949554204     8.1295289047
AG     15.9576056343     5.8981546955     8.1374982377
AG     17.4355066395     8.4469304342     8.1257807283
AG     10.0865975383    11.0008679444     8.1124801104
AG     14.5046280793     3.3621923089     8.1228523007
AG     18.9035472491    10.9941920357     8.1273187807
AG     14.4987936931     8.4459816255     8.1151335602
O      11.3543946722     8.1966752583    10.7205079639
H      13.2920608802     8.8352932971    10.8793456500
C      12.4607572697     8.2081457232    11.2564546986
H      10.8563419965     6.9086278919    12.1531990028
O      11.5407695500     6.6333703205    12.8064119315
C      12.7058730638     7.3765554575    12.4825800636
H      13.5487741062     6.6930344927    12.2652085080
O      14.3835470529     8.8895033576    13.1713882388
C      13.1670224409     8.3162844767    13.6331212576
H      12.3864150205     9.0893786189    13.7831238404
H      14.9322508140     9.0827121008    13.9668625431
H      14.0869661953     6.7717858271    14.8464375197
C      13.3254962649     7.5678647112    14.9732448841
O      12.0833005326     7.0173753826    15.4141768267
O      15.1613493532     8.8806727647    15.7517801057
C      13.8016601985     8.5090393683    16.0909025876
H      11.6126565963     6.6794069176    14.6198008290
H      13.1471066891     9.4001318909    16.1059141050
H      15.4481950899     9.5812163524    16.3623549320
H      14.2015924014     6.8443602647    17.4268449353
C      13.7514729798     7.8539454797    17.4791747614
O      12.4428660508     7.8321339943    18.0289548179
H      14.3704434112     8.4522850275    18.1661252367
H      11.8844802032     7.3761934427    17.3687189195
146
Step 2 | ATOMIC_POSITIONS (angstrom) | Cartesian Angstrom
NI      1.2254504230     0.7101865830     1.4556095020
NI      2.4444040200     2.8214761450     1.4556095020
NI      3.6633576180     4.9327657080     1.4556095020
NI      4.8823112150     7.0440552710     1.4556095020
NI      6.1012648120     9.1553448320     1.4556095020
NI      7.3202184090    11.2666343950     1.4556095020
NI      3.6633576170     0.7101865830     1.4556095020
NI      4.8823112140     2.8214761450     1.4556095020
NI      6.1012648110     4.9327657080     1.4556095020
NI      7.3202184090     7.0440552710     1.4556095020
NI      8.5391720050     9.1553448320     1.4556095020
NI      9.7581256030    11.2666343950     1.4556095020
NI      6.1012648120     0.7101865830     1.4556095020
NI      7.3202184090     2.8214761450     1.4556095020
NI      8.5391720060     4.9327657080     1.4556095020
NI      9.7581256040     7.0440552710     1.4556095020
NI     10.9770792000     9.1553448320     1.4556095020
NI     12.1960327980    11.2666343950     1.4556095020
NI      8.5391720070     0.7101865830     1.4556095020
NI      9.7581256040     2.8214761450     1.4556095020
NI     10.9770792010     4.9327657080     1.4556095020
NI     12.1960327990     7.0440552710     1.4556095020
NI     13.4149863960     9.1553448320     1.4556095020
NI     14.6339399930    11.2666343950     1.4556095020
NI     10.9770792000     0.7101865830     1.4556095020
NI     12.1960327970     2.8214761450     1.4556095020
NI     13.4149863950     4.9327657080     1.4556095020
NI     14.6339399920     7.0440552710     1.4556095020
NI     15.8528935890     9.1553448320     1.4556095020
NI     17.0718471870    11.2666343950     1.4556095020
NI     13.4149863960     0.7101865830     1.4556095020
NI     14.6339399920     2.8214761450     1.4556095020
NI     15.8528935900     4.9327657080     1.4556095020
NI     17.0718471870     7.0440552710     1.4556095020
NI     18.2908007840     9.1553448320     1.4556095020
NI     19.5097543820    11.2666343950     1.4556095020
NI     13.4529859927     7.7619226030     3.4113114278
NI     14.6485971940     9.8292283776     3.4004344894
NI     15.8401718448     7.7654244778     3.3922246544
NI     12.2453352281     9.8345288284     3.4278438494
NI     14.6445722738     5.6893587855     3.4229512559
NI     17.0362654379     9.8322815923     3.4132732250
NI     11.0257075462     7.7530196711     3.4437362505
NI     13.4427433785    11.9250809888     3.4403715154
NI     12.2321500520     5.6724356959     3.4405587087
NI     15.8441800196    11.9199770924     3.4311240603
NI     17.0476555895     5.6829724084     3.4332051122
NI     18.2411022318     7.7594600578     3.4230629974
NI      9.7932877206     9.8421640506     3.4673613337
NI     11.0138690112    11.9448325769     3.4638042847
NI     13.4256008898     3.5690323521     3.4639027099
NI     18.2544846267    11.9347615505     3.4523928143
NI     15.8497084162     3.5772296145     3.4517406458
NI     19.4600806836     9.8391685561     3.4436403915
NI      4.8452600811     5.6624201229     3.4507252210
NI      7.3258529914     1.3756963866     3.4618998644
NI      9.7853497862     5.6509577973     3.4710354260
NI      3.6508950930     3.5575765112     3.4729438631
NI      6.0612298181     7.7483250737     3.4627683593
NI      4.8981464316     1.3994538151     3.4785130647
NI      8.5514698305     7.7442623433     3.4799909642
NI      9.7456648024     1.3834276452     3.4713388462
NI     10.9885074919     3.5423309467     3.4788596359
NI      2.4532393985     1.4280262483     3.4821536113
NI      7.3045629066     9.8437866057     3.4808031052
NI     12.1811725998     1.4129421391     3.4818339688
NI      6.0924506962     3.5278704110     3.4819328916
NI      7.3073478763     5.6441334041     3.4817385011
NI      8.5421750205     3.5160561099     3.4895431025
NI      8.5490102110    11.9614110971     3.4939610649
NI     14.6299002929     1.4355423756     3.4845361542
NI     20.7002438901    11.9544838453     3.4774665506
AG     -0.1191077354     0.0098009668     5.7673539804
AG      5.7497201973     5.0471413888     5.7845354131
AG      7.1846988179     2.5600240269     5.7779865061
AG      8.6305035138     5.0583806118     5.7675080783
AG      1.3325478605     2.4903982785     5.7812670305
AG      5.7657912441    10.1681321614     5.7964351468
AG      2.7684169891     0.0153483067     5.7772533788
AG      8.6296821186    10.1638700035     5.7848764804
AG     11.6090374437     0.0337344624     5.8051217819
AG     13.0376652246     2.5095804705     5.7975094629
AG      4.2584799797     2.5221874281     5.8025352408
AG      7.1989251478     7.6022602060     5.7921359678
AG     10.1108711689     2.5497106130     5.7928423447
AG      2.8248488696     5.0095053372     5.8314942487
AG      4.3205445346     7.5864950590     5.8279397170
AG      5.6937729756     0.0488020581     5.8129639918
AG     10.0554669703     7.6003909332     5.8035362251
AG      8.6602111683     0.0625386419     5.8202345198
AG     11.5319819352     5.0379175017     5.8037989562
AG     11.5099507672    10.1686261756     5.8180866710
AG     14.4886939168     5.0041757350     5.8304174719
AG     17.4716568460    10.1722346013     5.8491413780
AG     12.9724438213     7.5906991482     5.8526805882
AG     14.4831506449    10.1762476602     5.8551359621
AG     15.9832563835     7.5723535537     5.8592483046
AG      5.7181948987     3.3783785985     8.1043056567
AG      7.1865953133     5.9181011829     8.0973740378
AG      8.6429443511     3.3795517946     8.0989725001
AG      4.2647262019     5.9049643575     8.1161823396
AG      7.1782685018     0.8577987123     8.1111331034
AG     10.0946847553     5.9058112483     8.0957656728
AG      1.3279731038     0.8463517408     8.1075390802
AG      7.1851704508    10.9998986570     8.1105641648
AG     13.0456244099     0.8484869924     8.1154010237
AG      2.7888560479     3.3615248654     8.1221360568
AG      5.7257777281     8.4629561039     8.1134353765
AG      4.2443385337     0.8421023563     8.1171835837
AG      8.6225745332     8.4691694217     8.1014049449
AG     10.1193235525     0.8550674120     8.1182223568
AG     11.5771819440     3.3739818667     8.1152448699
AG     11.5310193706     8.4640719998     8.0990686852
AG     13.0217293242    10.9911882879     8.1182938052
AG     13.0300697738     5.8955349710     8.1143636377
AG     15.9652999213    10.9947692982     8.1295242273
AG     15.9576717047     5.8980529438     8.1371810874
AG     17.4354495859     8.4471624178     8.1259201329
AG     10.0866449468    11.0011785463     8.1126656329
AG     14.5043484951     3.3620387594     8.1229884043
AG     18.9035477204    10.9943467976     8.1274002063
AG     14.4985723551     8.4459813249     8.1151198500
O      11.3543453130     8.1967220910    10.7202578438
H      13.2924564049     8.8345914070    10.8791038415
C      12.4607038787     8.2084742601    11.2567788120
H      10.8567112087     6.9088380739    12.1533880743
O      11.5410877167     6.6330674238    12.8064383470
C      12.7061059705     7.3765943270    12.4828367332
H      13.5491133993     6.6928514108    12.2656335127
O      14.3834252606     8.8899327327    13.1716093672
C      13.1669426389     8.3164820714    13.6332966554
H      12.3860931065     9.0894222048    13.7829336662
H      14.9322001084     9.0828512664    13.9670011435
H      14.0871926944     6.7719946333    14.8463341531
C      13.3254201103     7.5678626883    14.9732911601
O      12.0830310324     7.0175395260    15.4140400236
O      15.1614531087     8.8806209131    15.7513428470
C      13.8018070521     8.5088852518    16.0909188329
H      11.6124028281     6.6793966516    14.6196791077
H      13.1473980704     9.3999410249    16.1061643301
H      15.4483307271     9.5808721125    16.3622269062
H      14.2014402023     6.8443808564    17.4266326834
C      13.7515072661     7.8539914595    17.4793761171
O      12.4427298545     7.8318499802    18.0291122272
H      14.3706026186     8.4524202257    18.1663082893
H      11.8844768457     7.3761468650    17.3685352010
146
Step 3 | ATOMIC_POSITIONS (angstrom) | Cartesian Angstrom
NI      1.2254504230     0.7101865830     1.4556095020
NI      2.4444040200     2.8214761450     1.4556095020
NI      3.6633576180     4.9327657080     1.4556095020
NI      4.8823112150     7.0440552710     1.4556095020
NI      6.1012648120     9.1553448320     1.4556095020
NI      7.3202184090    11.2666343950     1.4556095020
NI      3.6633576170     0.7101865830     1.4556095020
NI      4.8823112140     2.8214761450     1.4556095020
NI      6.1012648110     4.9327657080     1.4556095020
NI      7.3202184090     7.0440552710     1.4556095020
NI      8.5391720050     9.1553448320     1.4556095020
NI      9.7581256030    11.2666343950     1.4556095020
NI      6.1012648120     0.7101865830     1.4556095020
NI      7.3202184090     2.8214761450     1.4556095020
NI      8.5391720060     4.9327657080     1.4556095020
NI      9.7581256040     7.0440552710     1.4556095020
NI     10.9770792000     9.1553448320     1.4556095020
NI     12.1960327980    11.2666343950     1.4556095020
NI      8.5391720070     0.7101865830     1.4556095020
NI      9.7581256040     2.8214761450     1.4556095020
NI     10.9770792010     4.9327657080     1.4556095020
NI     12.1960327990     7.0440552710     1.4556095020
NI     13.4149863960     9.1553448320     1.4556095020
NI     14.6339399930    11.2666343950     1.4556095020
NI     10.9770792000     0.7101865830     1.4556095020
NI     12.1960327970     2.8214761450     1.4556095020
NI     13.4149863950     4.9327657080     1.4556095020
NI     14.6339399920     7.0440552710     1.4556095020
NI     15.8528935890     9.1553448320     1.4556095020
NI     17.0718471870    11.2666343950     1.4556095020
NI     13.4149863960     0.7101865830     1.4556095020
NI     14.6339399920     2.8214761450     1.4556095020
NI     15.8528935900     4.9327657080     1.4556095020
NI     17.0718471870     7.0440552710     1.4556095020
NI     18.2908007840     9.1553448320     1.4556095020
NI     19.5097543820    11.2666343950     1.4556095020
NI     13.4530742926     7.7618102612     3.4110439094
NI     14.6485362648     9.8295658310     3.4005697017
NI     15.8404624887     7.7652505547     3.3923890287
NI     12.2455682101     9.8346580207     3.4280123726
NI     14.6444763202     5.6892773533     3.4227852757
NI     17.0359718686     9.8322293716     3.4134079601
NI     11.0262104681     7.7528220482     3.4434183507
NI     13.4427662560    11.9250211740     3.4404409113
NI     12.2324024485     5.6726002799     3.4402515996
NI     15.8440585245    11.9196010859     3.4309364737
NI     17.0474403691     5.6830728457     3.4328766053
NI     18.2409574366     7.7593203046     3.4231747685
NI      9.7936372807     9.8422999781     3.4671767562
NI     11.0138876597    11.9448947023     3.4640204644
NI     13.4252786286     3.5692083142     3.4638016635
NI     18.2544375006    11.9347277701     3.4522447449
NI     15.8498245223     3.5768625673     3.4516989057
NI     19.4598450430     9.8391074879     3.4438086090
NI      4.8451511523     5.6623037339     3.4508098790
NI      7.3257754697     1.3758067148     3.4617498095
NI      9.7853557501     5.6508178872     3.4711956848
NI      3.6511066904     3.5577368924     3.4729835939
NI      6.0612138390     7.7483426089     3.4629267599
NI      4.8981579902     1.3993129339     3.4785756737
NI      8.5514580528     7.7443977497     3.4798785544
NI      9.7457446094     1.3834928268     3.4711375439
NI     10.9885041285     3.5420127547     3.4786719396
NI      2.4535070829     1.4281788994     3.4821870935
NI      7.3045881700     9.8439055616     3.4807873082
NI     12.1812491675     1.4129611903     3.4820876279
NI      6.0924237156     3.5277563536     3.4819115425
NI      7.3074017942     5.6442215817     3.4821327929
NI      8.5421727028     3.5163148563     3.4895068193
NI      8.5488257196    11.9611180927     3.4936455782
NI     14.6298420207     1.4356684452     3.4846144922
NI     20.7003352570    11.9546459077     3.4775246474
AG     -0.1189915354     0.0095720611     5.7677019845
AG      5.7498491144     5.0473430277     5.7843703856
AG      7.1849023850     2.5597776768     5.7781272136
AG      8.6307677081     5.0586030921     5.7676042086
AG      1.3323767725     2.4908624324     5.7818657754
AG      5.7660517613    10.1676493199     5.7965441604
AG      2.7682203120     0.0154392948     5.7773055900
AG      8.6295318256    10.1637741449     5.7848330327
AG     11.6089318504     0.0336047110     5.8050324936
AG     13.0377005922     2.5095032047     5.7975624583
AG      4.2580899893     2.5221472097     5.8024492008
AG      7.1987037123     7.6023170531     5.7925222499
AG     10.1106111400     2.5497096558     5.7926092519
AG      2.8244155343     5.0098452562     5.8312236711
AG      4.3203780161     7.5867232583     5.8282428353
AG      5.6936149748     0.0486894500     5.8130387696
AG     10.0558055788     7.6004814716     5.8038426172
AG      8.6600657910     0.0625740735     5.8201245566
AG     11.5319394205     5.0379144015     5.8038859133
AG     11.5100361867    10.1684105488     5.8178532038
AG     14.4887678614     5.0043539245     5.8305702954
AG     17.4716304571    10.1723001858     5.8492170963
AG     12.9722522829     7.5907448459     5.8526817619
AG     14.4828121771    10.1764011597     5.8550937687
AG     15.9829819765     7.5721408751     5.8590025767
AG      5.7180699424     3.3782967053     8.1041369829
AG      7.1860114542     5.9181252247     8.0973947824
AG      8.6432092964     3.3799149181     8.0988491488
AG      4.2647656473     5.9050862244     8.1160375591
AG      7.1781704022     0.8573489819     8.1110731386
AG     10.0949207542     5.9058726038     8.0957328749
AG      1.3278318104     0.8460846595     8.1076790282
AG      7.1850302312    10.9999398793     8.1109365652
AG     13.0459109587     0.8483968265     8.1156110126
AG      2.7890268309     3.3614028591     8.1221514477
AG      5.7261152806     8.4629163991     8.1136947964
AG      4.2441466376     0.8424395822     8.1173740959
AG      8.6224460395     8.4685981403     8.1014973130
AG     10.1196170314     0.8548644793     8.1179471011
AG     11.5771963319     3.3740775388     8.1151245102
AG     11.5310030013     8.4640180514     8.1000410064
AG     13.0215793487    10.9914541742     8.1185046763
AG     13.0300909709     5.8957994874     8.1140965189
AG     15.9652299199    10.9944684728     8.1295055920
AG     15.9577854114     5.8978968701     8.1366969400
AG     17.4353431815     8.4475186529     8.1261266838
AG     10.0867186120    11.0016188346     8.1129161718
AG     14.5039137965     3.3618137666     8.1232224159
AG     18.9035533353    10.9945756578     8.1275177400
AG     14.4982364508     8.4459820448     8.1150767226
O      11.3546847220     8.1968357254    10.7202292726
H      13.2930523551     8.8335373458    10.8787491441
C      12.4604516511     8.2086965378    11.2569705290
H      10.8572828675     6.9091461403    12.1537068893
O      11.5415976719     6.6326497186    12.8064672011
C      12.7064587414     7.3765986164    12.4831374993
H      13.5495516617     6.6927398269    12.2663115856
O      14.3831663970     8.8906055731    13.1719125856
C      13.1668406659     8.3167830630    13.6335582610
H      12.3855951434     9.0894761278    13.7826788678
H      14.9321432807     9.0831025027    13.9672866987
H      14.0874609941     6.7723221825    14.8461680797
C      13.3252820505     7.5678985747    14.9733664894
O      12.0826936771     7.0177814346    15.4138478748
O      15.1615593823     8.8804853152    15.7507693330
C      13.8019958495     8.5086659832    16.0910081288
H      11.6120356792     6.6794068517    14.6194918691
H      13.1478193788     9.3997190305    16.1065401125
H      15.4485934922     9.5803177430    16.3620061936
H      14.2012349999     6.8443952368    17.4263603959
C      13.7515746747     7.8540293067    17.4796560713
O      12.4426503638     7.8314486204    18.0292579420
H      14.3707785925     8.4525629236    18.1665675689
H      11.8844970853     7.3760858425    17.3682622126
146
Step 4 | ATOMIC_POSITIONS (angstrom) | Cartesian Angstrom
NI      1.2254504230     0.7101865830     1.4556095020
NI      2.4444040200     2.8214761450     1.4556095020
NI      3.6633576180     4.9327657080     1.4556095020
NI      4.8823112150     7.0440552710     1.4556095020
NI      6.1012648120     9.1553448320     1.4556095020
NI      7.3202184090    11.2666343950     1.4556095020
NI      3.6633576170     0.7101865830     1.4556095020
NI      4.8823112140     2.8214761450     1.4556095020
NI      6.1012648110     4.9327657080     1.4556095020
NI      7.3202184090     7.0440552710     1.4556095020
NI      8.5391720050     9.1553448320     1.4556095020
NI      9.7581256030    11.2666343950     1.4556095020
NI      6.1012648120     0.7101865830     1.4556095020
NI      7.3202184090     2.8214761450     1.4556095020
NI      8.5391720060     4.9327657080     1.4556095020
NI      9.7581256040     7.0440552710     1.4556095020
NI     10.9770792000     9.1553448320     1.4556095020
NI     12.1960327980    11.2666343950     1.4556095020
NI      8.5391720070     0.7101865830     1.4556095020
NI      9.7581256040     2.8214761450     1.4556095020
NI     10.9770792010     4.9327657080     1.4556095020
NI     12.1960327990     7.0440552710     1.4556095020
NI     13.4149863960     9.1553448320     1.4556095020
NI     14.6339399930    11.2666343950     1.4556095020
NI     10.9770792000     0.7101865830     1.4556095020
NI     12.1960327970     2.8214761450     1.4556095020
NI     13.4149863950     4.9327657080     1.4556095020
NI     14.6339399920     7.0440552710     1.4556095020
NI     15.8528935890     9.1553448320     1.4556095020
NI     17.0718471870    11.2666343950     1.4556095020
NI     13.4149863960     0.7101865830     1.4556095020
NI     14.6339399920     2.8214761450     1.4556095020
NI     15.8528935900     4.9327657080     1.4556095020
NI     17.0718471870     7.0440552710     1.4556095020
NI     18.2908007840     9.1553448320     1.4556095020
NI     19.5097543820    11.2666343950     1.4556095020
NI     13.4532784918     7.7617051435     3.4107072607
NI     14.6484557725     9.8299105121     3.4007338518
NI     15.8407976238     7.7650495482     3.3925532950
NI     12.2459060785     9.8348085168     3.4282165573
NI     14.6443741661     5.6891142592     3.4225811117
NI     17.0355887890     9.8321169788     3.4136052005
NI     11.0268537547     7.7525676233     3.4430338399
NI     13.4427847014    11.9249934591     3.4405451844
NI     12.2327086811     5.6727720130     3.4398786502
NI     15.8439121030    11.9191598098     3.4306971696
NI     17.0471442570     5.6831489878     3.4323881788
NI     18.2408010693     7.7591233476     3.4233483161
NI      9.7941391083     9.8424478963     3.4669389659
NI     11.0139038745    11.9449931210     3.4643355209
NI     13.4248485304     3.5694471497     3.4636843465
NI     18.2543642856    11.9346787682     3.4520363991
NI     15.8499800920     3.5763559817     3.4516596890
NI     19.4595077788     9.8390118260     3.4440615213
NI      4.8450024197     5.6621664654     3.4509060489
NI      7.3256939805     1.3759649218     3.4615350719
NI      9.7853944671     5.6506503348     3.4714213408
NI      3.6513925949     3.5579827896     3.4730348110
NI      6.0611740472     7.7483632253     3.4631556674
NI      4.8981925606     1.3991166708     3.4786713450
NI      8.5514845681     7.7445961684     3.4797547430
NI      9.7458190035     1.3835589309     3.4708386374
NI     10.9884915405     3.5416015269     3.4784044932
NI      2.4538590133     1.4283717322     3.4822603469
NI      7.3046076297     9.8440501901     3.4807570543
NI     12.1813601353     1.4129695011     3.4824574949
NI      6.0924076684     3.5276127367     3.4818920229
NI      7.3074599964     5.6443657648     3.4826957318
NI      8.5421514440     3.5166792917     3.4894577587
NI      8.5485878029    11.9607465981     3.4932051928
NI     14.6297902536     1.4358350982     3.4847685704
NI     20.7004458948    11.9548628243     3.4776264173
AG     -0.1188216926     0.0092293087     5.7681943965
AG      5.7500389707     5.0476151869     5.7841201040
AG      7.1851841163     2.5594281644     5.7783352236
AG      8.6311479006     5.0589555655     5.7677736620
AG      1.3321003425     2.4915550506     5.7827585135
AG      5.7664284253    10.1669258126     5.7967195199
AG      2.7679029465     0.0155714732     5.7773803144
AG      8.6293545226    10.1636107007     5.7847912858
AG     11.6087995159     0.0333955581     5.8048901741
AG     13.0377521729     2.5093824942     5.7976345607
AG      4.2575057622     2.5221037717     5.8023110757
AG      7.1984075411     7.6023929196     5.7930610070
AG     10.1102248782     2.5497093784     5.7922555810
AG      2.8237899173     5.0103570079     5.8308006640
AG      4.3200967455     7.5870877910     5.8287003035
AG      5.6933386405     0.0485324505     5.8131563995
AG     10.0563244471     7.6006564907     5.8042423874
AG      8.6598419622     0.0626062059     5.8199216921
AG     11.5319006522     5.0379038202     5.8039317737
AG     11.5101130803    10.1680763207     5.8176004738
AG     14.4888478752     5.0046152730     5.8307624358
AG     17.4715929920    10.1723983528     5.8493339529
AG     12.9719465392     7.5908442382     5.8526499698
AG     14.4822868236    10.1766296255     5.8550726464
AG     15.9825483284     7.5718600619     5.8587048533
AG      5.7178963515     3.3781664518     8.1038508402
AG      7.1851359013     5.9181256325     8.0974374374
AG      8.6435990440     3.3804512310     8.0986565536
AG      4.2647985402     5.9052663938     8.1158016570
AG      7.1780395562     0.8566833128     8.1109831753