2
Step 1 | ATOMIC_POSITIONS (angstrom) | Cartesian Angstrom
O       5.2050161647     3.0951086109     5.1688880736
H       6.1932610153     3.0604345501     5.1839311104
2
Step 2 | ATOMIC_POSITIONS (angstrom) | Cartesian Angstrom
O       5.2065926578     3.0950514641     5.1689145125
H       6.1916845222     3.0604916969     5.1839046715
2
Step 3 | ATOMIC_POSITIONS (angstrom) | Cartesian Angstrom
O       5.2065926578     3.0950514641     5.1689145125
H       6.1916845222     3.0604916969     5.1839046715
