86
Step 1 | ATOMIC_POSITIONS (angstrom) | Cartesian Angstrom
Ni      1.2286390390     0.7093535490     9.0128649340
Ni      0.0000019230    -0.0000011100    11.0189462060
Ni      2.4642244780     1.4227189880    13.0272881070
Ni      1.2387561530     0.7151941710    15.0209755470
Ni      2.4572760100     2.8374169220     9.0128649340
Ni      1.2286511800     2.1280835430    11.0189462060
Ni      3.6924327390     3.5506983320    13.0276201530
Ni      2.4677586240     2.8437215940    15.0204940710
Ni      3.6859498400     4.9655441370     9.0128649340
Ni      2.4573004370     4.2561681970    11.0189462060
Ni      4.9211289880     5.6792703610    13.0277505390
Ni      3.6967676190     4.9714536840    15.0198461330
Ni      3.6859144660     0.7093535490     9.0128649340
Ni      2.4573019230    -0.0000011100    11.0189462060
Ni      4.9212127460     1.4223897070    13.0276202510
Ni      3.6966160050     0.7152787130    15.0204940950
Ni      4.9145514370     2.8374169220     9.0128649340
Ni      3.6859511800     2.1280835430    11.0189462060
Ni      6.1494102800     3.5503628350    13.0279816350
Ni      4.9255624130     2.8437736980    15.0200052340
Ni      6.1432252670     4.9655441370     9.0128649340
Ni      4.9146004370     4.2561681970    11.0189462060
Ni      7.3781196110     5.6789367880    13.0280595390
Ni      6.1545735900     4.9715622540    15.0193609870
Ni      6.1432636120     0.7093535490     9.0128649340
Ni      4.9146019230    -0.0000011100    11.0189462060
Ni      7.3789582730     1.4221866730    13.0277506190
Ni      6.1537906650     0.7157666040    15.0198461880
Ni      7.3719005830     2.8374169220     9.0128649340
Ni      6.1432511800     2.1280835430    11.0189462060
Ni      8.6071640600     3.5501702390    13.0280595260
Ni      7.3827869000     2.8442350780    15.0193609080
Ni      8.6005744130     4.9655441370     9.0128649340
Ni      7.3719004370     4.2561681970    11.0189462060
Ni      9.8358884290     5.6787529240    13.0281948130
Ni      8.6117605830     4.9720020900    15.0186578060
Cu      0.0159029608     0.0077441962    23.3357545006
Cu      1.2258730024     2.1362358235    23.3149755640
Cu      2.4682548502     4.2830902901    23.3193735264
Cu      2.4622390374    -0.0173211925    23.2953449954
Cu      0.0125040740     0.0072168940    17.0980434560
Cu      2.4753681707     1.4253626298    19.1880952323
Cu      1.2467450999     0.7172576109    21.2698849332
Cu      3.7009486959     2.1376872881    23.4042113798
Cu      1.2411159100     2.1352155180    17.0978014380
Cu      3.7018989109     3.5496999615    19.1916907972
Cu      2.4814994946     2.8404431454    21.2983727799
Cu      4.9370033582     4.2754563893    23.3277139535
Cu      4.9415951123    -0.0059994054    23.3138194005
Cu      2.4697108070     0.0072275920    17.0978015350
Cu      4.9289223525     1.4247873103    19.1913370013
Cu      3.7039550589     0.7221191021    21.2900760186
Cu      6.1728987910     2.1347266374    23.3306323133
Cu      3.6983605790     2.1352480720    17.0975611220
Cu      6.1563913356     3.5490552942    19.1932424100
Cu      4.9236695308     2.8380973606    21.3040200987
Cu      7.3892895644     4.2659770855    23.3595721970
Cu      2.4699760600     4.2628774400    17.0985397210
Cu      4.9304289000     5.6802713631    19.1880283877
Cu      3.7047863874     4.9709587334    21.2744797645
Cu      4.9270970170     4.2630879460    17.0982970610
Cu      7.3881517881     5.6815167091    19.1885636754
Cu      6.1632548073     4.9655110307    21.2680684726
Cu      4.9267502260     0.0076215920    17.0985396480
Cu      7.3879027672     1.4241688963    19.1881547062
Cu      6.1612019620     0.7170601147    21.2746700182
Cu      6.1554922450     2.1354459510    17.0982970840
Cu      8.6190546188     3.5500743775    19.1909231952
Cu      7.3884481372     2.8463230879    21.2767179164
Cu      7.3842970870     4.2633253690    17.0989758590
Cu      9.8455728929     5.6801383219    19.1899620607
Cu      8.6154192291     4.9687176970    21.2721125137
O       4.2799610329     0.7114021520    27.7747695058
O       3.4478922543     1.8903798839    25.4568802426
O       3.8184784335     2.3357220919    30.1948552562
C       3.7944860605     2.0669324687    27.8222458579
C       4.0378840998     2.7348191748    26.4733589864
C       4.3572722476     2.8701151564    28.9832923361
H       2.7090523291     1.9562563206    27.9742018522
H       5.1139869834     2.8715957812    26.2646917944
H       3.5436996528     3.7099165009    26.3845826450
H       4.0728243010     3.9299064269    28.8515236774
H       5.4638095507     2.8182540074    28.9741193242
H       5.2547309881     0.7346575332    27.7441282576
H       3.7077526144     0.9627199702    25.6621540653
H       4.1995902841     2.8178136250    30.9464663829
