86
Step 1 | ATOMIC_POSITIONS (angstrom) | Cartesian Angstrom
Ni      1.2286390390     0.7093535490     9.0128649340
Ni      0.0000019230    -0.0000011100    11.0189462060
Ni      2.4642244780     1.4227189880    13.0272881070
Ni      1.2387561530     0.7151941710    15.0209755470
Ni      2.4572760100     2.8374169220     9.0128649340
Ni      1.2286511800     2.1280835430    11.0189462060
Ni      3.6924327390     3.5506983320    13.0276201530
Ni      2.4677586240     2.8437215940    15.0204940710
Ni      3.6859498400     4.9655441370     9.0128649340
Ni      2.4573004370     4.2561681970    11.0189462060
Ni      4.9211289880     5.6792703610    13.0277505390
Ni      3.6967676190     4.9714536840    15.0198461330
Ni      3.6859144660     0.7093535490     9.0128649340
Ni      2.4573019230    -0.0000011100    11.0189462060
Ni      4.9212127460     1.4223897070    13.0276202510
Ni      3.6966160050     0.7152787130    15.0204940950
Ni      4.9145514370     2.8374169220     9.0128649340
Ni      3.6859511800     2.1280835430    11.0189462060
Ni      6.1494102800     3.5503628350    13.0279816350
Ni      4.9255624130     2.8437736980    15.0200052340
Ni      6.1432252670     4.9655441370     9.0128649340
Ni      4.9146004370     4.2561681970    11.0189462060
Ni      7.3781196110     5.6789367880    13.0280595390
Ni      6.1545735900     4.9715622540    15.0193609870
Ni      6.1432636120     0.7093535490     9.0128649340
Ni      4.9146019230    -0.0000011100    11.0189462060
Ni      7.3789582730     1.4221866730    13.0277506190
Ni      6.1537906650     0.7157666040    15.0198461880
Ni      7.3719005830     2.8374169220     9.0128649340
Ni      6.1432511800     2.1280835430    11.0189462060
Ni      8.6071640600     3.5501702390    13.0280595260
Ni      7.3827869000     2.8442350780    15.0193609080
Ni      8.6005744130     4.9655441370     9.0128649340
Ni      7.3719004370     4.2561681970    11.0189462060
Ni      9.8358884290     5.6787529240    13.0281948130
Ni      8.6117605830     4.9720020900    15.0186578060
Cu      0.0159029608     0.0077441962    23.3357545006
Cu      1.2258730024     2.1362358235    23.3149755640
Cu      2.4682548502     4.2830902901    23.3193735264
Cu      2.4622390374    -0.0173211925    23.2953449954
Cu      0.0125040740     0.0072168940    17.0980434560
Cu      2.4753681707     1.4253626298    19.1880952323
Cu      1.2467450999     0.7172576109    21.2698849332
Cu      3.7009486959     2.1376872881    23.4042113798
Cu      1.2411159100     2.1352155180    17.0978014380
Cu      3.7018989109     3.5496999615    19.1916907972
Cu      2.4814994946     2.8404431454    21.2983727799
Cu      4.9370033582     4.2754563893    23.3277139535
Cu      4.9415951123    -0.0059994054    23.3138194005
Cu      2.4697108070     0.0072275920    17.0978015350
Cu      4.9289223525     1.4247873103    19.1913370013
Cu      3.7039550589     0.7221191021    21.2900760186
Cu      6.1728987910     2.1347266374    23.3306323133
Cu      3.6983605790     2.1352480720    17.0975611220
Cu      6.1563913356     3.5490552942    19.1932424100
Cu      4.9236695308     2.8380973606    21.3040200987
Cu      7.3892895644     4.2659770855    23.3595721970
Cu      2.4699760600     4.2628774400    17.0985397210
Cu      4.9304289000     5.6802713631    19.1880283877
Cu      3.7047863874     4.9709587334    21.2744797645
Cu      4.9270970170     4.2630879460    17.0982970610
Cu      7.3881517881     5.6815167091    19.1885636754
Cu      6.1632548073     4.9655110307    21.2680684726
Cu      4.9267502260     0.0076215920    17.0985396480
Cu      7.3879027672     1.4241688963    19.1881547062
Cu      6.1612019620     0.7170601147    21.2746700182
Cu      6.1554922450     2.1354459510    17.0982970840
Cu      8.6190546188     3.5500743775    19.1909231952
Cu      7.3884481372     2.8463230879    21.2767179164
Cu      7.3842970870     4.2633253690    17.0989758590
Cu      9.8455728929     5.6801383219    19.1899620607
Cu      8.6154192291     4.9687176970    21.2721125137
O       4.2799610329     0.7114021520    27.7747695058
O       3.4478922543     1.8903798839    25.4568802426
O       3.8184784335     2.3357220919    30.1948552562
C       3.7944860605     2.0669324687    27.8222458579
C       4.0378840998     2.7348191748    26.4733589864
C       4.3572722476     2.8701151564    28.9832923361
H       2.7090523291     1.9562563206    27.9742018522
H       5.1139869834     2.8715957812    26.2646917944
H       3.5436996528     3.7099165009    26.3845826450
H       4.0728243010     3.9299064269    28.8515236774
H       5.4638095507     2.8182540074    28.9741193242
H       5.2547309881     0.7346575332    27.7441282576
H       3.7077526144     0.9627199702    25.6621540653
H       4.1995902841     2.8178136250    30.9464663829
86
Step 2 | ATOMIC_POSITIONS (angstrom) | Cartesian Angstrom
Ni      1.2286390390     0.7093535490     9.0128649340
Ni      0.0000019230    -0.0000011100    11.0189462060
Ni      2.4642244780     1.4227189880    13.0272881070
Ni      1.2387561530     0.7151941710    15.0209755470
Ni      2.4572760100     2.8374169220     9.0128649340
Ni      1.2286511800     2.1280835430    11.0189462060
Ni      3.6924327390     3.5506983320    13.0276201530
Ni      2.4677586240     2.8437215940    15.0204940710
Ni      3.6859498400     4.9655441370     9.0128649340
Ni      2.4573004370     4.2561681970    11.0189462060
Ni      4.9211289880     5.6792703610    13.0277505390
Ni      3.6967676190     4.9714536840    15.0198461330
Ni      3.6859144660     0.7093535490     9.0128649340
Ni      2.4573019230    -0.0000011100    11.0189462060
Ni      4.9212127460     1.4223897070    13.0276202510
Ni      3.6966160050     0.7152787130    15.0204940950
Ni      4.9145514370     2.8374169220     9.0128649340
Ni      3.6859511800     2.1280835430    11.0189462060
Ni      6.1494102800     3.5503628350    13.0279816350
Ni      4.9255624130     2.8437736980    15.0200052340
Ni      6.1432252670     4.9655441370     9.0128649340
Ni      4.9146004370     4.2561681970    11.0189462060
Ni      7.3781196110     5.6789367880    13.0280595390
Ni      6.1545735900     4.9715622540    15.0193609870
Ni      6.1432636120     0.7093535490     9.0128649340
Ni      4.9146019230    -0.0000011100    11.0189462060
Ni      7.3789582730     1.4221866730    13.0277506190
Ni      6.1537906650     0.7157666040    15.0198461880
Ni      7.3719005830     2.8374169220     9.0128649340
Ni      6.1432511800     2.1280835430    11.0189462060
Ni      8.6071640600     3.5501702390    13.0280595260
Ni      7.3827869000     2.8442350780    15.0193609080
Ni      8.6005744130     4.9655441370     9.0128649340
Ni      7.3719004370     4.2561681970    11.0189462060
Ni      9.8358884290     5.6787529240    13.0281948130
Ni      8.6117605830     4.9720020900    15.0186578060
Cu      0.0158074590     0.0077293214    23.3360769935
Cu      1.2257264462     2.1360337933    23.3150833349
Cu      2.4681619240     4.2830416933    23.3194903294
Cu      2.4620540638    -0.0174801358    23.2954212221
Cu      0.0125040740     0.0072168940    17.0980434560
Cu      2.4753085532     1.4254866998    19.1879805483
Cu      1.2466968842     0.7172549199    21.2697765424
Cu      3.7008170246     2.1375179522    23.4045291980
Cu      1.2411159100     2.1352155180    17.0978014380
Cu      3.7018237885     3.5497027783    19.1915075450
Cu      2.4812823787     2.8405266383    21.2982711789
Cu      4.9369714137     4.2754246290    23.3276970699
Cu      4.9416400613    -0.0061927017    23.3138875884
Cu      2.4697108070     0.0072275920    17.0978015350
Cu      4.9288860187     1.4249060785    19.1912085986
Cu      3.7038793247     0.7220294403    21.2899597287
Cu      6.1729148922     2.1345912951    23.3306097105
Cu      3.6983605790     2.1352480720    17.0975611220
Cu      6.1564374452     3.5491609362    19.1931450809
Cu      4.9236682866     2.8381481965    21.3039121228
Cu      7.3891545921     4.2659255692    23.3597758607
Cu      2.4699760600     4.2628774400    17.0985397210
Cu      4.9303659905     5.6802402842    19.1879908687
Cu      3.7046769143     4.9709155589    21.2745587227
Cu      4.9270970170     4.2630879460    17.0982970610
Cu      7.3881205400     5.6815618366    19.1886664328
Cu      6.1632309604     4.9655601601    21.2678632301
Cu      4.9267502260     0.0076215920    17.0985396480
Cu      7.3878211775     1.4242217848    19.1880930553
Cu      6.1610257639     0.7170645790    21.2746231200
Cu      6.1554922450     2.1354459510    17.0982970840
Cu      8.6189245303     3.5501552796    19.1908810201
Cu      7.3884175163     2.8463843299    21.2766277998
Cu      7.3842970870     4.2633253690    17.0989758590
Cu      9.8454763928     5.6801223321    19.1899286034
Cu      8.6152105580     4.9686833732    21.2719594849
O       4.2799834278     0.7112001098    27.7747564300
O       3.4481181091     1.8902771920    25.4569432109
O       3.8189578447     2.3355182845    30.1946207016
C       3.7945726086     2.0669000327    27.8222987446
C       4.0379199450     2.7349183345    26.4734494438
C       4.3573543212     2.8703500712    28.9831674129
H       2.7092219169     1.9568009369    27.9741545604
H       5.1140298832     2.8715017699    26.2648471060
H       3.5433532995     3.7099389230    26.3842230810
H       4.0727817686     3.9303529540    28.8516885224
H       5.4638255270     2.8178292050    28.9738137899
H       5.2547109846     0.7349346735    27.7441244672
H       3.7079441682     0.9627231745    25.6624661234
H       4.1999678132     2.8181352673    30.9459621020
86
Step 3 | ATOMIC_POSITIONS (angstrom) | Cartesian Angstrom
Ni      1.2286390390     0.7093535490     9.0128649340
Ni      0.0000019230    -0.0000011100    11.0189462060
Ni      2.4642244780     1.4227189880    13.0272881070
Ni      1.2387561530     0.7151941710    15.0209755470
Ni      2.4572760100     2.8374169220     9.0128649340
Ni      1.2286511800     2.1280835430    11.0189462060
Ni      3.6924327390     3.5506983320    13.0276201530
Ni      2.4677586240     2.8437215940    15.0204940710
Ni      3.6859498400     4.9655441370     9.0128649340
Ni      2.4573004370     4.2561681970    11.0189462060
Ni      4.9211289880     5.6792703610    13.0277505390
Ni      3.6967676190     4.9714536840    15.0198461330
Ni      3.6859144660     0.7093535490     9.0128649340
Ni      2.4573019230    -0.0000011100    11.0189462060
Ni      4.9212127460     1.4223897070    13.0276202510
Ni      3.6966160050     0.7152787130    15.0204940950
Ni      4.9145514370     2.8374169220     9.0128649340
Ni      3.6859511800     2.1280835430    11.0189462060
Ni      6.1494102800     3.5503628350    13.0279816350
Ni      4.9255624130     2.8437736980    15.0200052340
Ni      6.1432252670     4.9655441370     9.0128649340
Ni      4.9146004370     4.2561681970    11.0189462060
Ni      7.3781196110     5.6789367880    13.0280595390
Ni      6.1545735900     4.9715622540    15.0193609870
Ni      6.1432636120     0.7093535490     9.0128649340
Ni      4.9146019230    -0.0000011100    11.0189462060
Ni      7.3789582730     1.4221866730    13.0277506190
Ni      6.1537906650     0.7157666040    15.0198461880
Ni      7.3719005830     2.8374169220     9.0128649340
Ni      6.1432511800     2.1280835430    11.0189462060
Ni      8.6071640600     3.5501702390    13.0280595260
Ni      7.3827869000     2.8442350780    15.0193609080
Ni      8.6005744130     4.9655441370     9.0128649340
Ni      7.3719004370     4.2561681970    11.0189462060
Ni      9.8358884290     5.6787529240    13.0281948130
Ni      8.6117605830     4.9720020900    15.0186578060
Cu      0.0156608650     0.0076807220    23.3365469378
Cu      1.2255147394     2.1357513384    23.3152287888
Cu      2.4680115677     4.2829381618    23.3196538042
Cu      2.4617949251    -0.0177119099    23.2955141291
Cu      0.0125040740     0.0072168940    17.0980434560
Cu      2.4752096868     1.4256528344    19.1878164136
Cu      1.2465931855     0.7172449391    21.2696457436
Cu      3.7006264306     2.1372578030    23.4049612174
Cu      1.2411159100     2.1352155180    17.0978014380
Cu      3.7017121783     3.5497222695    19.1912597014
Cu      2.4809966487     2.8406234150    21.2981589853
Cu      4.9369025468     4.2753469822    23.3276626139
Cu      4.9416665262    -0.0064754022    23.3139729843
Cu      2.4697108070     0.0072275920    17.0978015350
Cu      4.9288263266     1.4250745861    19.1910261887
Cu      3.7037515704     0.7219484535    21.2898357835
Cu      6.1729042778     2.1343979779    23.3305666280
Cu      3.6983605790     2.1352480720    17.0975611220
Cu      6.1564804605     3.5493094204    19.1929972920
Cu      4.9236247958     2.8382100890    21.3037726345
Cu      7.3889580858     4.2658307201    23.3600649588
Cu      2.4699760600     4.2628774400    17.0985397210
Cu      4.9302615185     5.6802118483    19.1879359691
Cu      3.7045003137     4.9708715454    21.2746851485
Cu      4.9270970170     4.2630879460    17.0982970610
Cu      7.3880626353     5.6816575346    19.1887760238
Cu      6.1631665467     4.9656214665    21.2676026575
Cu      4.9267502260     0.0076215920    17.0985396480
Cu      7.3876982641     1.4242912359    19.1880097787
Cu      6.1607855689     0.7170592309    21.2745697075
Cu      6.1554922450     2.1354459510    17.0982970840
Cu      8.6187395507     3.5502690603    19.1908026751
Cu      7.3883471648     2.8464574326    21.2765235578
Cu      7.3842970870     4.2633253690    17.0989758590
Cu      9.8453380405     5.6801113793    19.1898860120
Cu      8.6149200845     4.9686387774    21.2717835051
O       4.2799470988     0.7111149671    27.7747685237
O       3.4484561613     1.8901564516    25.4570420708
O       3.8197140148     2.3352864362    30.1943791788
C       3.7947062438     2.0669808697    27.8222834569
C       4.0379103283     2.7350567391    26.4735123186
C       4.3574910985     2.8706281321    28.9829070298
H       2.7093779565     1.9575725754    27.9741086186
H       5.1141206743     2.8714112524    26.2650789896
H       3.5428989064     3.7098839993    26.3837095432
H       4.0727843265     3.9308902380    28.8519368935
H       5.4638952114     2.8172616056    28.9733157117
H       5.2547408038     0.7353202081    27.7441144565
H       3.7082654030     0.9626569941    25.6629669323
H       4.2005288609     2.8186020749    30.9451920701
86
Step 4 | ATOMIC_POSITIONS (angstrom) | Cartesian Angstrom
Ni      1.2286390390     0.7093535490     9.0128649340
Ni      0.0000019230    -0.0000011100    11.0189462060
Ni      2.4642244780     1.4227189880    13.0272881070
Ni      1.2387561530     0.7151941710    15.0209755470
Ni      2.4572760100     2.8374169220     9.0128649340
Ni      1.2286511800     2.1280835430    11.0189462060
Ni      3.6924327390     3.5506983320    13.0276201530
Ni      2.4677586240     2.8437215940    15.0204940710
Ni      3.6859498400     4.9655441370     9.0128649340
Ni      2.4573004370     4.2561681970    11.0189462060
Ni      4.9211289880     5.6792703610    13.0277505390
Ni      3.6967676190     4.9714536840    15.0198461330
Ni      3.6859144660     0.7093535490     9.0128649340
Ni      2.4573019230    -0.0000011100    11.0189462060
Ni      4.9212127460     1.4223897070    13.0276202510
Ni      3.6966160050     0.7152787130    15.0204940950
Ni      4.9145514370     2.8374169220     9.0128649340
Ni      3.6859511800     2.1280835430    11.0189462060
Ni      6.1494102800     3.5503628350    13.0279816350
Ni      4.9255624130     2.8437736980    15.0200052340
Ni      6.1432252670     4.9655441370     9.0128649340
Ni      4.9146004370     4.2561681970    11.0189462060
Ni      7.3781196110     5.6789367880    13.0280595390
Ni      6.1545735900     4.9715622540    15.0193609870
Ni      6.1432636120     0.7093535490     9.0128649340
Ni      4.9146019230    -0.0000011100    11.0189462060
Ni      7.3789582730     1.4221866730    13.0277506190
Ni      6.1537906650     0.7157666040    15.0198461880
Ni      7.3719005830     2.8374169220     9.0128649340
Ni      6.1432511800     2.1280835430    11.0189462060
Ni      8.6071640600     3.5501702390    13.0280595260
Ni      7.3827869000     2.8442350780    15.0193609080
Ni      8.6005744130     4.9655441370     9.0128649340
Ni      7.3719004370     4.2561681970    11.0189462060
Ni      9.8358884290     5.6787529240    13.0281948130
Ni      8.6117605830     4.9720020900    15.0186578060
Cu      0.0154305789     0.0075723128    23.3372298899
Cu      1.2252077353     2.1353478087    23.3154200610
Cu      2.4677741005     4.2827390741    23.3198804375
Cu      2.4614240368    -0.0180516820    23.2956250884
Cu      0.0125040740     0.0072168940    17.0980434560
Cu      2.4750467274     1.4258824801    19.1875869874
Cu      1.2464013390     0.7172254067    21.2694836094
Cu      3.7003458557     2.1368622964    23.4055460003
Cu      1.2411159100     2.1352155180    17.0978014380
Cu      3.7015423723     3.5497709885    19.1909264481
Cu      2.4806053927     2.8407380479    21.2980336151
Cu      4.9367665258     4.2751873016    23.3275940728
Cu      4.9416553718    -0.0068905577    23.3140778501
Cu      2.4697108070     0.0072275920    17.0978015350
Cu      4.9287288627     1.4253172836    19.1907716491
Cu      3.7035410003     0.7218827651    21.2897014199
Cu      6.1728388838     2.1341138579    23.3304839271
Cu      3.6983605790     2.1352480720    17.0975611220
Cu      6.1565098363     3.5495223376    19.1927785461
Cu      4.9235097658     2.8382872036    21.3035863690
Cu      7.3886643007     4.2656628442    23.3604784316
Cu      2.4699760600     4.2628774400    17.0985397210
Cu      4.9300883251     5.6801933445    19.1878578520
Cu      3.7042182019     4.9708234588    21.2748788393
Cu      4.9270970170     4.2630879460    17.0982970610
Cu      7.3879601153     5.6818330953    19.1888968199
Cu      6.1630309778     4.9657013657    21.2672621479
Cu      4.9267502260     0.0076215920    17.0985396480
Cu      7.3875107328     1.4243832193    19.1878968032
Cu      6.1604429205     0.7170412356    21.2745067203
Cu      6.1554922450     2.1354459510    17.0982970840
Cu      8.6184741179     3.5504319414    19.1906772164
Cu      7.3882106456     2.8465429462    21.2763976320
Cu      7.3842970870     4.2633253690    17.0989758590
Cu      9.8451371068     5.6801137955    19.1898326317
Cu      8.6145067107     4.9685803621    21.2715750655
O       4.2799837555     0.7111837771    27.7747945834
O       3.4489750461     1.8898633786    25.4571856844
O       3.8208354651     2.3349180997    30.1939098506
C       3.7947680524     2.0672288690    27.8222194791
C       4.0379527082     2.7352455638    26.4735085692
C       4.3577562811     2.8709870673    28.9825212976
H       2.7095544547     1.9586940222    27.9740554177
H       5.1142368280     2.8713458015    26.2654282737
H       3.5422649281     3.7097698254    26.3829596102
H       4.0728774097     3.9315469302    28.8523041259
H       5.4640479915     2.8165034369    28.9725007168
H       5.2547022603     0.7358676690    27.7441004950
H       3.7087630933     0.9625738740    25.6637403224
H       4.2014614825     2.8193989533    30.9441782279
86
Step 5 | ATOMIC_POSITIONS (angstrom) | Cartesian Angstrom
Ni      1.2286390390     0.7093535490     9.0128649340
Ni      0.0000019230    -0.0000011100    11.0189462060
Ni      2.4642244780     1.4227189880    13.0272881070
Ni      1.2387561530     0.7151941710    15.0209755470
Ni      2.4572760100     2.8374169220     9.0128649340
Ni      1.2286511800     2.1280835430    11.0189462060
Ni      3.6924327390     3.5506983320    13.0276201530
Ni      2.4677586240     2.8437215940    15.0204940710
Ni      3.6859498400     4.9655441370     9.0128649340
Ni      2.4573004370     4.2561681970    11.0189462060
Ni      4.9211289880     5.6792703610    13.0277505390
Ni      3.6967676190     4.9714536840    15.0198461330
Ni      3.6859144660     0.7093535490     9.0128649340
Ni      2.4573019230    -0.0000011100    11.0189462060
Ni      4.9212127460     1.4223897070    13.0276202510
Ni      3.6966160050     0.7152787130    15.0204940950
Ni      4.9145514370     2.8374169220     9.0128649340
Ni      3.6859511800     2.1280835430    11.0189462060
Ni      6.1494102800     3.5503628350    13.0279816350
Ni      4.9255624130     2.8437736980    15.0200052340
Ni      6.1432252670     4.9655441370     9.0128649340
Ni      4.9146004370     4.2561681970    11.0189462060
Ni      7.3781196110     5.6789367880    13.0280595390
Ni      6.1545735900     4.9715622540    15.0193609870
Ni      6.1432636120     0.7093535490     9.0128649340
Ni      4.9146019230    -0.0000011100    11.0189462060
Ni      7.3789582730     1.4221866730    13.0277506190
Ni      6.1537906650     0.7157666040    15.0198461880
Ni      7.3719005830     2.8374169220     9.0128649340
Ni      6.1432511800     2.1280835430    11.0189462060
Ni      8.6071640600     3.5501702390    13.0280595260
Ni      7.3827869000     2.8442350780    15.0193609080
Ni      8.6005744130     4.9655441370     9.0128649340
Ni      7.3719004370     4.2561681970    11.0189462060
Ni      9.8358884290     5.6787529240    13.0281948130
Ni      8.6117605830     4.9720020900    15.0186578060
Cu      0.0150676806     0.0073550992    23.3382052304
Cu      1.2247624791     2.1347744487    23.3156595503
Cu      2.4674008848     4.2823762254    23.3201872254
Cu      2.4608932559    -0.0185482334    23.2957436020
Cu      0.0125040740     0.0072168940    17.0980434560
Cu      2.4747813424     1.4261968418    19.1872767799
Cu      1.2460612442     0.7171900030    21.2692910095
Cu      3.6999324494     2.1362631196    23.4063184236
Cu      1.2411159100     2.1352155180    17.0978014380
Cu      3.7012829781     3.5498719699    19.1904937543
Cu      2.4800695283     2.8408651026    21.2979039306
Cu      4.9365111819     4.2748846390    23.3274636962
Cu      4.9415621934    -0.0074972736    23.3141939553
Cu      2.4697108070     0.0072275920    17.0978015350
Cu      4.9285686619     1.4256623911    19.1904270939
Cu      3.7031975091     0.7218580008    21.2895693559
Cu      6.1726657531     2.1336952413    23.3303296366
Cu      3.6983605790     2.1352480720    17.0975611220
Cu      6.1564991532     3.5498251868    19.1924631601
Cu      4.9232660760     2.8383792334    21.3033363643
Cu      7.3882238820     4.2653715670    23.3610579624
Cu      2.4699760600     4.2628774400    17.0985397210
Cu      4.9298059933     5.6802021445    19.1877506110
Cu      3.7037711141     4.9707761856    21.2751665359
Cu      4.9270970170     4.2630879460    17.0982970610
Cu      7.3877822893     5.6821362954    19.1890170772
Cu      6.1627710112     4.9658021426    21.2668258683
Cu      4.9267502260     0.0076215920    17.0985396480
Cu      7.3872252058     1.4245052376    19.1877483863
Cu      6.1599531640     0.7170012633    21.2744356034
Cu      6.1554922450     2.1354459510    17.0982970840
Cu      8.6180954879     3.5506638400    19.1904865964
Cu      7.3879591205     2.8466358682    21.2762486209
Cu      7.3842970870     4.2633253690    17.0989758590
Cu      9.8448439054     5.6801459360    19.1897703824
Cu      8.6139189367     4.9685051562    21.2713407369
O       4.2798751419     0.7115360735    27.7748471046
O       3.4497566345     1.8893973417    25.4573686831
O       3.8226537724     2.3345281758    30.1934512026
C       3.7948509133     2.0677722178    27.8220256968
C       4.0379963331     2.7354974793    26.4733974511
C       4.3582161030     2.8714547972    28.9818653671
H       2.7096638020     1.9603026334    27.9740047551
H       5.1144198341     2.8713612463    26.2659351791
H       3.5413983485     3.7095536517    26.3818445020
H       4.0731598515     3.9323383578    28.8528446499
H       5.4643744001     2.8155134976    28.9711651530
H       5.2547473463     0.7366823135    27.7440773848
H       3.7095698854     0.9623449482    25.6649587048
H       4.2028307668     2.8205283454    30.9425819664
86
Step 6 | ATOMIC_POSITIONS (angstrom) | Cartesian Angstrom
Ni      1.2286390390     0.7093535490     9.0128649340
Ni      0.0000019230    -0.0000011100    11.0189462060
Ni      2.4642244780     1.4227189880    13.0272881070
Ni      1.2387561530     0.7151941710    15.0209755470
Ni      2.4572760100     2.8374169220     9.0128649340
Ni      1.2286511800     2.1280835430    11.0189462060
Ni      3.6924327390     3.5506983320    13.0276201530
Ni      2.4677586240     2.8437215940    15.0204940710
Ni      3.6859498400     4.9655441370     9.0128649340
Ni      2.4573004370     4.2561681970    11.0189462060
Ni      4.9211289880     5.6792703610    13.0277505390
Ni      3.6967676190     4.9714536840    15.0198461330
Ni      3.6859144660     0.7093535490     9.0128649340
Ni      2.4573019230    -0.0000011100    11.0189462060
Ni      4.9212127460     1.4223897070    13.0276202510
Ni      3.6966160050     0.7152787130    15.0204940950
Ni      4.9145514370     2.8374169220     9.0128649340
Ni      3.6859511800     2.1280835430    11.0189462060
Ni      6.1494102800     3.5503628350    13.0279816350
Ni      4.9255624130     2.8437736980    15.0200052340
Ni      6.1432252670     4.9655441370     9.0128649340
Ni      4.9146004370     4.2561681970    11.0189462060
Ni      7.3781196110     5.6789367880    13.0280595390
Ni      6.1545735900     4.9715622540    15.0193609870
Ni      6.1432636120     0.7093535490     9.0128649340
Ni      4.9146019230    -0.0000011100    11.0189462060
Ni      7.3789582730     1.4221866730    13.0277506190
Ni      6.1537906650     0.7157666040    15.0198461880
Ni      7.3719005830     2.8374169220     9.0128649340
Ni      6.1432511800     2.1280835430    11.0189462060
Ni      8.6071640600     3.5501702390    13.0280595260
Ni      7.3827869000     2.8442350780    15.0193609080
Ni      8.6005744130     4.9655441370     9.0128649340
Ni      7.3719004370     4.2561681970    11.0189462060
Ni      9.8358884290     5.6787529240    13.0281948130
Ni      8.6117605830     4.9720020900    15.0186578060
Cu      0.0144932391     0.0069386407    23.3395685634
Cu      1.2241128280     2.1339677451    23.3159393883
Cu      2.4668112680     4.2817345749    23.3205937523
Cu      2.4601361976    -0.0192744835    23.2958457659
Cu      0.0125040740     0.0072168940    17.0980434560
Cu      2.4743514844     1.4266186661    19.1868824290
Cu      1.2454688153     0.7171269467    21.2690951480
Cu      3.6993249448     2.1353567798    23.4072875783
Cu      1.2411159100     2.1352155180    17.0978014380
Cu      3.7008845403     3.5500664852    19.1899703603
Cu      2.4793387282     2.8409843242    21.2978026684
Cu      4.9360448809     4.2743357513    23.3272319681
Cu      4.9412970195    -0.0083806337    23.3143024395
Cu      2.4697108070     0.0072275920    17.0978015350
Cu      4.9283023202     1.4261436365    19.1899855359
Cu      3.7026381172     0.7219216989    21.2894814791
Cu      6.1722875430     2.1330767438    23.3300564532
Cu      3.6983605790     2.1352480720    17.0975611220
Cu      6.1563947049     3.5502508797    19.1920267142
Cu      4.9227931404     2.8384791527    21.3030085242
Cu      7.3875619107     4.2648695315    23.3618475175
Cu      2.4699760600     4.2628774400    17.0985397210
Cu      4.9293523507     5.6802732845    19.1876124734
Cu      3.7030643033     4.9707449959    21.2755865696
Cu      4.9270970170     4.2630879460    17.0982970610
Cu      7.3874766500     5.6826397237    19.1891066393
Cu      6.1622969870     4.9659185263    21.2663015503
Cu      4.9267502260     0.0076215920    17.0985396480
Cu      7.3867907640     1.4246706657    19.1875660909
Cu      6.1592557203     0.7169213319    21.2743726071
Cu      6.1554922450     2.1354459510    17.0982970840
Cu      8.6175582300     3.5509922660    19.1902132720
Cu      7.3875053634     2.8467239455    21.2760894595
Cu      7.3842970870     4.2633253690    17.0989758590
Cu      9.8444114408     5.6802387539    19.1897103448
Cu      8.6130834845     4.9684101599    21.2711184741
O       4.2798575011     0.7123706767    27.7749089298
O       3.4509582823     1.8885265860    25.4575942734
O       3.8253510524     2.3338850316    30.1925118849
C       3.7947620490     2.0687758842    27.8216930306
C       4.0380464828     2.7358937969    26.4730595829
C       4.3590470085     2.8720356804    28.9809398398
H       2.7096847589     1.9626178120    27.9739484372
H       5.1147084813     2.8715801754    26.2666371910
H       3.5402436925     3.7091970226    26.3801769312
H       4.0738133191     3.9332825995    28.8536124859
H       5.4650227883     2.8142923809    28.9689649090
H       5.2545939004     0.7378892475    27.7440550606
H       3.7108452109     0.9619194426    25.6668443043
H       4.2051032537     2.8224512763    30.9405920411
86
Step 7 | ATOMIC_POSITIONS (angstrom) | Cartesian Angstrom
Ni      1.2286390390     0.7093535490     9.0128649340
Ni      0.0000019230    -0.0000011100    11.0189462060
Ni      2.4642244780     1.4227189880    13.0272881070
Ni      1.2387561530     0.7151941710    15.0209755470
Ni      2.4572760100     2.8374169220     9.0128649340
Ni      1.2286511800     2.1280835430    11.0189462060
Ni      3.6924327390     3.5506983320    13.0276201530
Ni      2.4677586240     2.8437215940    15.0204940710
Ni      3.6859498400     4.9655441370     9.0128649340
Ni      2.4573004370     4.2561681970    11.0189462060
Ni      4.9211289880     5.6792703610    13.0277505390
Ni      3.6967676190     4.9714536840    15.0198461330
Ni      3.6859144660     0.7093535490     9.0128649340
Ni      2.4573019230    -0.0000011100    11.0189462060
Ni      4.9212127460     1.4223897070    13.0276202510
Ni      3.6966160050     0.7152787130    15.0204940950
Ni      4.9145514370     2.8374169220     9.0128649340
Ni      3.6859511800     2.1280835430    11.0189462060
Ni      6.1494102800     3.5503628350    13.0279816350
Ni      4.9255624130     2.8437736980    15.0200052340
Ni      6.1432252670     4.9655441370     9.0128649340