86
Step 1 | ATOMIC_POSITIONS (angstrom) | Cartesian Angstrom
Ni      1.2286390390     0.7093535490     9.0128649340
Ni      0.0000019230    -0.0000011100    11.0189462060
Ni      2.4642244780     1.4227189880    13.0272881070
Ni      1.2387561530     0.7151941710    15.0209755470
Ni      2.4572760100     2.8374169220     9.0128649340
Ni      1.2286511800     2.1280835430    11.0189462060
Ni      3.6924327390     3.5506983320    13.0276201530
Ni      2.4677586240     2.8437215940    15.0204940710
Ni      3.6859498400     4.9655441370     9.0128649340
Ni      2.4573004370     4.2561681970    11.0189462060
Ni      4.9211289880     5.6792703610    13.0277505390
Ni      3.6967676190     4.9714536840    15.0198461330
Ni      3.6859144660     0.7093535490     9.0128649340
Ni      2.4573019230    -0.0000011100    11.0189462060
Ni      4.9212127460     1.4223897070    13.0276202510
Ni      3.6966160050     0.7152787130    15.0204940950
Ni      4.9145514370     2.8374169220     9.0128649340
Ni      3.6859511800     2.1280835430    11.0189462060
Ni      6.1494102800     3.5503628350    13.0279816350
Ni      4.9255624130     2.8437736980    15.0200052340
Ni      6.1432252670     4.9655441370     9.0128649340
Ni      4.9146004370     4.2561681970    11.0189462060
Ni      7.3781196110     5.6789367880    13.0280595390
Ni      6.1545735900     4.9715622540    15.0193609870
Ni      6.1432636120     0.7093535490     9.0128649340
Ni      4.9146019230    -0.0000011100    11.0189462060
Ni      7.3789582730     1.4221866730    13.0277506190
Ni      6.1537906650     0.7157666040    15.0198461880
Ni      7.3719005830     2.8374169220     9.0128649340
Ni      6.1432511800     2.1280835430    11.0189462060
Ni      8.6071640600     3.5501702390    13.0280595260
Ni      7.3827869000     2.8442350780    15.0193609080
Ni      8.6005744130     4.9655441370     9.0128649340
Ni      7.3719004370     4.2561681970    11.0189462060
Ni      9.8358884290     5.6787529240    13.0281948130
Ni      8.6117605830     4.9720020900    15.0186578060
Cu     -0.0016632674    -0.0007332129    23.3329924392
Cu      1.2201479614     2.1275133359    23.3290714422
Cu      2.4511388888     4.2625730312    23.3287371686
Cu      2.4526727890    -0.0081019260    23.3289910300
Cu      0.0125040740     0.0072168940    17.0980434560
Cu      2.4665269289     1.4242468046    19.1888605748
Cu      1.2327822160     0.7118668008    21.2810384488
Cu      3.6826442073     2.1372389369    23.2830287362
Cu      1.2411159100     2.1352155180    17.0978014380
Cu      3.6952570640     3.5515496984    19.1890976552
Cu      2.4612553865     2.8392622826    21.2814880433
Cu      4.9155251975     4.2619010367    23.3271267022
Cu      4.9177055911    -0.0099955216    23.3278257764
Cu      2.4697108070     0.0072275920    17.0978015350
Cu      4.9235506763     1.4244697409    19.1893806608
Cu      3.6893823708     0.7124495778    21.2813220088
Cu      6.1482787601     2.1256022379    23.3278372568
Cu      3.6983605790     2.1352480720    17.0975611220
Cu      6.1524971257     3.5520287727    19.1901960271
Cu      4.9173553789     2.8391264048    21.2804630069
Cu      7.3687040963     4.2547537976    23.3345976389
Cu      2.4699760600     4.2628774400    17.0985397210
Cu      4.9234401195     5.6798598455    19.1899689034
Cu      3.6891431945     4.9665680911    21.2805359196
Cu      4.9270970170     4.2630879460    17.0982970610
Cu      7.3807313868     5.6799277416    19.1902863592
Cu      6.1460039267     4.9668641262    21.2801930581
Cu      4.9267502260     0.0076215920    17.0985396480
Cu      7.3806514995     1.4240119659    19.1898406217
Cu      6.1459975808     0.7116508583    21.2802236016
Cu      6.1554922450     2.1354459510    17.0982970840
Cu      8.6093777783     3.5517321215    19.1898089948
Cu      7.3747824160     2.8392052267    21.2806616316
Cu      7.3842970870     4.2633253690    17.0989758590
Cu      9.8377645252     5.6798489087    19.1899941965
Cu      8.6033472797     4.9666082211    21.2797109810
O       4.2150570656     0.7628212020    27.5084404004
O       3.7218171522     2.1168303158    25.1849460029
O       3.7275120791     2.1093352821    29.9558638308
C       3.7368273169     2.1109372880    27.5432578542
C       4.2050340303     2.8368272760    26.2935329793
C       4.2097798275     2.8069962218    28.8062986150
H       2.6222020712     2.0279098233    27.5405619711
H       5.3081038809     2.8464094730    26.2327647452
H       3.8325363618     3.8514882667    26.2303815484
H       3.8657255804     3.8462946887    28.8389734385
H       5.3188921791     2.7944483727    28.8389886392
H       5.1955909823     0.8208561594    27.5165918344
H       4.0728772388     1.1908467637    25.2058817174
H       4.0717040633     2.5858822311    30.7281968980
86
Step 2 | ATOMIC_POSITIONS (angstrom) | Cartesian Angstrom
Ni      1.2286390390     0.7093535490     9.0128649340
Ni      0.0000019230    -0.0000011100    11.0189462060
Ni      2.4642244780     1.4227189880    13.0272881070
Ni      1.2387561530     0.7151941710    15.0209755470
Ni      2.4572760100     2.8374169220     9.0128649340
Ni      1.2286511800     2.1280835430    11.0189462060
Ni      3.6924327390     3.5506983320    13.0276201530
Ni      2.4677586240     2.8437215940    15.0204940710
Ni      3.6859498400     4.9655441370     9.0128649340
Ni      2.4573004370     4.2561681970    11.0189462060
Ni      4.9211289880     5.6792703610    13.0277505390
Ni      3.6967676190     4.9714536840    15.0198461330
Ni      3.6859144660     0.7093535490     9.0128649340
Ni      2.4573019230    -0.0000011100    11.0189462060
Ni      4.9212127460     1.4223897070    13.0276202510
Ni      3.6966160050     0.7152787130    15.0204940950
Ni      4.9145514370     2.8374169220     9.0128649340
Ni      3.6859511800     2.1280835430    11.0189462060
Ni      6.1494102800     3.5503628350    13.0279816350
Ni      4.9255624130     2.8437736980    15.0200052340
Ni      6.1432252670     4.9655441370     9.0128649340
Ni      4.9146004370     4.2561681970    11.0189462060
Ni      7.3781196110     5.6789367880    13.0280595390
Ni      6.1545735900     4.9715622540    15.0193609870
Ni      6.1432636120     0.7093535490     9.0128649340
Ni      4.9146019230    -0.0000011100    11.0189462060
Ni      7.3789582730     1.4221866730    13.0277506190
Ni      6.1537906650     0.7157666040    15.0198461880
Ni      7.3719005830     2.8374169220     9.0128649340
Ni      6.1432511800     2.1280835430    11.0189462060
Ni      8.6071640600     3.5501702390    13.0280595260
Ni      7.3827869000     2.8442350780    15.0193609080
Ni      8.6005744130     4.9655441370     9.0128649340
Ni      7.3719004370     4.2561681970    11.0189462060
Ni      9.8358884290     5.6787529240    13.0281948130
Ni      8.6117605830     4.9720020900    15.0186578060
Cu     -0.0029547836    -0.0011430803    23.3360532956
Cu      1.2110847983     2.1273688186    23.3265649801
Cu      2.4458623976     4.2728625685    23.3253965908
Cu      2.4487922948    -0.0167789790    23.3263127167
Cu      0.0125040740     0.0072168940    17.0980434560
Cu      2.4664490381     1.4245075332    19.1876601933
Cu      1.2333169835     0.7123083694    21.2797842184
Cu      3.6829599313     2.1513699184    23.2397529207
Cu      1.2411159100     2.1352155180    17.0978014380
Cu      3.6949732973     3.5508626252    19.1876579875
Cu      2.4602088265     2.8400746947    21.2784992116
Cu      4.9213275490     4.2724457825    23.3216754363
Cu      4.9240784114    -0.0203206116    23.3232176428
Cu      2.4697108070     0.0072275920    17.0978015350
Cu      4.9230818150     1.4246736844    19.1883960423
Cu      3.6894601998     0.7123212534    21.2786850837
Cu      6.1587673002     2.1244894944    23.3236248451
Cu      3.6983605790     2.1352480720    17.0975611220
Cu      6.1522369578     3.5516981546    19.1900007555
Cu      4.9187283233     2.8399610549    21.2762214753
Cu      7.3691091029     4.2555784731    23.3403863929
Cu      2.4699760600     4.2628774400    17.0985397210
Cu      4.9230922623     5.6802217712    19.1907628410
Cu      3.6890799297     4.9657451278    21.2788143502
Cu      4.9270970170     4.2630879460    17.0982970610
Cu      7.3805299079     5.6800619728    19.1910861315
Cu      6.1464466397     4.9662694840    21.2778675541
Cu      4.9267502260     0.0076215920    17.0985396480
Cu      7.3808471561     1.4237270300    19.1904292333
Cu      6.1455510899     0.7121115489    21.2780693868
Cu      6.1554922450     2.1354459510    17.0982970840
Cu      8.6094650737     3.5511730287    19.1898038692
Cu      7.3749414380     2.8399118248    21.2791874063
Cu      7.3842970870     4.2633253690    17.0989758590
Cu      9.8380639389     5.6800270738    19.1911116323
Cu      8.6034244515     4.9658539801    21.2768941499
O       4.2213119650     0.7522932407    27.5003695122
O       3.6966399672     2.0900136869    25.2146472934
O       3.7190480221     2.1043430619    29.9598635908
C       3.7369607878     2.1104654729    27.5586116587
C       4.2195836695     2.8432048394    26.3172599815
C       4.2142978188     2.8064370131    28.8177310533
H       2.6356941812     2.0296243494    27.5408006605
H       5.3129266191     2.8549099585    26.2388534675
H       3.8275848461     3.8649487512    26.2240034023
H       3.8651096429     3.8587907104    28.8304620504
H       5.3222107233     2.8004693283    28.8281482961
H       5.1890674572     0.8149175854    27.5184444895
H       4.0716072620     1.1802289345    25.2235619627
H       4.0688807924     2.5825368164    30.7305776651
86
Step 3 | ATOMIC_POSITIONS (angstrom) | Cartesian Angstrom
Ni      1.2286390390     0.7093535490     9.0128649340
Ni      0.0000019230    -0.0000011100    11.0189462060
Ni      2.4642244780     1.4227189880    13.0272881070
Ni      1.2387561530     0.7151941710    15.0209755470
Ni      2.4572760100     2.8374169220     9.0128649340
Ni      1.2286511800     2.1280835430    11.0189462060
Ni      3.6924327390     3.5506983320    13.0276201530
Ni      2.4677586240     2.8437215940    15.0204940710
Ni      3.6859498400     4.9655441370     9.0128649340
Ni      2.4573004370     4.2561681970    11.0189462060
Ni      4.9211289880     5.6792703610    13.0277505390
Ni      3.6967676190     4.9714536840    15.0198461330
Ni      3.6859144660     0.7093535490     9.0128649340
Ni      2.4573019230    -0.0000011100    11.0189462060
Ni      4.9212127460     1.4223897070    13.0276202510
Ni      3.6966160050     0.7152787130    15.0204940950
Ni      4.9145514370     2.8374169220     9.0128649340
Ni      3.6859511800     2.1280835430    11.0189462060
Ni      6.1494102800     3.5503628350    13.0279816350
Ni      4.9255624130     2.8437736980    15.0200052340
Ni      6.1432252670     4.9655441370     9.0128649340
Ni      4.9146004370     4.2561681970    11.0189462060
Ni      7.3781196110     5.6789367880    13.0280595390
Ni      6.1545735900     4.9715622540    15.0193609870
Ni      6.1432636120     0.7093535490     9.0128649340
Ni      4.9146019230    -0.0000011100    11.0189462060
Ni      7.3789582730     1.4221866730    13.0277506190
Ni      6.1537906650     0.7157666040    15.0198461880
Ni      7.3719005830     2.8374169220     9.0128649340
Ni      6.1432511800     2.1280835430    11.0189462060
Ni      8.6071640600     3.5501702390    13.0280595260
Ni      7.3827869000     2.8442350780    15.0193609080
Ni      8.6005744130     4.9655441370     9.0128649340
Ni      7.3719004370     4.2561681970    11.0189462060
Ni      9.8358884290     5.6787529240    13.0281948130
Ni      8.6117605830     4.9720020900    15.0186578060
Cu     -0.0036410595    -0.0012981581    23.3384409320
Cu      1.2062514403     2.1272876173    23.3245213342
Cu      2.4426830174     4.2794312611    23.3228540121
Cu      2.4473631253    -0.0207551229    23.3237810393
Cu      0.0125040740     0.0072168940    17.0980434560
Cu      2.4663404955     1.4245945745    19.1863127712
Cu      1.2336173993     0.7124889731    21.2789676902
Cu      3.6845450816     2.1600886563    23.2267685327
Cu      1.2411159100     2.1352155180    17.0978014380
Cu      3.6947080002     3.5505105366    19.1860492152
Cu      2.4575360199     2.8416761557    21.2732379932
Cu      4.9251810755     4.2791829183    23.3175606370
Cu      4.9273970800    -0.0252143495    23.3190729620
Cu      2.4697108070     0.0072275920    17.0978015350
Cu      4.9227647913     1.4246828332    19.1871435226
Cu      3.6895282687     0.7105355634    21.2746573240
Cu      6.1643492854     2.1237945839    23.3204736744
Cu      3.6983605790     2.1352480720    17.0975611220
Cu      6.1521124909     3.5515186522    19.1894254221
Cu      4.9215283184     2.8414993978    21.2701376476
Cu      7.3694395495     4.2560637838    23.3452133982
Cu      2.4699760600     4.2628774400    17.0985397210
Cu      4.9228450853     5.6804160410    19.1910938565
Cu      3.6890359399     4.9654604799    21.2772131268
Cu      4.9270970170     4.2630879460    17.0982970610
Cu      7.3803764568     5.6800990051    19.1912797854
Cu      6.1473426589     4.9658952940    21.2754091313
Cu      4.9267502260     0.0076215920    17.0985396480
Cu      7.3809403689     1.4235399244    19.1906039309
Cu      6.1454113025     0.7123090041    21.2762146038
Cu      6.1554922450     2.1354459510    17.0982970840
Cu      8.6094322619     3.5508441584    19.1893656618
Cu      7.3751924475     2.8408099755    21.2775197707
Cu      7.3842970870     4.2633253690    17.0989758590
Cu      9.8382204205     5.6801024036    19.1916261410
Cu      8.6030084744     4.9651668562    21.2739949334
O       4.2147303860     0.7509837469    27.4957997795
O       3.6770013179     2.0769734017    25.2257712349
O       3.7165687776     2.1062983963    29.9641521173
C       3.7453710610     2.1095862033    27.5708009690
C       4.2155141395     2.8440191033    26.3259072408
C       4.2139098080     2.8080460984    28.8257303461
H       2.6443425822     2.0309964770    27.5419299494
H       5.3212376162     2.8627525247    26.2440319561
H       3.8268727346     3.8684217735    26.2205400518
H       3.8670402759     3.8612071348    28.8242843880
H       5.3241874583     2.8056519112    28.8221010782
H       5.1945782825     0.8084867335    27.5206485671
H       4.0714986310     1.1697782665    25.2415593065
H       4.0647335662     2.5773233804    30.7341908242
86
Step 4 | ATOMIC_POSITIONS (angstrom) | Cartesian Angstrom
Ni      1.2286390390     0.7093535490     9.0128649340
Ni      0.0000019230    -0.0000011100    11.0189462060
Ni      2.4642244780     1.4227189880    13.0272881070
Ni      1.2387561530     0.7151941710    15.0209755470
Ni      2.4572760100     2.8374169220     9.0128649340
Ni      1.2286511800     2.1280835430    11.0189462060
Ni      3.6924327390     3.5506983320    13.0276201530
Ni      2.4677586240     2.8437215940    15.0204940710
Ni      3.6859498400     4.9655441370     9.0128649340
Ni      2.4573004370     4.2561681970    11.0189462060
Ni      4.9211289880     5.6792703610    13.0277505390
Ni      3.6967676190     4.9714536840    15.0198461330
Ni      3.6859144660     0.7093535490     9.0128649340
Ni      2.4573019230    -0.0000011100    11.0189462060
Ni      4.9212127460     1.4223897070    13.0276202510
Ni      3.6966160050     0.7152787130    15.0204940950
Ni      4.9145514370     2.8374169220     9.0128649340
Ni      3.6859511800     2.1280835430    11.0189462060
Ni      6.1494102800     3.5503628350    13.0279816350
Ni      4.9255624130     2.8437736980    15.0200052340
Ni      6.1432252670     4.9655441370     9.0128649340
Ni      4.9146004370     4.2561681970    11.0189462060
Ni      7.3781196110     5.6789367880    13.0280595390
Ni      6.1545735900     4.9715622540    15.0193609870
Ni      6.1432636120     0.7093535490     9.0128649340
Ni      4.9146019230    -0.0000011100    11.0189462060
Ni      7.3789582730     1.4221866730    13.0277506190
Ni      6.1537906650     0.7157666040    15.0198461880
Ni      7.3719005830     2.8374169220     9.0128649340
Ni      6.1432511800     2.1280835430    11.0189462060
Ni      8.6071640600     3.5501702390    13.0280595260
Ni      7.3827869000     2.8442350780    15.0193609080
Ni      8.6005744130     4.9655441370     9.0128649340
Ni      7.3719004370     4.2561681970    11.0189462060
Ni      9.8358884290     5.6787529240    13.0281948130
Ni      8.6117605830     4.9720020900    15.0186578060
Cu     -0.0039775166    -0.0012250719    23.3409274298
Cu      1.2036443641     2.1273708383    23.3220290865
Cu      2.4404483203     4.2845217760    23.3199821042
Cu      2.4475151293    -0.0220527101    23.3204922083
Cu      0.0125040740     0.0072168940    17.0980434560
Cu      2.4661543978     1.4245273223    19.1844454199
Cu      1.2338406244     0.7125477514    21.2782740400
Cu      3.6869992460     2.1672709523    23.2253670586
Cu      1.2411159100     2.1352155180    17.0978014380
Cu      3.6944001898     3.5503586553    19.1838099384
Cu      2.4541845692     2.8436382162    21.2661631907
Cu      4.9284337784     4.2845391432    23.3131657623
Cu      4.9291130343    -0.0270881234    23.3141170559
Cu      2.4697108070     0.0072275920    17.0978015350
Cu      4.9225086369     1.4245142864    19.1852741633
Cu      3.6896027902     0.7083675155    21.2695366854
Cu      6.1675720649     2.1233965898    23.3171010173
Cu      3.6983605790     2.1352480720    17.0975611220
Cu      6.1521484953     3.5514557900    19.1881848192
Cu      4.9249865617     2.8433857902    21.2622345025
Cu      7.3698278553     4.2564442988    23.3504697000
Cu      2.4699760600     4.2628774400    17.0985397210
Cu      4.9226056877     5.6805486029    19.1911116373
Cu      3.6890090854     4.9654291302    21.2753563830
Cu      4.9270970170     4.2630879460    17.0982970610
Cu      7.3802205220     5.6800111145    19.1908081899
Cu      6.1487391088     4.9656615004    21.2723499801
Cu      4.9267502260     0.0076215920    17.0985396480
Cu      7.3809814928     1.4233605224    19.1904813064
Cu      6.1454684311     0.7123925524    21.2741319348
Cu      6.1554922450     2.1354459510    17.0982970840
Cu      8.6091983404     3.5506585771    19.1882200946
Cu      7.3755486280     2.8419725925    21.2754099112
Cu      7.3842970870     4.2633253690    17.0989758590
Cu      9.8383099263     5.6801319717    19.1917339639
Cu      8.6021905124     4.9644560278    21.2704549761
O       4.2196534911     0.7523592894    27.4939587781
O       3.6610015619     2.0648109348    25.2365484151
O       3.7141878038     2.1091717590    29.9662034662
C       3.7516986283     2.1102635419    27.5785339621
C       4.2118370043     2.8428016835    26.3258214265
C       4.2154956273     2.8101183392    28.8327133749
H       2.6527370854     2.0329211871    27.5453252806
H       5.3229701801     2.8709777029    26.2491115974
H       3.8270011578     3.8669697863    26.2181446044
H       3.8697587292     3.8606835394    28.8183663322
H       5.3252921035     2.8117984320    28.8187038537
H       5.1916683730     0.7983703120    27.5232187961
H       4.0687391561     1.1615346991    25.2634876056
H       4.0610553106     2.5728249623    30.7442570321
86
Step 5 | ATOMIC_POSITIONS (angstrom) | Cartesian Angstrom
Ni      1.2286390390     0.7093535490     9.0128649340
Ni      0.0000019230    -0.0000011100    11.0189462060
Ni      2.4642244780     1.4227189880    13.0272881070
Ni      1.2387561530     0.7151941710    15.0209755470
Ni      2.4572760100     2.8374169220     9.0128649340
Ni      1.2286511800     2.1280835430    11.0189462060
Ni      3.6924327390     3.5506983320    13.0276201530
Ni      2.4677586240     2.8437215940    15.0204940710
Ni      3.6859498400     4.9655441370     9.0128649340
Ni      2.4573004370     4.2561681970    11.0189462060
Ni      4.9211289880     5.6792703610    13.0277505390
Ni      3.6967676190     4.9714536840    15.0198461330
Ni      3.6859144660     0.7093535490     9.0128649340
Ni      2.4573019230    -0.0000011100    11.0189462060
Ni      4.9212127460     1.4223897070    13.0276202510
Ni      3.6966160050     0.7152787130    15.0204940950
Ni      4.9145514370     2.8374169220     9.0128649340
Ni      3.6859511800     2.1280835430    11.0189462060
Ni      6.1494102800     3.5503628350    13.0279816350
Ni      4.9255624130     2.8437736980    15.0200052340
Ni      6.1432252670     4.9655441370     9.0128649340
Ni      4.9146004370     4.2561681970    11.0189462060
Ni      7.3781196110     5.6789367880    13.0280595390
Ni      6.1545735900     4.9715622540    15.0193609870
Ni      6.1432636120     0.7093535490     9.0128649340
Ni      4.9146019230    -0.0000011100    11.0189462060
Ni      7.3789582730     1.4221866730    13.0277506190
Ni      6.1537906650     0.7157666040    15.0198461880
Ni      7.3719005830     2.8374169220     9.0128649340
Ni      6.1432511800     2.1280835430    11.0189462060
Ni      8.6071640600     3.5501702390    13.0280595260
Ni      7.3827869000     2.8442350780    15.0193609080
Ni      8.6005744130     4.9655441370     9.0128649340
Ni      7.3719004370     4.2561681970    11.0189462060
Ni      9.8358884290     5.6787529240    13.0281948130
Ni      8.6117605830     4.9720020900    15.0186578060
Cu     -0.0039194013    -0.0006621152    23.3447250213
Cu      1.2029410629     2.1279080158    23.3172935225
Cu      2.4384851527     4.2899819242    23.3147778342
Cu      2.4499665127    -0.0202368242    23.3141819608
Cu      0.0125040740     0.0072168940    17.0980434560
Cu      2.4657297254     1.4241712470    19.1808073948
Cu      1.2340504962     0.7124924199    21.2773141499
Cu      3.6915533659     2.1761016443    23.2359493777
Cu      1.2411159100     2.1352155180    17.0978014380
Cu      3.6938908383     3.5504491452    19.1794024005
Cu      2.4496728762     2.8463700466    21.2545016028
Cu      4.9325019801     4.2906735556    23.3057752027
Cu      4.9294511114    -0.0257016690    23.3052742706
Cu      2.4697108070     0.0072275920    17.0978015350
Cu      4.9222396470     1.4239910875    19.1814508973
Cu      3.6897277770     0.7060382019    21.2612351941
Cu      6.1692884282     2.1234248925    23.3113707417
Cu      3.6983605790     2.1352480720    17.0975611220
Cu      6.1524785483     3.5515499076    19.1850859960
Cu      4.9297755014     2.8460850485    21.2491639650
Cu      7.3705523918     4.2569751264    23.3588427467
Cu      2.4699760600     4.2628774400    17.0985397210
Cu      4.9222403508     5.6806755644    19.1906285192
Cu      3.6890131811     4.9656979157    21.2722278154
Cu      4.9270970170     4.2630879460    17.0982970610
Cu      7.3799792836     5.6796938900    19.1888397290
Cu      6.1514485582     4.9655979015    21.2670428405
Cu      4.9267502260     0.0076215920    17.0985396480
Cu      7.3809711908     1.4230810856    19.1898340224
Cu      6.1458877403     0.7123908523    21.2706344593
Cu      6.1554922450     2.1354459510    17.0982970840
Cu      8.6084962039     3.5506079526    19.1851705491
Cu      7.3761935555     2.8439594775    21.2717563395
Cu      7.3842970870     4.2633253690    17.0989758590
Cu      9.8383598526     5.6801238863    19.1912006897
Cu      8.6005137230     4.9635023919    21.2644340742
O       4.2204435556     0.7557415902    27.4941532928
O       3.6419063299     2.0447857911    25.2503477108
O       3.7125837654     2.1172865668    29.9738882601
C       3.7604206952     2.1134983745    27.5840690378
C       4.2092193168     2.8376867109    26.3225009293
C       4.2218005454     2.8120801350    28.8390050307
H       2.6651063135     2.0356635296    27.5539350413
H       5.3168360995     2.8833568213    26.2549666415
H       3.8259717476     3.8615133045    26.2146519432
H       3.8737889635     3.8596076140    28.8100943714
H       5.3270472088     2.8225795562    28.8179244509
H       5.1963250881     0.7801186718    27.5285511056
H       4.0596220864     1.1517113691    25.3025648568
H       4.0534833726     2.5635009127    30.7620386759
86
Step 6 | ATOMIC_POSITIONS (angstrom) | Cartesian Angstrom
Ni      1.2286390390     0.7093535490     9.0128649340
Ni      0.0000019230    -0.0000011100    11.0189462060
Ni      2.4642244780     1.4227189880    13.0272881070
Ni      1.2387561530     0.7151941710    15.0209755470
Ni      2.4572760100     2.8374169220     9.0128649340
Ni      1.2286511800     2.1280835430    11.0189462060
Ni      3.6924327390     3.5506983320    13.0276201530
Ni      2.4677586240     2.8437215940    15.0204940710
Ni      3.6859498400     4.9655441370     9.0128649340
Ni      2.4573004370     4.2561681970    11.0189462060
Ni      4.9211289880     5.6792703610    13.0277505390
Ni      3.6967676190     4.9714536840    15.0198461330
Ni      3.6859144660     0.7093535490     9.0128649340
Ni      2.4573019230    -0.0000011100    11.0189462060
Ni      4.9212127460     1.4223897070    13.0276202510
Ni      3.6966160050     0.7152787130    15.0204940950
Ni      4.9145514370     2.8374169220     9.0128649340
Ni      3.6859511800     2.1280835430    11.0189462060
Ni      6.1494102800     3.5503628350    13.0279816350
Ni      4.9255624130     2.8437736980    15.0200052340
Ni      6.1432252670     4.9655441370     9.0128649340
Ni      4.9146004370     4.2561681970    11.0189462060
Ni      7.3781196110     5.6789367880    13.0280595390
Ni      6.1545735900     4.9715622540    15.0193609870
Ni      6.1432636120     0.7093535490     9.0128649340
Ni      4.9146019230    -0.0000011100    11.0189462060
Ni      7.3789582730     1.4221866730    13.0277506190
Ni      6.1537906650     0.7157666040    15.0198461880
Ni      7.3719005830     2.8374169220     9.0128649340
Ni      6.1432511800     2.1280835430    11.0189462060
Ni      8.6071640600     3.5501702390    13.0280595260
Ni      7.3827869000     2.8442350780    15.0193609080
Ni      8.6005744130     4.9655441370     9.0128649340
Ni      7.3719004370     4.2561681970    11.0189462060
Ni      9.8358884290     5.6787529240    13.0281948130
Ni      8.6117605830     4.9720020900    15.0186578060
Cu     -0.0031644511     0.0004212772    23.3471364613
Cu      1.2060678184     2.1290291736    23.3125498242
Cu      2.4388054989     4.2911936077    23.3097795879
Cu      2.4540082407    -0.0149017466    23.3079726895
Cu      0.0125040740     0.0072168940    17.0980434560
Cu      2.4652441313     1.4236199316    19.1773966178
Cu      1.2340053864     0.7123328707    21.2765588358
Cu      3.6952295045     2.1797762625    23.2541783833
Cu      1.2411159100     2.1352155180    17.0978014380
Cu      3.6935071714     3.5508979364    19.1751678017
Cu      2.4488453570     2.8472242756    21.2472962109
Cu      4.9343668698     4.2927310442    23.2995194515
Cu      4.9273365314    -0.0202595981    23.2973200278
Cu      2.4697108070     0.0072275920    17.0978015350
Cu      4.9222204358     1.4233287357    19.1776318171
Cu      3.6898531840     0.7070422347    21.2559091152
Cu      6.1672964252     2.1245040542    23.3063240306
Cu      3.6983605790     2.1352480720    17.0975611220
Cu      6.1530128003     3.5518320248    19.1813532838
Cu      4.9310886774     2.8471069524    21.2407571947
Cu      7.3712699641     4.2574725106    23.3646981167
Cu      2.4699760600     4.2628774400    17.0985397210
Cu      4.9219839341     5.6806953810    19.1896568205
Cu      3.6890920354     4.9662377419    21.2697294496
Cu      4.9270970170     4.2630879460    17.0982970610
Cu      7.3798099569     5.6793370259    19.1857678037
Cu      6.1538195816     4.9660096948    21.2628802799
Cu      4.9267502260     0.0076215920    17.0985396480
Cu      7.3808925614     1.4228667775    19.1888417434
Cu      6.1466345911     0.7122902626    21.2677975592
Cu      6.1554922450     2.1354459510    17.0982970840
Cu      8.6076264779     3.5508358133    19.1813540549
Cu      7.3767073516     2.8454005580    21.2689258847
Cu      7.3842970870     4.2633253690    17.0989758590
Cu      9.8382941476     5.6800619143    19.1899040268
Cu      8.5990646746     4.9632116415    21.2599093934
O       4.2254041278     0.7565095966    27.4974808179
O       3.6342464095     2.0343383639    25.2572348589
O       3.7119194617     2.1237253203    29.9770647998
C       3.7667967760     2.1169612339    27.5849969469
C       4.2037464613     2.8340571690    26.3203229246
C       4.2267312544     2.8144375598    28.8411240629
H       2.6716804565     2.0379184530    27.5638037383
H       5.3087307808     2.8906105812    26.2546989902
H       3.8228318720     3.8539389945    26.2114275464
H       3.8767554613     3.8590357610    28.8052762439
H       5.3318223916     2.8312845201    28.8229661463
H       5.1985001152     0.7641294306    27.5339554423
H       4.0487560486     1.1410659208    25.3368947143
H       4.0485190208     2.5576792554    30.7802758518
86
Step 7 | ATOMIC_POSITIONS (angstrom) | Cartesian Angstrom
Ni      1.2286390390     0.7093535490     9.0128649340
Ni      0.0000019230    -0.0000011100    11.0189462060
Ni      2.4642244780     1.4227189880    13.0272881070
Ni      1.2387561530     0.7151941710    15.0209755470
Ni      2.4572760100     2.8374169220     9.0128649340
Ni      1.2286511800     2.1280835430    11.0189462060
Ni      3.6924327390     3.5506983320    13.0276201530
Ni      2.4677586240     2.8437215940    15.0204940710
Ni      3.6859498400     4.9655441370     9.0128649340
Ni      2.4573004370     4.2561681970    11.0189462060
Ni      4.9211289880     5.6792703610    13.0277505390
Ni      3.6967676190     4.9714536840    15.0198461330
Ni      3.6859144660     0.7093535490     9.0128649340
Ni      2.4573019230    -0.0000011100    11.0189462060
Ni      4.9212127460     1.4223897070    13.0276202510
Ni      3.6966160050     0.7152787130    15.0204940950
Ni      4.9145514370     2.8374169220     9.0128649340
Ni      3.6859511800     2.1280835430    11.0189462060
Ni      6.1494102800     3.5503628350    13.0279816350
Ni      4.9255624130     2.8437736980    15.0200052340
Ni      6.1432252670     4.9655441370     9.0128649340