86
Step 1 | ATOMIC_POSITIONS (angstrom) | Cartesian Angstrom
Ni      1.2286390390     0.7093535490     9.0128649340
Ni      0.0000019230    -0.0000011100    11.0189462060
Ni      2.4642244780     1.4227189880    13.0272881070
Ni      1.2387561530     0.7151941710    15.0209755470
Ni      2.4572760100     2.8374169220     9.0128649340
Ni      1.2286511800     2.1280835430    11.0189462060
Ni      3.6924327390     3.5506983320    13.0276201530
Ni      2.4677586240     2.8437215940    15.0204940710
Ni      3.6859498400     4.9655441370     9.0128649340
Ni      2.4573004370     4.2561681970    11.0189462060
Ni      4.9211289880     5.6792703610    13.0277505390
Ni      3.6967676190     4.9714536840    15.0198461330
Ni      3.6859144660     0.7093535490     9.0128649340
Ni      2.4573019230    -0.0000011100    11.0189462060
Ni      4.9212127460     1.4223897070    13.0276202510
Ni      3.6966160050     0.7152787130    15.0204940950
Ni      4.9145514370     2.8374169220     9.0128649340
Ni      3.6859511800     2.1280835430    11.0189462060
Ni      6.1494102800     3.5503628350    13.0279816350
Ni      4.9255624130     2.8437736980    15.0200052340
Ni      6.1432252670     4.9655441370     9.0128649340
Ni      4.9146004370     4.2561681970    11.0189462060
Ni      7.3781196110     5.6789367880    13.0280595390
Ni      6.1545735900     4.9715622540    15.0193609870
Ni      6.1432636120     0.7093535490     9.0128649340
Ni      4.9146019230    -0.0000011100    11.0189462060
Ni      7.3789582730     1.4221866730    13.0277506190
Ni      6.1537906650     0.7157666040    15.0198461880
Ni      7.3719005830     2.8374169220     9.0128649340
Ni      6.1432511800     2.1280835430    11.0189462060
Ni      8.6071640600     3.5501702390    13.0280595260
Ni      7.3827869000     2.8442350780    15.0193609080
Ni      8.6005744130     4.9655441370     9.0128649340
Ni      7.3719004370     4.2561681970    11.0189462060
Ni      9.8358884290     5.6787529240    13.0281948130
Ni      8.6117605830     4.9720020900    15.0186578060
Cu      0.0159029608     0.0077441962    23.3357545006
Cu      1.2258730024     2.1362358235    23.3149755640
Cu      2.4682548502     4.2830902901    23.3193735264
Cu      2.4622390374    -0.0173211925    23.2953449954
Cu      0.0125040740     0.0072168940    17.0980434560
Cu      2.4753681707     1.4253626298    19.1880952323
Cu      1.2467450999     0.7172576109    21.2698849332
Cu      3.7009486959     2.1376872881    23.4042113798
Cu      1.2411159100     2.1352155180    17.0978014380
Cu      3.7018989109     3.5496999615    19.1916907972
Cu      2.4814994946     2.8404431454    21.2983727799
Cu      4.9370033582     4.2754563893    23.3277139535
Cu      4.9415951123    -0.0059994054    23.3138194005
Cu      2.4697108070     0.0072275920    17.0978015350
Cu      4.9289223525     1.4247873103    19.1913370013
Cu      3.7039550589     0.7221191021    21.2900760186
Cu      6.1728987910     2.1347266374    23.3306323133
Cu      3.6983605790     2.1352480720    17.0975611220
Cu      6.1563913356     3.5490552942    19.1932424100
Cu      4.9236695308     2.8380973606    21.3040200987
Cu      7.3892895644     4.2659770855    23.3595721970
Cu      2.4699760600     4.2628774400    17.0985397210
Cu      4.9304289000     5.6802713631    19.1880283877
Cu      3.7047863874     4.9709587334    21.2744797645
Cu      4.9270970170     4.2630879460    17.0982970610
Cu      7.3881517881     5.6815167091    19.1885636754
Cu      6.1632548073     4.9655110307    21.2680684726
Cu      4.9267502260     0.0076215920    17.0985396480
Cu      7.3879027672     1.4241688963    19.1881547062
Cu      6.1612019620     0.7170601147    21.2746700182
Cu      6.1554922450     2.1354459510    17.0982970840
Cu      8.6190546188     3.5500743775    19.1909231952
Cu      7.3884481372     2.8463230879    21.2767179164
Cu      7.3842970870     4.2633253690    17.0989758590
Cu      9.8455728929     5.6801383219    19.1899620607
Cu      8.6154192291     4.9687176970    21.2721125137
O       4.2799610329     0.7114021520    27.7747695058
O       3.4478922543     1.8903798839    25.4568802426
O       3.8184784335     2.3357220919    30.1948552562
C       3.7944860605     2.0669324687    27.8222458579
C       4.0378840998     2.7348191748    26.4733589864
C       4.3572722476     2.8701151564    28.9832923361
H       2.7090523291     1.9562563206    27.9742018522
H       5.1139869834     2.8715957812    26.2646917944
H       3.5436996528     3.7099165009    26.3845826450
H       4.0728243010     3.9299064269    28.8515236774
H       5.4638095507     2.8182540074    28.9741193242
H       5.2547309881     0.7346575332    27.7441282576
H       3.7077526144     0.9627199702    25.6621540653
H       4.1995902841     2.8178136250    30.9464663829
86
Step 2 | ATOMIC_POSITIONS (angstrom) | Cartesian Angstrom
Ni      1.2286390390     0.7093535490     9.0128649340
Ni      0.0000019230    -0.0000011100    11.0189462060
Ni      2.4642244780     1.4227189880    13.0272881070
Ni      1.2387561530     0.7151941710    15.0209755470
Ni      2.4572760100     2.8374169220     9.0128649340
Ni      1.2286511800     2.1280835430    11.0189462060
Ni      3.6924327390     3.5506983320    13.0276201530
Ni      2.4677586240     2.8437215940    15.0204940710
Ni      3.6859498400     4.9655441370     9.0128649340
Ni      2.4573004370     4.2561681970    11.0189462060
Ni      4.9211289880     5.6792703610    13.0277505390
Ni      3.6967676190     4.9714536840    15.0198461330
Ni      3.6859144660     0.7093535490     9.0128649340
Ni      2.4573019230    -0.0000011100    11.0189462060
Ni      4.9212127460     1.4223897070    13.0276202510
Ni      3.6966160050     0.7152787130    15.0204940950
Ni      4.9145514370     2.8374169220     9.0128649340
Ni      3.6859511800     2.1280835430    11.0189462060
Ni      6.1494102800     3.5503628350    13.0279816350
Ni      4.9255624130     2.8437736980    15.0200052340
Ni      6.1432252670     4.9655441370     9.0128649340
Ni      4.9146004370     4.2561681970    11.0189462060
Ni      7.3781196110     5.6789367880    13.0280595390
Ni      6.1545735900     4.9715622540    15.0193609870
Ni      6.1432636120     0.7093535490     9.0128649340
Ni      4.9146019230    -0.0000011100    11.0189462060
Ni      7.3789582730     1.4221866730    13.0277506190
Ni      6.1537906650     0.7157666040    15.0198461880
Ni      7.3719005830     2.8374169220     9.0128649340
Ni      6.1432511800     2.1280835430    11.0189462060
Ni      8.6071640600     3.5501702390    13.0280595260
Ni      7.3827869000     2.8442350780    15.0193609080
Ni      8.6005744130     4.9655441370     9.0128649340
Ni      7.3719004370     4.2561681970    11.0189462060
Ni      9.8358884290     5.6787529240    13.0281948130
Ni      8.6117605830     4.9720020900    15.0186578060
Cu      0.0158074590     0.0077293214    23.3360769935
Cu      1.2257264462     2.1360337933    23.3150833349
Cu      2.4681619240     4.2830416933    23.3194903294
Cu      2.4620540638    -0.0174801358    23.2954212221
Cu      0.0125040740     0.0072168940    17.0980434560
Cu      2.4753085532     1.4254866998    19.1879805483
Cu      1.2466968842     0.7172549199    21.2697765424
Cu      3.7008170246     2.1375179522    23.4045291980
Cu      1.2411159100     2.1352155180    17.0978014380
Cu      3.7018237885     3.5497027783    19.1915075450
Cu      2.4812823787     2.8405266383    21.2982711789
Cu      4.9369714137     4.2754246290    23.3276970699
Cu      4.9416400613    -0.0061927017    23.3138875884
Cu      2.4697108070     0.0072275920    17.0978015350
Cu      4.9288860187     1.4249060785    19.1912085986
Cu      3.7038793247     0.7220294403    21.2899597287
Cu      6.1729148922     2.1345912951    23.3306097105
Cu      3.6983605790     2.1352480720    17.0975611220
Cu      6.1564374452     3.5491609362    19.1931450809
Cu      4.9236682866     2.8381481965    21.3039121228
Cu      7.3891545921     4.2659255692    23.3597758607
Cu      2.4699760600     4.2628774400    17.0985397210
Cu      4.9303659905     5.6802402842    19.1879908687
Cu      3.7046769143     4.9709155589    21.2745587227
Cu      4.9270970170     4.2630879460    17.0982970610
Cu      7.3881205400     5.6815618366    19.1886664328
Cu      6.1632309604     4.9655601601    21.2678632301
Cu      4.9267502260     0.0076215920    17.0985396480
Cu      7.3878211775     1.4242217848    19.1880930553
Cu      6.1610257639     0.7170645790    21.2746231200
Cu      6.1554922450     2.1354459510    17.0982970840
Cu      8.6189245303     3.5501552796    19.1908810201
Cu      7.3884175163     2.8463843299    21.2766277998
Cu      7.3842970870     4.2633253690    17.0989758590
Cu      9.8454763928     5.6801223321    19.1899286034
Cu      8.6152105580     4.9686833732    21.2719594849
O       4.2799834278     0.7112001098    27.7747564300
O       3.4481181091     1.8902771920    25.4569432109
O       3.8189578447     2.3355182845    30.1946207016
C       3.7945726086     2.0669000327    27.8222987446
C       4.0379199450     2.7349183345    26.4734494438
C       4.3573543212     2.8703500712    28.9831674129
H       2.7092219169     1.9568009369    27.9741545604
H       5.1140298832     2.8715017699    26.2648471060
H       3.5433532995     3.7099389230    26.3842230810
H       4.0727817686     3.9303529540    28.8516885224
H       5.4638255270     2.8178292050    28.9738137899
H       5.2547109846     0.7349346735    27.7441244672
H       3.7079441682     0.9627231745    25.6624661234
H       4.1999678132     2.8181352673    30.9459621020
86
Step 3 | ATOMIC_POSITIONS (angstrom) | Cartesian Angstrom
Ni      1.2286390390     0.7093535490     9.0128649340
Ni      0.0000019230    -0.0000011100    11.0189462060
Ni      2.4642244780     1.4227189880    13.0272881070
Ni      1.2387561530     0.7151941710    15.0209755470
Ni      2.4572760100     2.8374169220     9.0128649340
Ni      1.2286511800     2.1280835430    11.0189462060
Ni      3.6924327390     3.5506983320    13.0276201530
Ni      2.4677586240     2.8437215940    15.0204940710
Ni      3.6859498400     4.9655441370     9.0128649340
Ni      2.4573004370     4.2561681970    11.0189462060
Ni      4.9211289880     5.6792703610    13.0277505390
Ni      3.6967676190     4.9714536840    15.0198461330
Ni      3.6859144660     0.7093535490     9.0128649340
Ni      2.4573019230    -0.0000011100    11.0189462060
Ni      4.9212127460     1.4223897070    13.0276202510
Ni      3.6966160050     0.7152787130    15.0204940950
Ni      4.9145514370     2.8374169220     9.0128649340
Ni      3.6859511800     2.1280835430    11.0189462060
Ni      6.1494102800     3.5503628350    13.0279816350
Ni      4.9255624130     2.8437736980    15.0200052340
Ni      6.1432252670     4.9655441370     9.0128649340
Ni      4.9146004370     4.2561681970    11.0189462060
Ni      7.3781196110     5.6789367880    13.0280595390
Ni      6.1545735900     4.9715622540    15.0193609870
Ni      6.1432636120     0.7093535490     9.0128649340
Ni      4.9146019230    -0.0000011100    11.0189462060
Ni      7.3789582730     1.4221866730    13.0277506190
Ni      6.1537906650     0.7157666040    15.0198461880
Ni      7.3719005830     2.8374169220     9.0128649340
Ni      6.1432511800     2.1280835430    11.0189462060
Ni      8.6071640600     3.5501702390    13.0280595260
Ni      7.3827869000     2.8442350780    15.0193609080
Ni      8.6005744130     4.9655441370     9.0128649340
Ni      7.3719004370     4.2561681970    11.0189462060
Ni      9.8358884290     5.6787529240    13.0281948130
Ni      8.6117605830     4.9720020900    15.0186578060
Cu      0.0156608650     0.0076807220    23.3365469378
Cu      1.2255147394     2.1357513384    23.3152287888
Cu      2.4680115677     4.2829381618    23.3196538042
Cu      2.4617949251    -0.0177119099    23.2955141291
Cu      0.0125040740     0.0072168940    17.0980434560
Cu      2.4752096868     1.4256528344    19.1878164136
Cu      1.2465931855     0.7172449391    21.2696457436
Cu      3.7006264306     2.1372578030    23.4049612174
Cu      1.2411159100     2.1352155180    17.0978014380
Cu      3.7017121783     3.5497222695    19.1912597014
Cu      2.4809966487     2.8406234150    21.2981589853
Cu      4.9369025468     4.2753469822    23.3276626139
Cu      4.9416665262    -0.0064754022    23.3139729843
Cu      2.4697108070     0.0072275920    17.0978015350
Cu      4.9288263266     1.4250745861    19.1910261887
Cu      3.7037515704     0.7219484535    21.2898357835
Cu      6.1729042778     2.1343979779    23.3305666280
Cu      3.6983605790     2.1352480720    17.0975611220
Cu      6.1564804605     3.5493094204    19.1929972920
Cu      4.9236247958     2.8382100890    21.3037726345
Cu      7.3889580858     4.2658307201    23.3600649588
Cu      2.4699760600     4.2628774400    17.0985397210
Cu      4.9302615185     5.6802118483    19.1879359691
Cu      3.7045003137     4.9708715454    21.2746851485
Cu      4.9270970170     4.2630879460    17.0982970610
Cu      7.3880626353     5.6816575346    19.1887760238
Cu      6.1631665467     4.9656214665    21.2676026575
Cu      4.9267502260     0.0076215920    17.0985396480
Cu      7.3876982641     1.4242912359    19.1880097787
Cu      6.1607855689     0.7170592309    21.2745697075
Cu      6.1554922450     2.1354459510    17.0982970840
Cu      8.6187395507     3.5502690603    19.1908026751
Cu      7.3883471648     2.8464574326    21.2765235578
Cu      7.3842970870     4.2633253690    17.0989758590
Cu      9.8453380405     5.6801113793    19.1898860120
Cu      8.6149200845     4.9686387774    21.2717835051
O       4.2799470988     0.7111149671    27.7747685237
O       3.4484561613     1.8901564516    25.4570420708
O       3.8197140148     2.3352864362    30.1943791788
C       3.7947062438     2.0669808697    27.8222834569
C       4.0379103283     2.7350567391    26.4735123186
C       4.3574910985     2.8706281321    28.9829070298
H       2.7093779565     1.9575725754    27.9741086186
H       5.1141206743     2.8714112524    26.2650789896
H       3.5428989064     3.7098839993    26.3837095432
H       4.0727843265     3.9308902380    28.8519368935
H       5.4638952114     2.8172616056    28.9733157117
H       5.2547408038     0.7353202081    27.7441144565
H       3.7082654030     0.9626569941    25.6629669323
H       4.2005288609     2.8186020749    30.9451920701
