86
Step 1 | ATOMIC_POSITIONS (angstrom) | Cartesian Angstrom
Ni      1.2286390390     0.7093535490     9.0128649340
Ni      0.0000019230    -0.0000011100    11.0189462060
Ni      2.4642244780     1.4227189880    13.0272881070
Ni      1.2387561530     0.7151941710    15.0209755470
Ni      2.4572760100     2.8374169220     9.0128649340
Ni      1.2286511800     2.1280835430    11.0189462060
Ni      3.6924327390     3.5506983320    13.0276201530
Ni      2.4677586240     2.8437215940    15.0204940710
Ni      3.6859498400     4.9655441370     9.0128649340
Ni      2.4573004370     4.2561681970    11.0189462060
Ni      4.9211289880     5.6792703610    13.0277505390
Ni      3.6967676190     4.9714536840    15.0198461330
Ni      3.6859144660     0.7093535490     9.0128649340
Ni      2.4573019230    -0.0000011100    11.0189462060
Ni      4.9212127460     1.4223897070    13.0276202510
Ni      3.6966160050     0.7152787130    15.0204940950
Ni      4.9145514370     2.8374169220     9.0128649340
Ni      3.6859511800     2.1280835430    11.0189462060
Ni      6.1494102800     3.5503628350    13.0279816350
Ni      4.9255624130     2.8437736980    15.0200052340
Ni      6.1432252670     4.9655441370     9.0128649340
Ni      4.9146004370     4.2561681970    11.0189462060
Ni      7.3781196110     5.6789367880    13.0280595390
Ni      6.1545735900     4.9715622540    15.0193609870
Ni      6.1432636120     0.7093535490     9.0128649340
Ni      4.9146019230    -0.0000011100    11.0189462060
Ni      7.3789582730     1.4221866730    13.0277506190
Ni      6.1537906650     0.7157666040    15.0198461880
Ni      7.3719005830     2.8374169220     9.0128649340
Ni      6.1432511800     2.1280835430    11.0189462060
Ni      8.6071640600     3.5501702390    13.0280595260
Ni      7.3827869000     2.8442350780    15.0193609080
Ni      8.6005744130     4.9655441370     9.0128649340
Ni      7.3719004370     4.2561681970    11.0189462060
Ni      9.8358884290     5.6787529240    13.0281948130
Ni      8.6117605830     4.9720020900    15.0186578060
Cu     -0.0016638972    -0.0007318650    23.3329863381
Cu      1.2201422981     2.1275133478    23.3290677590
Cu      2.4511355676     4.2625773097    23.3287336788
Cu      2.4526715894    -0.0081062246    23.3289873015
Cu      0.0125040740     0.0072168940    17.0980434560
Cu      2.4665259880     1.4242464071    19.1888528887
Cu      1.2327798915     0.7118660048    21.2810511312
Cu      3.6826461994     2.1372376298    23.2830329923
Cu      1.2411159100     2.1352155180    17.0978014380
Cu      3.6952573983     3.5515500628    19.1890902317
Cu      2.4612533188     2.8392633137    21.2814989957
Cu      4.9155294577     4.2619036618    23.3271256441
Cu      4.9177077383    -0.0099984969    23.3278204933
Cu      2.4697108070     0.0072275920    17.0978015350
Cu      4.9235517611     1.4244695608    19.1893738346
Cu      3.6893830370     0.7124473171    21.2813336856
Cu      6.1482827458     2.1256021306    23.3278339054
Cu      3.6983605790     2.1352480720    17.0975611220
Cu      6.1524989352     3.5520296294    19.1901914267
Cu      4.9173588748     2.8391276426    21.2804746584
Cu      7.3687035886     4.2547537422    23.3345900231
Cu      2.4699760600     4.2628774400    17.0985397210
Cu      4.9234403195     5.6798602222    19.1899631442
Cu      3.6891441746     4.9665699837    21.2805487561
Cu      4.9270970170     4.2630879460    17.0982970610
Cu      7.3807315085     5.6799254723    19.1902812354
Cu      6.1460054301     4.9668622092    21.2802067346
Cu      4.9267502260     0.0076215920    17.0985396480
Cu      7.3806517279     1.4240117477    19.1898357349
Cu      6.1459996450     0.7116512527    21.2802367246
Cu      6.1554922450     2.1354459510    17.0982970840
Cu      8.6093759624     3.5517330106    19.1898038905
Cu      7.3747813563     2.8392066894    21.2806751341
Cu      7.3842970870     4.2633253690    17.0989758590
Cu      9.8377646043     5.6798493164    19.1899888737
Cu      8.6033452795     4.9666071634    21.2797237778
O       4.2150500876     0.7628248898    27.5084443523
O       3.7218173500     2.1168355737    25.1849509215
O       3.7275123220     2.1093366548    29.9558563201
C       3.7368286188     2.1109350118    27.5432606927
C       4.2050322960     2.8368244091    26.2935356361
C       4.2097777366     2.8069919082    28.8063020846
H       2.6222028744     2.0279090773    27.5405649653
H       5.3081050178     2.8464087815    26.2327675122
H       3.8325356728     3.8514891556    26.2303842885
H       3.8657245007     3.8462962938    28.8389766397
H       5.3188942951     2.7944475385    28.8389918784
H       5.1955887523     0.8208565053    27.5165946175
H       4.0728770509     1.1908477708    25.2058841483
H       4.0717032318     2.5858809996    30.7281976793
86
Step 2 | ATOMIC_POSITIONS (angstrom) | Cartesian Angstrom
Ni      1.2286390390     0.7093535490     9.0128649340
Ni      0.0000019230    -0.0000011100    11.0189462060
Ni      2.4642244780     1.4227189880    13.0272881070
Ni      1.2387561530     0.7151941710    15.0209755470
Ni      2.4572760100     2.8374169220     9.0128649340
Ni      1.2286511800     2.1280835430    11.0189462060
Ni      3.6924327390     3.5506983320    13.0276201530
Ni      2.4677586240     2.8437215940    15.0204940710
Ni      3.6859498400     4.9655441370     9.0128649340
Ni      2.4573004370     4.2561681970    11.0189462060
Ni      4.9211289880     5.6792703610    13.0277505390
Ni      3.6967676190     4.9714536840    15.0198461330
Ni      3.6859144660     0.7093535490     9.0128649340
Ni      2.4573019230    -0.0000011100    11.0189462060
Ni      4.9212127460     1.4223897070    13.0276202510
Ni      3.6966160050     0.7152787130    15.0204940950
Ni      4.9145514370     2.8374169220     9.0128649340
Ni      3.6859511800     2.1280835430    11.0189462060
Ni      6.1494102800     3.5503628350    13.0279816350
Ni      4.9255624130     2.8437736980    15.0200052340
Ni      6.1432252670     4.9655441370     9.0128649340
Ni      4.9146004370     4.2561681970    11.0189462060
Ni      7.3781196110     5.6789367880    13.0280595390
Ni      6.1545735900     4.9715622540    15.0193609870
Ni      6.1432636120     0.7093535490     9.0128649340
Ni      4.9146019230    -0.0000011100    11.0189462060
Ni      7.3789582730     1.4221866730    13.0277506190
Ni      6.1537906650     0.7157666040    15.0198461880
Ni      7.3719005830     2.8374169220     9.0128649340
Ni      6.1432511800     2.1280835430    11.0189462060
Ni      8.6071640600     3.5501702390    13.0280595260
Ni      7.3827869000     2.8442350780    15.0193609080
Ni      8.6005744130     4.9655441370     9.0128649340
Ni      7.3719004370     4.2561681970    11.0189462060
Ni      9.8358884290     5.6787529240    13.0281948130
Ni      8.6117605830     4.9720020900    15.0186578060
Cu     -0.0029594912    -0.0011381939    23.3360288045
Cu      1.2110696132     2.1273669349    23.3265407881
Cu      2.4458586528     4.2728739597    23.3253647705
Cu      2.4487871814    -0.0167950682    23.3262936264
Cu      0.0125040740     0.0072168940    17.0980434560
Cu      2.4664386007     1.4245019597    19.1876497000
Cu      1.2333072635     0.7123029841    21.2798064763
Cu      3.6829663533     2.1513993470    23.2396562862
Cu      1.2411159100     2.1352155180    17.0978014380
Cu      3.6949743703     3.5508728395    19.1876484794
Cu      2.4602078754     2.8400760894    21.2785372256
Cu      4.9213423604     4.2724502267    23.3216465467
Cu      4.9240908646    -0.0203286242    23.3231988121
Cu      2.4697108070     0.0072275920    17.0978015350
Cu      4.9230923557     1.4246692124    19.1883863636
Cu      3.6894596353     0.7123226965    21.2787217554
Cu      6.1587773853     2.1244900324    23.3236015114
Cu      3.6983605790     2.1352480720    17.0975611220
Cu      6.1522462554     3.5517031534    19.1900071799
Cu      4.9187308823     2.8399647931    21.2762617607
Cu      7.3691009473     4.2555775886    23.3403593828
Cu      2.4699760600     4.2628774400    17.0985397210
Cu      4.9230915461     5.6802216990    19.1907715386
Cu      3.6890820356     4.9657528786    21.2788378159
Cu      4.9270970170     4.2630879460    17.0982970610
Cu      7.3805301726     5.6800487967    19.1910911315
Cu      6.1464476599     4.9662652365    21.2778878727
Cu      4.9267502260     0.0076215920    17.0985396480
Cu      7.3808473485     1.4237257795    19.1904385590
Cu      6.1455621200     0.7121073910    21.2780898765
Cu      6.1554922450     2.1354459510    17.0982970840
Cu      8.6094547809     3.5511787069    19.1898098859
Cu      7.3749414694     2.8399151560    21.2792075442
Cu      7.3842970870     4.2633253690    17.0989758590
Cu      9.8380647627     5.6800270820    19.1911209297
Cu      8.6034227365     4.9658493252    21.2769121004
O       4.2213105779     0.7522878462    27.5003740372
O       3.6966208439     2.0900002559    25.2146818438
O       3.7190419628     2.1043410770    29.9598715863
C       3.7369654621     2.1104669567    27.5586236581
C       4.2195891038     2.8432164037    26.3172847781
C       4.2143002159     2.8064437658    28.8177404319
H       2.6357001539     2.0296247474    27.5408070458
H       5.3129291105     2.8549126978    26.2388633758
H       3.8275831342     3.8649523354    26.2240058794
H       3.8651099576     3.8587964918    28.8304622085
H       5.3222152433     2.8004716500    28.8281470247
H       5.1890545919     0.8149148965    27.5184525181
H       4.0716057840     1.1802202565    25.2235788133
H       4.0688752489     2.5825291536    30.7305758241
86
Step 3 | ATOMIC_POSITIONS (angstrom) | Cartesian Angstrom
Ni      1.2286390390     0.7093535490     9.0128649340
Ni      0.0000019230    -0.0000011100    11.0189462060
Ni      2.4642244780     1.4227189880    13.0272881070
Ni      1.2387561530     0.7151941710    15.0209755470
Ni      2.4572760100     2.8374169220     9.0128649340
Ni      1.2286511800     2.1280835430    11.0189462060
Ni      3.6924327390     3.5506983320    13.0276201530
Ni      2.4677586240     2.8437215940    15.0204940710
Ni      3.6859498400     4.9655441370     9.0128649340
Ni      2.4573004370     4.2561681970    11.0189462060
Ni      4.9211289880     5.6792703610    13.0277505390
Ni      3.6967676190     4.9714536840    15.0198461330
Ni      3.6859144660     0.7093535490     9.0128649340
Ni      2.4573019230    -0.0000011100    11.0189462060
Ni      4.9212127460     1.4223897070    13.0276202510
Ni      3.6966160050     0.7152787130    15.0204940950
Ni      4.9145514370     2.8374169220     9.0128649340
Ni      3.6859511800     2.1280835430    11.0189462060
Ni      6.1494102800     3.5503628350    13.0279816350
Ni      4.9255624130     2.8437736980    15.0200052340
Ni      6.1432252670     4.9655441370     9.0128649340
Ni      4.9146004370     4.2561681970    11.0189462060
Ni      7.3781196110     5.6789367880    13.0280595390
Ni      6.1545735900     4.9715622540    15.0193609870
Ni      6.1432636120     0.7093535490     9.0128649340
Ni      4.9146019230    -0.0000011100    11.0189462060
Ni      7.3789582730     1.4221866730    13.0277506190
Ni      6.1537906650     0.7157666040    15.0198461880
Ni      7.3719005830     2.8374169220     9.0128649340
Ni      6.1432511800     2.1280835430    11.0189462060
Ni      8.6071640600     3.5501702390    13.0280595260
Ni      7.3827869000     2.8442350780    15.0193609080
Ni      8.6005744130     4.9655441370     9.0128649340
Ni      7.3719004370     4.2561681970    11.0189462060
Ni      9.8358884290     5.6787529240    13.0281948130
Ni      8.6117605830     4.9720020900    15.0186578060
Cu     -0.0036433403    -0.0012942540    23.3384198620
Cu      1.2062544473     2.1272873383    23.3245115386
Cu      2.4426944989     4.2794192880    23.3228396112
Cu      2.4473638697    -0.0207569591    23.3237750517
Cu      0.0125040740     0.0072168940    17.0980434560
Cu      2.4663302803     1.4245879813    19.1863126112
Cu      1.2336110529     0.7124845686    21.2789907876
Cu      3.6845535568     2.1600970238    23.2267628369
Cu      1.2411159100     2.1352155180    17.0978014380
Cu      3.6947089721     3.5505208714    19.1860494413
Cu      2.4575377763     2.8416736866    21.2732839936
Cu      4.9251825810     4.2791602382    23.3175577560
Cu      4.9273991240    -0.0252006002    23.3190718971
Cu      2.4697108070     0.0072275920    17.0978015350
Cu      4.9227755348     1.4246771185    19.1871436621
Cu      3.6895274060     0.7105378803    21.2747006903
Cu      6.1643340604     2.1238004657    23.3204721385
Cu      3.6983605790     2.1352480720    17.0975611220
Cu      6.1521219329     3.5515237167    19.1894396588
Cu      4.9215274392     2.8414995979    21.2701908633
Cu      7.3694279009     4.2560597811    23.3451810338
Cu      2.4699760600     4.2628774400    17.0985397210
Cu      4.9228461022     5.6804164226    19.1911073584
Cu      3.6890382836     4.9654666761    21.2772406343
Cu      4.9270970170     4.2630879460    17.0982970610
Cu      7.3803773536     5.6800873375    19.1912916247
Cu      6.1473422674     4.9658941820    21.2754336568
Cu      4.9267502260     0.0076215920    17.0985396480
Cu      7.3809410802     1.4235390711    19.1906185684
Cu      6.1454190602     0.7123056063    21.2762385278
Cu      6.1554922450     2.1354459510    17.0982970840
Cu      8.6094231262     3.5508500471    19.1893795990
Cu      7.3751924620     2.8408099939    21.2775422143
Cu      7.3842970870     4.2633253690    17.0989758590
Cu      9.8382196301     5.6801021434    19.1916398307
Cu      8.6030071436     4.9651657358    21.2740175345
O       4.2147231045     0.7509971365    27.4958224818
O       3.6770357673     2.0770096040    25.2257399144
O       3.7165739291     2.1062993574    29.9641412881
C       3.7453592348     2.1095920856    27.5707847039
C       4.2155083340     2.8440099467    26.3258859309
C       4.2139095846     2.8080451600    28.8257187986
H       2.6443245040     2.0309941527    27.5419357089
H       5.3212231835     2.8627362682    26.2440293559
H       3.8268763869     3.8684092212    26.2205564100
H       3.8670387984     3.8611961022    28.8243033977
H       5.3241831685     2.8056413743    28.8221222366
H       5.1945729591     0.8084981319    27.5206532136
H       4.0714969556     1.1698019369    25.2415330897
H       4.0647400142     2.5773307954    30.7341919778
86
Step 4 | ATOMIC_POSITIONS (angstrom) | Cartesian Angstrom
Ni      1.2286390390     0.7093535490     9.0128649340
Ni      0.0000019230    -0.0000011100    11.0189462060
Ni      2.4642244780     1.4227189880    13.0272881070
Ni      1.2387561530     0.7151941710    15.0209755470
Ni      2.4572760100     2.8374169220     9.0128649340
Ni      1.2286511800     2.1280835430    11.0189462060
Ni      3.6924327390     3.5506983320    13.0276201530
Ni      2.4677586240     2.8437215940    15.0204940710
Ni      3.6859498400     4.9655441370     9.0128649340
Ni      2.4573004370     4.2561681970    11.0189462060
Ni      4.9211289880     5.6792703610    13.0277505390
Ni      3.6967676190     4.9714536840    15.0198461330
Ni      3.6859144660     0.7093535490     9.0128649340
Ni      2.4573019230    -0.0000011100    11.0189462060
Ni      4.9212127460     1.4223897070    13.0276202510
Ni      3.6966160050     0.7152787130    15.0204940950
Ni      4.9145514370     2.8374169220     9.0128649340
Ni      3.6859511800     2.1280835430    11.0189462060
Ni      6.1494102800     3.5503628350    13.0279816350
Ni      4.9255624130     2.8437736980    15.0200052340
Ni      6.1432252670     4.9655441370     9.0128649340
Ni      4.9146004370     4.2561681970    11.0189462060
Ni      7.3781196110     5.6789367880    13.0280595390
Ni      6.1545735900     4.9715622540    15.0193609870
Ni      6.1432636120     0.7093535490     9.0128649340
Ni      4.9146019230    -0.0000011100    11.0189462060
Ni      7.3789582730     1.4221866730    13.0277506190
Ni      6.1537906650     0.7157666040    15.0198461880
Ni      7.3719005830     2.8374169220     9.0128649340
Ni      6.1432511800     2.1280835430    11.0189462060
Ni      8.6071640600     3.5501702390    13.0280595260
Ni      7.3827869000     2.8442350780    15.0193609080
Ni      8.6005744130     4.9655441370     9.0128649340
Ni      7.3719004370     4.2561681970    11.0189462060
Ni      9.8358884290     5.6787529240    13.0281948130
Ni      8.6117605830     4.9720020900    15.0186578060
Cu     -0.0039794635    -0.0012218716    23.3409216886
Cu      1.2036297012     2.1273712096    23.3220147426
Cu      2.4404457808     4.2845350980    23.3199658512
Cu      2.4475106428    -0.0220686092    23.3204751873
Cu      0.0125040740     0.0072168940    17.0980434560
Cu      2.4661499006     1.4245238450    19.1844468777
Cu      1.2338410817     0.7125467686    21.2782831816
Cu      3.6870135058     2.1672991839    23.2253541509
Cu      1.2411159100     2.1352155180    17.0978014380
Cu      3.6943997640     3.5503622685    19.1838098521
Cu      2.4541721088     2.8436416303    21.2661660651
Cu      4.9284470254     4.2845423580    23.3131620341
Cu      4.9291255514    -0.0270929225    23.3141020352
Cu      2.4697108070     0.0072275920    17.0978015350
Cu      4.9225125783     1.4245107950    19.1852757671
Cu      3.6896016148     0.7083593953    21.2695459826
Cu      6.1675753531     2.1233987658    23.3171019767
Cu      3.6983605790     2.1352480720    17.0975611220
Cu      6.1521521970     3.5514576592    19.1881994687
Cu      4.9249986620     2.8433912371    21.2622383436
Cu      7.3698234910     4.2564451716    23.3504620160
Cu      2.4699760600     4.2628774400    17.0985397210
Cu      4.9226057238     5.6805502712    19.1911278583
Cu      3.6890105928     4.9654328675    21.2753635573
Cu      4.9270970170     4.2630879460    17.0982970610
Cu      7.3802213880     5.6800072176    19.1908244404
Cu      6.1487433505     4.9656628609    21.2723527340
Cu      4.9267502260     0.0076215920    17.0985396480
Cu      7.3809830805     1.4233581959    19.1904978701
Cu      6.1454717704     0.7123908415    21.2741356283
Cu      6.1554922450     2.1354459510    17.0982970840
Cu      8.6091958266     3.5506606218    19.1882358544
Cu      7.3755519982     2.8419747471    21.2754147446
Cu      7.3842970870     4.2633253690    17.0989758590
Cu      9.8383102625     5.6801320487    19.1917513832
Cu      8.6021880195     4.9644546045    21.2704560413
O       4.2196355850     0.7523706227    27.4939652404
O       3.6609511767     2.0647900585    25.2365510236
O       3.7141847206     2.1091858070    29.9662158423
C       3.7517157018     2.1102685593    27.5785630255
C       4.2118124522     2.8427904562    26.3258211925
C       4.2154946741     2.8101238666    28.8327338589
H       2.6527555567     2.0329276847    27.5453394361
H       5.3229828193     2.8709946135    26.2491305595
H       3.8270031687     3.8669671972    26.2181486279
H       3.8697668869     3.8606808652    28.8183602454
H       5.3252960011     2.8118113960    28.8187036716
H       5.1916695704     0.7983497731    27.5232337619
H       4.0687314331     1.1615224606    25.2635395110
H       4.0610428979     2.5728085068    30.7442779114
86
Step 5 | ATOMIC_POSITIONS (angstrom) | Cartesian Angstrom
Ni      1.2286390390     0.7093535490     9.0128649340
Ni      0.0000019230    -0.0000011100    11.0189462060
Ni      2.4642244780     1.4227189880    13.0272881070
Ni      1.2387561530     0.7151941710    15.0209755470
Ni      2.4572760100     2.8374169220     9.0128649340
Ni      1.2286511800     2.1280835430    11.0189462060
Ni      3.6924327390     3.5506983320    13.0276201530
Ni      2.4677586240     2.8437215940    15.0204940710
Ni      3.6859498400     4.9655441370     9.0128649340
Ni      2.4573004370     4.2561681970    11.0189462060
Ni      4.9211289880     5.6792703610    13.0277505390
Ni      3.6967676190     4.9714536840    15.0198461330
Ni      3.6859144660     0.7093535490     9.0128649340
Ni      2.4573019230    -0.0000011100    11.0189462060
Ni      4.9212127460     1.4223897070    13.0276202510
Ni      3.6966160050     0.7152787130    15.0204940950
Ni      4.9145514370     2.8374169220     9.0128649340
Ni      3.6859511800     2.1280835430    11.0189462060
Ni      6.1494102800     3.5503628350    13.0279816350
Ni      4.9255624130     2.8437736980    15.0200052340
Ni      6.1432252670     4.9655441370     9.0128649340
Ni      4.9146004370     4.2561681970    11.0189462060
Ni      7.3781196110     5.6789367880    13.0280595390
Ni      6.1545735900     4.9715622540    15.0193609870
Ni      6.1432636120     0.7093535490     9.0128649340
Ni      4.9146019230    -0.0000011100    11.0189462060
Ni      7.3789582730     1.4221866730    13.0277506190
Ni      6.1537906650     0.7157666040    15.0198461880
Ni      7.3719005830     2.8374169220     9.0128649340
Ni      6.1432511800     2.1280835430    11.0189462060
Ni      8.6071640600     3.5501702390    13.0280595260
Ni      7.3827869000     2.8442350780    15.0193609080
Ni      8.6005744130     4.9655441370     9.0128649340
Ni      7.3719004370     4.2561681970    11.0189462060
Ni      9.8358884290     5.6787529240    13.0281948130
Ni      8.6117605830     4.9720020900    15.0186578060
Cu     -0.0039158827    -0.0006651091    23.3447151510
Cu      1.2029229424     2.1279110645    23.3173024034
Cu      2.4384815122     4.2899797183    23.3147940418
Cu      2.4499473169    -0.0202665383    23.3141884292
Cu      0.0125040740     0.0072168940    17.0980434560
Cu      2.4657358020     1.4241732665    19.1808310638
Cu      1.2340532343     0.7124935738    21.2773040636
Cu      3.6915405934     2.1760733666    23.2359430963
Cu      1.2411159100     2.1352155180    17.0978014380
Cu      3.6938906876     3.5504456217    19.1794265436
Cu      2.4496742036     2.8463649989    21.2545108788
Cu      4.9324956120     4.2906639867    23.3058209046
Cu      4.9294614469    -0.0257258197    23.3052961160
Cu      2.4697108070     0.0072275920    17.0978015350
Cu      4.9222362839     1.4239915726    19.1814754315
Cu      3.6897267228     0.7060331274    21.2612393352
Cu      6.1692942568     2.1234266680    23.3114128225
Cu      3.6983605790     2.1352480720    17.0975611220
Cu      6.1524771256     3.5515496010    19.1851138480
Cu      4.9297717235     2.8460800990    21.2491732210
Cu      7.3705579739     4.2569782664    23.3588123607
Cu      2.4699760600     4.2628774400    17.0985397210
Cu      4.9222427760     5.6806774763    19.1906467826
Cu      3.6890125954     4.9657016336    21.2722226238
Cu      4.9270970170     4.2630879460    17.0982970610
Cu      7.3799823910     5.6797002437    19.1888669980
Cu      6.1514460822     4.9656011915    21.2670438349
Cu      4.9267502260     0.0076215920    17.0985396480
Cu      7.3809738845     1.4230806187    19.1898529464
Cu      6.1458872728     0.7123885019    21.2706270813
Cu      6.1554922450     2.1354459510    17.0982970840
Cu      8.6085038007     3.5506080969    19.1852000462
Cu      7.3761960215     2.8439561109    21.2717561828
Cu      7.3842970870     4.2633253690    17.0989758590
Cu      9.8383592323     5.6801234220    19.1912208874
Cu      8.6005170036     4.9635064146    21.2644392282
O       4.2204032144     0.7557300248    27.4941567700
O       3.6419200951     2.0448233199    25.2503021280
O       3.7125847439     2.1172758243    29.9738782016
C       3.7604033215     2.1134912701    27.5840708823
C       4.2092149438     2.8376960859    26.3225238996
C       4.2217866227     2.8120777921    28.8389998076
H       2.6650824445     2.0356636304    27.5539220648
H       5.3168602578     2.8833293706    26.2549597953
H       3.8259721526     3.8615363861    26.2146634311
H       3.8737820024     3.8596201437    28.8101138178
H       5.3270450705     2.8225586017    28.8179259617
H       5.1963262829     0.7801605851    27.5285486559
H       4.0596371571     1.1517337067    25.3024814554
H       4.0534971043     2.5635169179    30.7619999331
86
Step 6 | ATOMIC_POSITIONS (angstrom) | Cartesian Angstrom
Ni      1.2286390390     0.7093535490     9.0128649340
Ni      0.0000019230    -0.0000011100    11.0189462060
Ni      2.4642244780     1.4227189880    13.0272881070
Ni      1.2387561530     0.7151941710    15.0209755470
Ni      2.4572760100     2.8374169220     9.0128649340
Ni      1.2286511800     2.1280835430    11.0189462060
Ni      3.6924327390     3.5506983320    13.0276201530
Ni      2.4677586240     2.8437215940    15.0204940710
Ni      3.6859498400     4.9655441370     9.0128649340
Ni      2.4573004370     4.2561681970    11.0189462060
Ni      4.9211289880     5.6792703610    13.0277505390
Ni      3.6967676190     4.9714536840    15.0198461330
Ni      3.6859144660     0.7093535490     9.0128649340
Ni      2.4573019230    -0.0000011100    11.0189462060
Ni      4.9212127460     1.4223897070    13.0276202510
Ni      3.6966160050     0.7152787130    15.0204940950
Ni      4.9145514370     2.8374169220     9.0128649340
Ni      3.6859511800     2.1280835430    11.0189462060
Ni      6.1494102800     3.5503628350    13.0279816350
Ni      4.9255624130     2.8437736980    15.0200052340
Ni      6.1432252670     4.9655441370     9.0128649340
Ni      4.9146004370     4.2561681970    11.0189462060
Ni      7.3781196110     5.6789367880    13.0280595390
Ni      6.1545735900     4.9715622540    15.0193609870
Ni      6.1432636120     0.7093535490     9.0128649340
Ni      4.9146019230    -0.0000011100    11.0189462060
Ni      7.3789582730     1.4221866730    13.0277506190
Ni      6.1537906650     0.7157666040    15.0198461880
Ni      7.3719005830     2.8374169220     9.0128649340
Ni      6.1432511800     2.1280835430    11.0189462060
Ni      8.6071640600     3.5501702390    13.0280595260
Ni      7.3827869000     2.8442350780    15.0193609080
Ni      8.6005744130     4.9655441370     9.0128649340
Ni      7.3719004370     4.2561681970    11.0189462060
Ni      9.8358884290     5.6787529240    13.0281948130
Ni      8.6117605830     4.9720020900    15.0186578060
Cu     -0.0031603454     0.0004163246    23.3471326550
Cu      1.2060518346     2.1290353449    23.3125583626
Cu      2.4388012834     4.2911913488    23.3097996829
Cu      2.4539918262    -0.0149265858    23.3079713078
Cu      0.0125040740     0.0072168940    17.0980434560
Cu      2.4652553163     1.4236246546    19.1774224600
Cu      1.2340146494     0.7123382237    21.2765399811
Cu      3.6952155423     2.1797386276    23.2542157569
Cu      1.2411159100     2.1352155180    17.0978014380
Cu      3.6935065968     3.5508899181    19.1751942338
Cu      2.4488411059     2.8472228095    21.2472768462
Cu      4.9343562085     4.2927222811    23.2995687504
Cu      4.9273449209    -0.0202824010    23.2973319619
Cu      2.4697108070     0.0072275920    17.0978015350
Cu      4.9222122710     1.4233314005    19.1776580059
Cu      3.6898522784     0.7070314150    21.2558898350
Cu      6.1673009115     2.1245053798    23.3063688810
Cu      3.6983605790     2.1352480720    17.0975611220
Cu      6.1530078929     3.5518302831    19.1813754497
Cu      4.9310904128     2.8471046833    21.2407377682
Cu      7.3712818120     4.2574752443    23.3646822992
Cu      2.4699760600     4.2628774400    17.0985397210
Cu      4.9219856361     5.6806988935    19.1896689394
Cu      3.6890919973     4.9662360638    21.2697138394
Cu      4.9270970170     4.2630879460    17.0982970610
Cu      7.3798128646     5.6793495225    19.1857905272
Cu      6.1538168423     4.9660142312    21.2628699572
Cu      4.9267502260     0.0076215920    17.0985396480
Cu      7.3808959010     1.4228650705    19.1888536570
Cu      6.1466291116     0.7122923705    21.2677820550
Cu      6.1554922450     2.1354459510    17.0982970840
Cu      8.6076389021     3.5508336989    19.1813783134
Cu      7.3767103643     2.8453963662    21.2689166673
Cu      7.3842970870     4.2633253690    17.0989758590
Cu      9.8382954471     5.6800628103    19.1899180203
Cu      8.5990690867     4.9632163923    21.2599031597
O       4.2253807946     0.7564968818    27.4974831803
O       3.6342386019     2.0343520234    25.2572157935
O       3.7119180621     2.1237258402    29.9770691335
C       3.7667826734     2.1169564954    27.5849994947
C       4.2037450718     2.8340620314    26.3203309265
C       4.2267248786     2.8144398238    28.8411231179
H       2.6716682305     2.0379251909    27.5638008404
H       5.3087382166     2.8905958637    26.2546971587
H       3.8228323328     3.8539550669    26.2114343726
H       3.8767545915     3.8590476366    28.8052846805
H       5.3318208356     2.8312768131    28.8229647967
H       5.1984909132     0.7641494655    27.5339569610
H       4.0487566103     1.1410792025    25.3368497088
H       4.0485240482     2.5576847087    30.7802578314
86
Step 7 | ATOMIC_POSITIONS (angstrom) | Cartesian Angstrom
Ni      1.2286390390     0.7093535490     9.0128649340
Ni      0.0000019230    -0.0000011100    11.0189462060
Ni      2.4642244780     1.4227189880    13.0272881070
Ni      1.2387561530     0.7151941710    15.0209755470
Ni      2.4572760100     2.8374169220     9.0128649340
Ni      1.2286511800     2.1280835430    11.0189462060
Ni      3.6924327390     3.5506983320    13.0276201530
Ni      2.4677586240     2.8437215940    15.0204940710
Ni      3.6859498400     4.9655441370     9.0128649340
Ni      2.4573004370     4.2561681970    11.0189462060
Ni      4.9211289880     5.6792703610    13.0277505390
Ni      3.6967676190     4.9714536840    15.0198461330
Ni      3.6859144660     0.7093535490     9.0128649340
Ni      2.4573019230    -0.0000011100    11.0189462060
Ni      4.9212127460     1.4223897070    13.0276202510
Ni      3.6966160050     0.7152787130    15.0204940950
Ni      4.9145514370     2.8374169220     9.0128649340
Ni      3.6859511800     2.1280835430    11.0189462060
Ni      6.1494102800     3.5503628350    13.0279816350
Ni      4.9255624130     2.8437736980    15.0200052340
Ni      6.1432252670     4.9655441370     9.0128649340