86
Step 1 | ATOMIC_POSITIONS (angstrom) | Cartesian Angstrom
Ni      1.2286390390     0.7093535490     9.0128649340
Ni      0.0000019230    -0.0000011100    11.0189462060
Ni      2.4642244780     1.4227189880    13.0272881070
Ni      1.2387561530     0.7151941710    15.0209755470
Ni      2.4572760100     2.8374169220     9.0128649340
Ni      1.2286511800     2.1280835430    11.0189462060
Ni      3.6924327390     3.5506983320    13.0276201530
Ni      2.4677586240     2.8437215940    15.0204940710
Ni      3.6859498400     4.9655441370     9.0128649340
Ni      2.4573004370     4.2561681970    11.0189462060
Ni      4.9211289880     5.6792703610    13.0277505390
Ni      3.6967676190     4.9714536840    15.0198461330
Ni      3.6859144660     0.7093535490     9.0128649340
Ni      2.4573019230    -0.0000011100    11.0189462060
Ni      4.9212127460     1.4223897070    13.0276202510
Ni      3.6966160050     0.7152787130    15.0204940950
Ni      4.9145514370     2.8374169220     9.0128649340
Ni      3.6859511800     2.1280835430    11.0189462060
Ni      6.1494102800     3.5503628350    13.0279816350
Ni      4.9255624130     2.8437736980    15.0200052340
Ni      6.1432252670     4.9655441370     9.0128649340
Ni      4.9146004370     4.2561681970    11.0189462060
Ni      7.3781196110     5.6789367880    13.0280595390
Ni      6.1545735900     4.9715622540    15.0193609870
Ni      6.1432636120     0.7093535490     9.0128649340
Ni      4.9146019230    -0.0000011100    11.0189462060
Ni      7.3789582730     1.4221866730    13.0277506190
Ni      6.1537906650     0.7157666040    15.0198461880
Ni      7.3719005830     2.8374169220     9.0128649340
Ni      6.1432511800     2.1280835430    11.0189462060
Ni      8.6071640600     3.5501702390    13.0280595260
Ni      7.3827869000     2.8442350780    15.0193609080
Ni      8.6005744130     4.9655441370     9.0128649340
Ni      7.3719004370     4.2561681970    11.0189462060
Ni      9.8358884290     5.6787529240    13.0281948130
Ni      8.6117605830     4.9720020900    15.0186578060
Cu     -0.0016632674    -0.0007332129    23.3329924392
Cu      1.2201479614     2.1275133359    23.3290714422
Cu      2.4511388888     4.2625730312    23.3287371686
Cu      2.4526727890    -0.0081019260    23.3289910300
Cu      0.0125040740     0.0072168940    17.0980434560
Cu      2.4665269289     1.4242468046    19.1888605748
Cu      1.2327822160     0.7118668008    21.2810384488
Cu      3.6826442073     2.1372389369    23.2830287362
Cu      1.2411159100     2.1352155180    17.0978014380
Cu      3.6952570640     3.5515496984    19.1890976552
Cu      2.4612553865     2.8392622826    21.2814880433
Cu      4.9155251975     4.2619010367    23.3271267022
Cu      4.9177055911    -0.0099955216    23.3278257764
Cu      2.4697108070     0.0072275920    17.0978015350
Cu      4.9235506763     1.4244697409    19.1893806608
Cu      3.6893823708     0.7124495778    21.2813220088
Cu      6.1482787601     2.1256022379    23.3278372568
Cu      3.6983605790     2.1352480720    17.0975611220
Cu      6.1524971257     3.5520287727    19.1901960271
Cu      4.9173553789     2.8391264048    21.2804630069
Cu      7.3687040963     4.2547537976    23.3345976389
Cu      2.4699760600     4.2628774400    17.0985397210
Cu      4.9234401195     5.6798598455    19.1899689034
Cu      3.6891431945     4.9665680911    21.2805359196
Cu      4.9270970170     4.2630879460    17.0982970610
Cu      7.3807313868     5.6799277416    19.1902863592
Cu      6.1460039267     4.9668641262    21.2801930581
Cu      4.9267502260     0.0076215920    17.0985396480
Cu      7.3806514995     1.4240119659    19.1898406217
Cu      6.1459975808     0.7116508583    21.2802236016
Cu      6.1554922450     2.1354459510    17.0982970840
Cu      8.6093777783     3.5517321215    19.1898089948
Cu      7.3747824160     2.8392052267    21.2806616316
Cu      7.3842970870     4.2633253690    17.0989758590
Cu      9.8377645252     5.6798489087    19.1899941965
Cu      8.6033472797     4.9666082211    21.2797109810
O       4.2150570656     0.7628212020    27.5084404004
O       3.7218171522     2.1168303158    25.1849460029
O       3.7275120791     2.1093352821    29.9558638308
C       3.7368273169     2.1109372880    27.5432578542
C       4.2050340303     2.8368272760    26.2935329793
C       4.2097798275     2.8069962218    28.8062986150
H       2.6222020712     2.0279098233    27.5405619711
H       5.3081038809     2.8464094730    26.2327647452
H       3.8325363618     3.8514882667    26.2303815484
H       3.8657255804     3.8462946887    28.8389734385
H       5.3188921791     2.7944483727    28.8389886392
H       5.1955909823     0.8208561594    27.5165918344
H       4.0728772388     1.1908467637    25.2058817174
H       4.0717040633     2.5858822311    30.7281968980
86
Step 2 | ATOMIC_POSITIONS (angstrom) | Cartesian Angstrom
Ni      1.2286390390     0.7093535490     9.0128649340
Ni      0.0000019230    -0.0000011100    11.0189462060
Ni      2.4642244780     1.4227189880    13.0272881070
Ni      1.2387561530     0.7151941710    15.0209755470
Ni      2.4572760100     2.8374169220     9.0128649340
Ni      1.2286511800     2.1280835430    11.0189462060
Ni      3.6924327390     3.5506983320    13.0276201530
Ni      2.4677586240     2.8437215940    15.0204940710
Ni      3.6859498400     4.9655441370     9.0128649340
Ni      2.4573004370     4.2561681970    11.0189462060
Ni      4.9211289880     5.6792703610    13.0277505390
Ni      3.6967676190     4.9714536840    15.0198461330
Ni      3.6859144660     0.7093535490     9.0128649340
Ni      2.4573019230    -0.0000011100    11.0189462060
Ni      4.9212127460     1.4223897070    13.0276202510
Ni      3.6966160050     0.7152787130    15.0204940950
Ni      4.9145514370     2.8374169220     9.0128649340
Ni      3.6859511800     2.1280835430    11.0189462060
Ni      6.1494102800     3.5503628350    13.0279816350
Ni      4.9255624130     2.8437736980    15.0200052340
Ni      6.1432252670     4.9655441370     9.0128649340
Ni      4.9146004370     4.2561681970    11.0189462060
Ni      7.3781196110     5.6789367880    13.0280595390
Ni      6.1545735900     4.9715622540    15.0193609870
Ni      6.1432636120     0.7093535490     9.0128649340
Ni      4.9146019230    -0.0000011100    11.0189462060
Ni      7.3789582730     1.4221866730    13.0277506190
Ni      6.1537906650     0.7157666040    15.0198461880
Ni      7.3719005830     2.8374169220     9.0128649340
Ni      6.1432511800     2.1280835430    11.0189462060
Ni      8.6071640600     3.5501702390    13.0280595260
Ni      7.3827869000     2.8442350780    15.0193609080
Ni      8.6005744130     4.9655441370     9.0128649340
Ni      7.3719004370     4.2561681970    11.0189462060
Ni      9.8358884290     5.6787529240    13.0281948130
Ni      8.6117605830     4.9720020900    15.0186578060
Cu     -0.0029539659    -0.0011465848    23.3360524772
Cu      1.2110850661     2.1273722555    23.3265667592
Cu      2.4458645999     4.2728618437    23.3254002644
Cu      2.4487887929    -0.0167800163    23.3263107587
Cu      0.0125040740     0.0072168940    17.0980434560
Cu      2.4664496225     1.4245080328    19.1876609095
Cu      1.2333157374     0.7123077006    21.2797781051
Cu      3.6829593413     2.1513758372    23.2397697769
Cu      1.2411159100     2.1352155180    17.0978014380
Cu      3.6949738624     3.5508624505    19.1876592277
Cu      2.4602073796     2.8400774518    21.2784905900
Cu      4.9213240182     4.2724462006    23.3216794984
Cu      4.9240820268    -0.0203237957    23.3232144942
Cu      2.4697108070     0.0072275920    17.0978015350
Cu      4.9230819683     1.4246743574    19.1883969361
Cu      3.6894607258     0.7123191517    21.2786744962
Cu      6.1587691175     2.1244921187    23.3236263208
Cu      3.6983605790     2.1352480720    17.0975611220
Cu      6.1522363955     3.5516978322    19.1900001457
Cu      4.9187305318     2.8399635091    21.2762116364
Cu      7.3691113110     4.2555755011    23.3403859435
Cu      2.4699760600     4.2628774400    17.0985397210
Cu      4.9230919896     5.6802220358    19.1907625253
Cu      3.6890799909     4.9657457882    21.2788096104
Cu      4.9270970170     4.2630879460    17.0982970610
Cu      7.3805300290     5.6800628465    19.1910855976
Cu      6.1464461091     4.9662689013    21.2778621481
Cu      4.9267502260     0.0076215920    17.0985396480
Cu      7.3808473723     1.4237267057    19.1904286504
Cu      6.1455528523     0.7121107443    21.2780631514
Cu      6.1554922450     2.1354459510    17.0982970840
Cu      8.6094660463     3.5511725790    19.1898032631
Cu      7.3749417196     2.8399121394    21.2791825983
Cu      7.3842970870     4.2633253690    17.0989758590
Cu      9.8380650945     5.6800276032    19.1911115730
Cu      8.6034259408     4.9658535609    21.2768895274
O       4.2213023947     0.7522810282    27.5003704290
O       3.6966369158     2.0900166451    25.2146602801
O       3.7190434469     2.1043381134    29.9598711053
C       3.7369588995     2.1104665997    27.5586143974
C       4.2195826494     2.8432052035    26.3172603424
C       4.2142969280     2.8064366810    28.8177299938
H       2.6356936809     2.0296241364    27.5408015296
H       5.3129284385     2.8549107922    26.2388548469
H       3.8275844036     3.8649501340    26.2240044738
H       3.8651094297     3.8587913686    28.8304623508
H       5.3222116617     2.8004697265    28.8281489153
H       5.1890629674     0.8149161276    27.5184452636
H       4.0716074392     1.1802290824    25.2235636156
H       4.0688803474     2.5825359458    30.7305779726
86
Step 3 | ATOMIC_POSITIONS (angstrom) | Cartesian Angstrom
Ni      1.2286390390     0.7093535490     9.0128649340
Ni      0.0000019230    -0.0000011100    11.0189462060
Ni      2.4642244780     1.4227189880    13.0272881070
Ni      1.2387561530     0.7151941710    15.0209755470
Ni      2.4572760100     2.8374169220     9.0128649340
Ni      1.2286511800     2.1280835430    11.0189462060
Ni      3.6924327390     3.5506983320    13.0276201530
Ni      2.4677586240     2.8437215940    15.0204940710
Ni      3.6859498400     4.9655441370     9.0128649340
Ni      2.4573004370     4.2561681970    11.0189462060
Ni      4.9211289880     5.6792703610    13.0277505390
Ni      3.6967676190     4.9714536840    15.0198461330
Ni      3.6859144660     0.7093535490     9.0128649340
Ni      2.4573019230    -0.0000011100    11.0189462060
Ni      4.9212127460     1.4223897070    13.0276202510
Ni      3.6966160050     0.7152787130    15.0204940950
Ni      4.9145514370     2.8374169220     9.0128649340
Ni      3.6859511800     2.1280835430    11.0189462060
Ni      6.1494102800     3.5503628350    13.0279816350
Ni      4.9255624130     2.8437736980    15.0200052340
Ni      6.1432252670     4.9655441370     9.0128649340
Ni      4.9146004370     4.2561681970    11.0189462060
Ni      7.3781196110     5.6789367880    13.0280595390
Ni      6.1545735900     4.9715622540    15.0193609870
Ni      6.1432636120     0.7093535490     9.0128649340
Ni      4.9146019230    -0.0000011100    11.0189462060
Ni      7.3789582730     1.4221866730    13.0277506190
Ni      6.1537906650     0.7157666040    15.0198461880
Ni      7.3719005830     2.8374169220     9.0128649340
Ni      6.1432511800     2.1280835430    11.0189462060
Ni      8.6071640600     3.5501702390    13.0280595260
Ni      7.3827869000     2.8442350780    15.0193609080
Ni      8.6005744130     4.9655441370     9.0128649340
Ni      7.3719004370     4.2561681970    11.0189462060
Ni      9.8358884290     5.6787529240    13.0281948130
Ni      8.6117605830     4.9720020900    15.0186578060
Cu     -0.0036407948    -0.0013055282    23.3384544900
Cu      1.2062522920     2.1272937827    23.3245342995
Cu      2.4426900919     4.2794287204    23.3228668448
Cu      2.4473585681    -0.0207572469    23.3237932332
Cu      0.0125040740     0.0072168940    17.0980434560
Cu      2.4663424646     1.4245951671    19.1863152540
Cu      1.2336188735     0.7124902116    21.2789590514
Cu      3.6845451246     2.1600902931    23.2267942901
Cu      1.2411159100     2.1352155180    17.0978014380
Cu      3.6947076467     3.5505078987    19.1860521411
Cu      2.4575420302     2.8416770721    21.2732327328
Cu      4.9251762057     4.2791809835    23.3175699184
Cu      4.9274019473    -0.0252141668    23.3190862326
Cu      2.4697108070     0.0072275920    17.0978015350
Cu      4.9227628794     1.4246828521    19.1871467115
Cu      3.6895299256     0.7105397812    21.2746432355
Cu      6.1643484486     2.1238010291    23.3204851704
Cu      3.6983605790     2.1352480720    17.0975611220
Cu      6.1521133681     3.5515187048    19.1894240786
Cu      4.9215255098     2.8415001001    21.2701354017
Cu      7.3694382522     4.2560571750    23.3452253223
Cu      2.4699760600     4.2628774400    17.0985397210
Cu      4.9228472913     5.6804181302    19.1910921422
Cu      3.6890369474     4.9654558246    21.2772139719
Cu      4.9270970170     4.2630879460    17.0982970610
Cu      7.3803769293     5.6801013637    19.1912786391
Cu      6.1473401582     4.9658929953    21.2754059013
Cu      4.9267502260     0.0076215920    17.0985396480
Cu      7.3809418263     1.4235407610    19.1906021064
Cu      6.1454096704     0.7123114929    21.2762084095
Cu      6.1554922450     2.1354459510    17.0982970840
Cu      8.6094333266     3.5508435687    19.1893635920
Cu      7.3751905536     2.8408096421    21.2775176529
Cu      7.3842970870     4.2633253690    17.0989758590
Cu      9.8382193002     5.6801034168    19.1916246450
Cu      8.6030112197     4.9651668932    21.2739893340
O       4.2147235344     0.7509789851    27.4958015300
O       3.6770017279     2.0769749923    25.2257802389
O       3.7165653083     2.1062954026    29.9641535092
C       3.7453709361     2.1095836538    27.5707996119
C       4.2155125625     2.8440201730    26.3259065282
C       4.2139064334     2.8080430398    28.8257317151
H       2.6443363322     2.0309966126    27.5419300098
H       5.3212361084     2.8627524142    26.2440319327
H       3.8268745031     3.8684184417    26.2205421461
H       3.8670407064     3.8612032564    28.8242853451
H       5.3241858085     2.8056510816    28.8221031551
H       5.1945676429     0.8084838831    27.5206480967
H       4.0714985787     1.1697819938    25.2415583631
H       4.0647342864     2.5773241439    30.7341927989
86
Step 4 | ATOMIC_POSITIONS (angstrom) | Cartesian Angstrom
Ni      1.2286390390     0.7093535490     9.0128649340
Ni      0.0000019230    -0.0000011100    11.0189462060
Ni      2.4642244780     1.4227189880    13.0272881070
Ni      1.2387561530     0.7151941710    15.0209755470
Ni      2.4572760100     2.8374169220     9.0128649340
Ni      1.2286511800     2.1280835430    11.0189462060
Ni      3.6924327390     3.5506983320    13.0276201530
Ni      2.4677586240     2.8437215940    15.0204940710
Ni      3.6859498400     4.9655441370     9.0128649340
Ni      2.4573004370     4.2561681970    11.0189462060
Ni      4.9211289880     5.6792703610    13.0277505390
Ni      3.6967676190     4.9714536840    15.0198461330
Ni      3.6859144660     0.7093535490     9.0128649340
Ni      2.4573019230    -0.0000011100    11.0189462060
Ni      4.9212127460     1.4223897070    13.0276202510
Ni      3.6966160050     0.7152787130    15.0204940950
Ni      4.9145514370     2.8374169220     9.0128649340
Ni      3.6859511800     2.1280835430    11.0189462060
Ni      6.1494102800     3.5503628350    13.0279816350
Ni      4.9255624130     2.8437736980    15.0200052340
Ni      6.1432252670     4.9655441370     9.0128649340
Ni      4.9146004370     4.2561681970    11.0189462060
Ni      7.3781196110     5.6789367880    13.0280595390
Ni      6.1545735900     4.9715622540    15.0193609870
Ni      6.1432636120     0.7093535490     9.0128649340
Ni      4.9146019230    -0.0000011100    11.0189462060
Ni      7.3789582730     1.4221866730    13.0277506190
Ni      6.1537906650     0.7157666040    15.0198461880
Ni      7.3719005830     2.8374169220     9.0128649340
Ni      6.1432511800     2.1280835430    11.0189462060
Ni      8.6071640600     3.5501702390    13.0280595260
Ni      7.3827869000     2.8442350780    15.0193609080
Ni      8.6005744130     4.9655441370     9.0128649340
Ni      7.3719004370     4.2561681970    11.0189462060
Ni      9.8358884290     5.6787529240    13.0281948130
Ni      8.6117605830     4.9720020900    15.0186578060
Cu     -0.0039805164    -0.0012312134    23.3409463446
Cu      1.2036367992     2.1273772332    23.3220368249
Cu      2.4404498051     4.2845325320    23.3199867467
Cu      2.4475113690    -0.0220617462    23.3204990473
Cu      0.0125040740     0.0072168940    17.0980434560
Cu      2.4661558332     1.4245278266    19.1844410675
Cu      1.2338454047     0.7125507911    21.2782546240
Cu      3.6870048037     2.1672916411    23.2253595727
Cu      1.2411159100     2.1352155180    17.0978014380
Cu      3.6943985667     3.5503553415    19.1838048233
Cu      2.4541865897     2.8436402828    21.2661391314
Cu      4.9284396516     4.2845490233    23.3131606179
Cu      4.9291239674    -0.0270942183    23.3141212591
Cu      2.4697108070     0.0072275920    17.0978015350
Cu      4.9225056838     1.4245136191    19.1852702584
Cu      3.6896042900     0.7083702807    21.2695060579
Cu      6.1675805026     2.1234024498    23.3171021540
Cu      3.6983605790     2.1352480720    17.0975611220
Cu      6.1521500399     3.5514563080    19.1881779185
Cu      4.9249874724     2.8433877642    21.2622148336
Cu      7.3698246563     4.2564388488    23.3504929396
Cu      2.4699760600     4.2628774400    17.0985397210
Cu      4.9226082352     5.6805516395    19.1911067707
Cu      3.6890099740     4.9654226331    21.2753458213
Cu      4.9270970170     4.2630879460    17.0982970610
Cu      7.3802208069     5.6800133017    19.1908038326
Cu      6.1487400796     4.9656603448    21.2723330533
Cu      4.9267502260     0.0076215920    17.0985396480
Cu      7.3809839908     1.4233611707    19.1904759578
Cu      6.1454647861     0.7123963326    21.2741139953
Cu      6.1554922450     2.1354459510    17.0982970840
Cu      8.6091992692     3.5506577815    19.1882131594
Cu      7.3755485109     2.8419739243    21.2753954577
Cu      7.3842970870     4.2633253690    17.0989758590
Cu      9.8383084244     5.6801327412    19.1917296230
Cu      8.6021915433     4.9644554635    21.2704336448
O       4.2196401793     0.7523561240    27.4939495400
O       3.6609563655     2.0647802334    25.2365864309
O       3.7141796110     2.1091751106    29.9662130931
C       3.7517102148     2.1102600310    27.5785563409
C       4.2118338687     2.8428016595    26.3258388265
C       4.2154946272     2.8101159610    28.8327339968
H       2.6527492852     2.0329254412    27.5453301684
H       5.3229776407     2.8709948483    26.2491233180
H       3.8270016084     3.8669710940    26.2181406378
H       3.8697631097     3.8606831563    28.8183549969
H       5.3252926037     2.8118088645    28.8186961747
H       5.1916602835     0.7983484536    27.5232237911
H       4.0687379810     1.1615147494    25.2635308048
H       4.0610464884     2.5728137019    30.7442710977
