72
Step 1 | ATOMIC_POSITIONS (angstrom) | Cartesian Angstrom
Ni      0.0000000000     0.0000000000    10.0000000900
Ni      8.6005476670     2.1280836470    10.0000000900
Ni      9.8291973330     4.2561672950    10.0000000900
Ni      2.4572993330     0.0000000000    10.0000000900
Ni      3.6859490000     2.1280836470    10.0000000900
Ni      4.9145986670     4.2561672950    10.0000000900
Ni      4.9145986670     0.0000000000    10.0000000900
Ni      6.1432483330     2.1280836470    10.0000000900
Ni      7.3718980000     4.2561672950    10.0000000900
Ni      1.6381995390     1.4187224170    12.0063763950
Ni      2.8668492300     3.5468061070    12.0063763950
Ni      4.0954988850     5.6748897330    12.0063763950
Ni      4.0954988480     1.4187224170    12.0063763950
Ni      5.3241485390     3.5468061070    12.0063763950
Ni      6.5527981940     5.6748897330    12.0063763950
Ni      6.5527982300     1.4187224170    12.0063763950
Ni      7.7814479220     3.5468061070    12.0063763950
Ni      9.0100975760     5.6748897330    12.0063763950
Ni      2.0470853100     0.7105308283    14.0105095177
Ni      3.2757147993     2.8385966189    14.0105158920
Ni      4.5043846606     4.9666963710    14.0105221983
Ni      4.5043711033     0.7105151595    14.0105128329
Ni      5.7330402739     2.8386025601    14.0105169040
Ni      6.9616888551     4.9666955068    14.0105077653
Ni      6.9616745039     0.7105370960    14.0105119039
Ni      8.1903255601     2.8386114078    14.0105067746
Ni      9.4189554959     4.9666906769    14.0105135353
Ni     -0.0005735678     0.0009950643    16.0125326552
Ni      8.5999758716     2.1290742721    16.0125234065
Ni      9.8286175240     4.2571565523    16.0125289586
Ni      2.4567338119     0.0009913119    16.0125242674
Ni      3.6853747892     2.1290670762    16.0125270217
Ni      4.9140322578     4.2571564560    16.0125355308
Ni      4.9140242720     0.0009870874    16.0125260876
Ni      6.1426803829     2.1290705994    16.0125287437
Ni      7.3713304978     4.2571597415    16.0125206135
Cu      1.6386981208     1.4178586010    18.0219027529
Cu      2.8673456057     3.5459422889    18.0219048318
Cu      4.0959966692     5.6740280263    18.0219055297
Cu      4.0959977634     1.4178557950    18.0219033951
Cu      5.3246490370     3.5459413555    18.0219071445
Cu      6.5532990509     5.6740270253    18.0219025075
Cu      6.5532969805     1.4178578494    18.0219034027
Cu      7.7819472451     3.5459429392    18.0219024723
Cu      9.0105948207     5.6740267582    18.0219010204
Cu      2.0478325932     0.7092172256    20.0323810197
Cu      3.2764820112     2.8373006111    20.0323814935
Cu      4.5051318324     4.9653848214    20.0323815600
Cu      4.5051320812     0.7092168518    20.0323808189
Cu      5.7337819038     2.8373004943    20.0323814617
Cu      6.9624316978     4.9653846938    20.0323810066
Cu      6.9624310188     0.7092172518    20.0323808545
Cu      8.1910808488     2.8373009352    20.0323809675
Cu      9.4197301579     4.9653848030    20.0323806647
Cu      0.0007192547    -0.0012458841    22.0397323460
Cu      8.6012670120     2.1268377091    22.0397322541
Cu      9.8299166247     4.2549214462    22.0397325417
Cu      2.4580186259    -0.0012459149    22.0397323123
Cu      3.6866683368     2.1268376858    22.0397323913
Cu      4.9153179669     4.2549214755    22.0397326740
Cu      4.9153179522    -0.0012459170    22.0397325068
Cu      6.1439677321     2.1268377687    22.0397322029
Cu      7.3726173772     4.2549213595    22.0397322148
Cu      1.6472627421     1.4030244086    24.0801162242
Cu      2.8759125443     3.5311083099    24.0801161873
Cu      4.1045620618     5.6591917753    24.0801160747
Cu      4.1045620362     1.4030243349    24.0801160474
Cu      5.3332117485     3.5311079528    24.0801160184
Cu      6.5618614019     5.6591918488    24.0801162058
Cu      6.5618613587     1.4030245348    24.0801162752
Cu      7.7905111000     3.5311081482    24.0801161507
Cu      9.0191606138     5.6591918161    24.0801157616
