72
Step 1 | ATOMIC_POSITIONS (crystal) | Cartesian Angstrom
Ni      1.2286420027     0.7093562278     8.0127033495
Ni      0.0000022775     0.0000000000    10.0192033545
Ni      2.4573546267     1.4186677249    12.0256432164
Ni      1.2331660888     0.7118678092    14.0277243422
Ni      2.4572821841     2.8374249112     8.0127033495
Ni      1.2286424588     2.1280686834    10.0192033545
Ni      3.6861478976     3.5469393349    12.0253388654
Ni      2.4634965516     2.8409971694    14.0267999414
Ni      3.6859592251     4.9655574374     8.0127033495
Ni      2.4573194998     4.2562012095    10.0192033545
Ni      4.9147587635     5.6748780339    12.0252557223
Ni      3.6936505819     4.9676295268    14.0206142525
Ni      3.6859223655     0.7093562278     8.0127033495
Ni      2.4572826402     0.0000000000    10.0192033545
Ni      4.9147104288     1.4187989452    12.0253558884
Ni      3.6920832062     0.7128739209    14.0267911656
Ni      4.9145625469     2.8374249112     8.0127033495
Ni      3.6859228216     2.1280686834    10.0192033545
Ni      6.1433349864     3.5469739325    12.0250718747
Ni      4.9224952646     2.8420507387    14.0253791987
Ni      6.1432395878     4.9655574374     8.0127033495
Ni      4.9145998625     4.2562012095    10.0192033545
Ni      7.3720648486     5.6749719587    12.0250671204
Ni      6.1525513892     4.9688128934    14.0188211316
Ni      6.1432764474     0.7093562278     8.0127033495
Ni      4.9146367221     0.0000000000    10.0192033545
Ni      7.3719931089     1.4187666862    12.0252768672
Ni      6.1488715398     0.7149070677    14.0206399086
Ni      7.3719166287     2.8374249112     8.0127033495
Ni      6.1432769035     2.1280686834    10.0192033545
Ni      8.6007255309     3.5470122630    12.0250706067
Ni      7.3793470655     2.8439340894    14.0188542403
Ni      8.6005936697     4.9655574374     8.0127033495
Ni      7.3719539444     4.2562012095    10.0192033545
Ni      9.8295018837     5.6750378686    12.0249402507
Ni      8.6093866945     4.9706869064    14.0117579111
Cu      0.1341173075     0.0774296281    22.2484653807
Cu      1.3942088440     2.2469698367    22.2417029309
Cu      2.6567627160     4.4135376856    22.2434551045
Cu      2.6430383289     0.0839317331    22.2417025125
Cu      0.1353770893     0.0781220526    16.0319271268
Cu      2.6632731771     1.5376347644    18.1031205934
Cu      1.4002264372     0.8084178244    20.1796900790
Cu      3.9032837402     2.2535609077    22.2350858720
Cu      1.3899645194     2.2469505676    16.0409375442
Cu      3.9230606227     3.7071322654    18.1036530700
Cu      2.6604729889     2.9759663738    20.1743840622
Cu      5.1631682542     4.4247384907    22.2365264981
Cu      5.1506169505     0.0940520688    22.2434552277
Cu      2.6409071352     0.0802271883    16.0408767947
Cu      5.1719936936     1.5439015107    18.1036560633
Cu      3.9074983237     0.8160509583    20.1743831638
Cu      6.4135200664     2.2590647440    22.2365268127
Cu      3.8961460016     2.2494318888    16.0472095513
Cu      6.4319299225     3.7134851260    18.1040816768
Cu      5.1677548573     2.9836053040    20.1691740278
Cu      7.6732648565     4.4301615308    22.2380168830
Cu      2.6505612626     4.4113108401    16.0429384888
Cu      5.1833053107     5.8706775309    18.1029527538
Cu      3.9234670089     5.1386571322    20.1688313174
Cu      5.1539718280     4.4185011592    16.0496757204
Cu      7.6892897901     5.8817185690    18.1036371626
Cu      6.4279772405     5.1511444398    20.1637410860
Cu      5.1455479983     0.0897822052    16.0429351744
Cu      7.6758101756     1.5535274581    18.1029649478
Cu      6.4119403424     0.8284908583    20.1688327768
Cu      6.4034785227     2.2542319845    16.0497341350
Cu      8.9383645338     3.7182686832    18.1036461135
Cu      7.6750095026     2.9912205397    20.1637428892
Cu      7.6611172080     4.4231924478    16.0529707424
Cu     10.1950362379     5.8861049538    18.1062358315
Cu      8.9351183104     5.1586938601    20.1581250459
72
Step 2 | ATOMIC_POSITIONS (crystal) | Cartesian Angstrom
Ni      1.2286420027     0.7093562278     8.0127033495
Ni      0.0000022775     0.0000000000    10.0192033545
Ni      2.4576315444     1.4188768429    12.0246100814
Ni      1.2422673671     0.7171604959    14.0194717766
Ni      2.4572821841     2.8374249112     8.0127033495
Ni      1.2286424588     2.1280686834    10.0192033545
Ni      3.6865500919     3.5468642278    12.0234255264
Ni      2.4737901101     2.8465177868    14.0191552348
Ni      3.6859592251     4.9655574374     8.0127033495
Ni      2.4573194998     4.2562012095    10.0192033545
Ni      4.9153116562     5.6754440371    12.0229811711
Ni      3.7050634271     4.9718034891    14.0082232799
Ni      3.6859223655     0.7093562278     8.0127033495
Ni      2.4572826402     0.0000000000    10.0192033545
Ni      4.9148678667     1.4192229961    12.0234494345
Ni      3.7020147196     0.7190669130    14.0191653403
Ni      4.9145625469     2.8374249112     8.0127033495
Ni      3.6859228216     2.1280686834    10.0192033545
Ni      6.1435760360     3.5470831552    12.0222121112
Ni      4.9338477910     2.8486063937    14.0181419572
Ni      6.1432395878     4.9655574374     8.0127033495
Ni      4.9145998625     4.2562012095    10.0192033545
Ni      7.3724640750     5.6757460035    12.0217867734
Ni      6.1647922103     4.9739911153    14.0070668068
Ni      6.1432764474     0.7093562278     8.0127033495
Ni      4.9146367221     0.0000000000    10.0192033545
Ni      7.3727800912     1.4190046202    12.0230248458
Ni      6.1582297000     0.7227233740    14.0082591841
Ni      7.3719166287     2.8374249112     8.0127033495
Ni      6.1432769035     2.1280686834    10.0192033545
Ni      8.6016132912     3.5469333247    12.0218062838
Ni      7.3899816467     2.8519288494    14.0070956120
Ni      8.6005936697     4.9655574374     8.0127033495
Ni      7.3719539444     4.2562012095    10.0192033545
Ni      9.8306119067     5.6756537527    12.0214031871
Ni      8.6209341501     4.9773167160    13.9962576515
Cu      0.1636491251     0.0944798870    22.2644111598
Cu      1.4185867226     2.2407752421    22.2520928876
Cu      2.6753485973     4.3837816909    22.2545534235
Cu      2.6498626562     0.1081407179    22.2520926378
Cu      0.1624031275     0.0937365122    16.0282499748
Cu      2.6900955208     1.5531206103    18.1045695122
Cu      1.4295500683     0.8253476568    20.1891320188
Cu      3.9043006588     2.2541477875    22.2394134874
Cu      1.4064917908     2.2386578818    16.0434045177
Cu      3.9444658830     3.6984679110    18.1051995733
Cu      2.6849782379     2.9679791331    20.1796637062
Cu      5.1583330957     4.4021018762    22.2416341125
Cu      5.1341407831     0.1250259606    22.2545532418
Cu      2.6419820225     0.0987072473    16.0433720608
Cu      5.1751927195     1.5667701289    18.1052091955
Cu      3.9128342104     0.8412666908    20.1796633852
Cu      6.3914987515     2.2661954308    22.2416345990
Cu      3.8863009539     2.2437546251    16.0554749822
Cu      6.4293301272     3.7119830937    18.1058563574
Cu      5.1677536466     2.9836044185    20.1697986405
Cu      7.6455926627     4.4141848961    22.2436502866
Cu      2.6596395888     4.3784750736    16.0460071658
Cu      5.1955392255     5.8381013750    18.1044367887
Cu      3.9423925089     5.1057719381    20.1702929134
Cu      5.1366645765     4.3883106958    16.0583827272
Cu      7.6776742856     5.8561315383    18.1052877853
Cu      6.4224924721     5.1258812716    20.1603486092
Cu      5.1216671123     0.1140637415    16.0460279670
Cu      7.6537138859     1.5804108806    18.1044512496
Cu      6.3929235110     0.8613235840    20.1702944830
Cu      6.3687058218     2.2543405963    16.0584337151
Cu      8.9103979634     3.7210024748    18.1052902404
Cu      7.6503885869     2.9991020664    20.1603502048
Cu      7.6197066874     4.3992582215    16.0624715345
Cu     10.1587435852     5.8651524465    18.1084796219
Cu      8.9053724670     5.1415202577    20.1511747401
72
Step 3 | ATOMIC_POSITIONS (crystal) | Cartesian Angstrom
Ni      1.2286420027     0.7093562278     8.0127033495
Ni      0.0000022775     0.0000000000    10.0192033545
Ni      2.4585920870     1.4194516385    12.0221683165
Ni      1.2537150839     0.7237781147    14.0099468300
Ni      2.4572821841     2.8374249112     8.0127033495
Ni      1.2286424588     2.1280686834    10.0192033545
Ni      3.6875928511     3.5466525094    12.0200822245
Ni      2.4853515925     2.8524421754    14.0116244968
Ni      3.6859592251     4.9655574374     8.0127033495
Ni      2.4573194998     4.2562012095    10.0192033545
Ni      4.9166021444     5.6764302153    12.0191197240
Ni      3.7169126234     4.9773615291    14.0000126929
Ni      3.6859223655     0.7093562278     8.0127033495
Ni      2.4572826402     0.0000000000    10.0192033545
Ni      4.9151945951     1.4202577062    12.0201102870
Ni      3.7129125916     0.7261383563    14.0116462936
Ni      4.9145625469     2.8374249112     8.0127033495
Ni      3.6859228216     2.1280686834    10.0192033545
Ni      6.1440246053     3.5473616645    12.0179227058
Ni      4.9450348046     2.8550832789    14.0126428337
Ni      6.1432395878     4.9655574374     8.0127033495
Ni      4.9145998625     4.2562012095    10.0192033545
Ni      7.3731485485     5.6772811925    12.0169812723
Ni      6.1762221742     4.9800524778    14.0011457995
Ni      6.1432764474     0.7093562278     8.0127033495
Ni      4.9146367221     0.0000000000    10.0192033545
Ni      7.3743088419     1.4196274377    12.0191905012
Ni      6.1689936068     0.7302007681    14.0000755472
Ni      7.3719166287     2.8374249112     8.0127033495
Ni      6.1432769035     2.1280686834    10.0192033545
Ni      8.6033154243     3.5467553919    12.0170219602
Ni      7.4009685525     2.8588026664    14.0011860495
Ni      8.6005936697     4.9655574374     8.0127033495
Ni      7.3719539444     4.2562012095    10.0192033545
Ni      9.8325976329     5.6767710465    12.0161838289
Ni      8.6322710517     4.9838348947    13.9905782739
Cu      0.1868555970     0.1078782203    22.2771067494
Cu      1.4367262646     2.2384934524    22.2628027297
Cu      2.6870979010     4.3659661004    22.2645622197
Cu      2.6569562375     0.1249910004    22.2628026357
Cu      0.1791301962     0.1033937227    16.0290188304
Cu      2.7080549543     1.5634920145    18.1079939561
Cu      1.4508124383     0.8376235053    20.1936498577
Cu      3.9059744916     2.2551141617    22.2477768013
Cu      1.4152768022     2.2321679222    16.0449634258
Cu      3.9571613087     3.6921109696    18.1080710606
Cu      2.7013203211     2.9643357344    20.1827799172
Cu      5.1546215942     4.3859225172    22.2493231100
Cu      5.1245863876     0.1441091071    22.2645622586
Cu      2.6407377833     0.1095618002    16.0449525647
Cu      5.1760352279     1.5809446273    18.1080884468
Cu      3.9178498272     0.8572414690    20.1827813474
Cu      6.3756313328     2.2710709426    22.2493236905
Cu      3.8765069969     2.2381146136    16.0587979012
Cu      6.4247558491     3.7093419691    18.1082629251
Cu      5.1677476252     2.9836011951    20.1713025069
Cu      7.6243808478     4.4019382920    22.2503891268
Cu      2.6614706686     4.3573954721    16.0464981632
Cu      5.1994355533     5.8184980676    18.1070898312
Cu      3.9524752688     5.0877693740    20.1733639740
Cu      5.1209708426     4.3660788044    16.0602011799
Cu      7.6655607981     5.8383865335    18.1074493472
Cu      6.4171791751     5.1097196379    20.1616216908
Cu      5.1043416043     0.1261823549    16.0465421914
Cu      7.6386861914     1.5935882352    18.1071065818
Cu      6.3823745043     0.8790568104    20.1733668085
Cu      6.3416162553     2.2518702152    16.0602588518
Cu      8.8889757707     3.7193834010    18.1074453031
Cu      7.6337357704     3.0025817431    20.1616227448
Cu      7.5869736773     4.3803481552    16.0630629347
Cu     10.1303763227     5.8487735019    18.1094461471
Cu      8.8834698490     5.1288744574    20.1525391893
72
Step 4 | ATOMIC_POSITIONS (crystal) | Cartesian Angstrom
Ni      1.2286420027     0.7093562278     8.0127033495
Ni      0.0000022775     0.0000000000    10.0192033545
Ni      2.4598695938     1.4202365481    12.0189557014
Ni      1.2625927094     0.7289782724    14.0037254476
Ni      2.4572821841     2.8374249112     8.0127033495
Ni      1.2286424588     2.1280686834    10.0192033545
Ni      3.6888558433     3.5471378920    12.0167296475
Ni      2.4936462636     2.8571080411    14.0070479547
Ni      3.6859592251     4.9655574374     8.0127033495
Ni      2.4573194998     4.2562012095    10.0192033545
Ni      4.9181475320     5.6772986305    12.0153440144
Ni      3.7249900129     4.9823507939    13.9972949151
Ni      3.6859223655     0.7093562278     8.0127033495
Ni      2.4572826402     0.0000000000    10.0192033545
Ni      4.9163964291     1.4210689624    12.0167374828
Ni      3.7211811418     0.7310193133    14.0070592310
Ni      4.9145625469     2.8374249112     8.0127033495
Ni      3.6859228216     2.1280686834    10.0192033545
Ni      6.1453851983     3.5479774733    12.0144315677
Ni      4.9527960506     2.8594731278    14.0098669429
Ni      6.1432395878     4.9655574374     8.0127033495
Ni      4.9145998625     4.2562012095    10.0192033545
Ni      7.3746922995     5.6782049861    12.0131162059
Ni      6.1839217844     4.9847509059    14.0002336057
Ni      6.1432764474     0.7093562278     8.0127033495
Ni      4.9146367221     0.0000000000    10.0192033545
Ni      7.3757270570     1.4206392723    12.0153691905
Ni      6.1773386826     0.7347854011    13.9972893369
Ni      7.3719166287     2.8374249112     8.0127033495
Ni      6.1432769035     2.1280686834    10.0192033545
Ni      8.6047816589     3.5475220891    12.0131288540
Ni      7.4088722664     2.8630379483    14.0002180097
Ni      8.6005936697     4.9655574374     8.0127033495
Ni      7.3719539444     4.2562012095    10.0192033545
Ni      9.8341897786     5.6778137976    12.0118649730
Ni      8.6400385548     4.9883355087    13.9915413517
Cu      0.1984487437     0.1145716019    22.2838657130
Cu      1.4444824600     2.2400699955    22.2705385964
Cu      2.6905864164     4.3620384758    22.2710424915
Cu      2.6621999018     0.1309196741    22.2705383921
Cu      0.1835933049     0.1060043049    16.0317825628
Cu      2.7138546845     1.5668400673    18.1115714999
Cu      1.4599948598     0.8429248951    20.1941230635
Cu      3.9075116215     2.2560014468    22.2564625172
Cu      1.4155979048     2.2293905139    16.0453103489
Cu      3.9590698528     3.6900421208    18.1108389182
Cu      2.7066319072     2.9654038336    20.1840770236
Cu      5.1524476285     4.3802964228    22.2566780206
Cu      5.1229288472     0.1490939629    22.2710427964
Cu      2.6385085625     0.1112489399    16.0453213722
Cu      5.1752010411     1.5836293571    18.1108523446
Cu      3.9214311516     0.8613072147    20.1840791997
Cu      6.3696716703     2.2720015923    22.2566788703
Cu      3.8699511052     2.2343106556    16.0575431982
Cu      6.4201069251     3.7066538653    18.1101862787
Cu      5.1676814359     2.9835624496    20.1735836999
Cu      7.6146239978     4.3963053569    22.2562643255
Cu      2.6576586508     4.3506469037    16.0454203643
Cu      5.1964738259     5.8132708662    18.1094101359
Cu      3.9534680501     5.0852650439    20.1768779500
Cu      5.1109562280     4.3570487673    16.0572247591
Cu      7.6567359522     5.8315792483    18.1089992169
Cu      6.4131836886     5.1054289278    20.1660937243
Cu      5.0966051927     0.1262815569    16.0454393396
Cu      7.6326752115     1.5936392456    18.1094197970
Cu      6.3807015670     0.8811688418    20.1768807553
Cu      6.3287995836     2.2476849764    16.0572385942
Cu      8.8786642595     3.7151429076    18.1089924356
Cu      7.6280214324     3.0012670317    20.1660941200
Cu      7.5704193722     4.3707790029    16.0583692879
Cu     10.1158990270     5.8404194779    18.1096971558
Cu      8.8736815894     5.1232235882    20.1591870056
72
Step 5 | ATOMIC_POSITIONS (crystal) | Cartesian Angstrom
Ni      1.2286420027     0.7093562278     8.0127033495
Ni      0.0000022775     0.0000000000    10.0192033545
Ni      2.4623122346     1.4216604510    12.0142535350
Ni      1.2745637269     0.7359278279    13.9966522124
Ni      2.4572821841     2.8374249112     8.0127033495
Ni      1.2286424588     2.1280686834    10.0192033545
Ni      3.6912264230     3.5480825380    12.0123488551
Ni      2.5046653849     2.8631266852    14.0017101264
Ni      3.6859592251     4.9655574374     8.0127033495
Ni      2.4573194998     4.2562012095    10.0192033545
Ni      4.9208150903     5.6786345409    12.0103875702
Ni      3.7355418238     4.9892896379    13.9954485978
Ni      3.6859223655     0.7093562278     8.0127033495
Ni      2.4572826402     0.0000000000    10.0192033545
Ni      4.9184813914     1.4226160370    12.0123252356
Ni      3.7319381631     0.7375700191    14.0017073406
Ni      4.9145625469     2.8374249112     8.0127033495
Ni      3.6859228216     2.1280686834    10.0192033545
Ni      6.1475827545     3.5491624328    12.0104025760
Ni      4.9625213438     2.8650458816    14.0065095790
Ni      6.1432395878     4.9655574374     8.0127033495
Ni      4.9145998625     4.2562012095    10.0192033545
Ni      7.3771775166     5.6797063934    12.0085633611
Ni      6.1934541108     4.9912537055    14.0003751115
Ni      6.1432764474     0.7093562278     8.0127033495
Ni      4.9146367221     0.0000000000    10.0192033545
Ni      7.3781535652     1.4223330957    12.0103632470
Ni      6.1886201283     0.7404930827    13.9954064862
Ni      7.3719166287     2.8374249112     8.0127033495
Ni      6.1432769035     2.1280686834    10.0192033545
Ni      8.6072617894     3.5488731826    12.0085660269
Ni      7.4192671506     2.8680013019    14.0003413477
Ni      8.6005936697     4.9655574374     8.0127033495
Ni      7.3719539444     4.2562012095    10.0192033545
Ni      9.8367648161     5.6793738885    12.0066805720
Ni      8.6501336030     4.9941654535    13.9949829062
Cu      0.2105590664     0.1215631224    22.2913513817
Cu      1.4515105989     2.2439321034    22.2806359160
Cu      2.6922913509     4.3622821359    22.2792122999
Cu      2.6690588420     0.1350745684    22.2806359096
Cu      0.1849942343     0.1068277723    16.0361278045
Cu      2.7169374969     1.5686222842    18.1164605073
Cu      1.4684571246     0.8478107328    20.1937194674
Cu      3.9096018737     2.2572081332    22.2692313521
Cu      1.4125618565     2.2267743008    16.0451836835
Cu      3.9570540227     3.6888308498    18.1145345786
Cu      2.7099137864     2.9688430200    20.1857082980
Cu      5.1497495543     4.3768427767    22.2674298867
Cu      5.1239921715     0.1504484273    22.2792134253
Cu      2.6347292202     0.1099386215    16.0452097839
Cu      5.1731475364     1.5824899890    18.1145462018
Cu      3.9260508796     0.8624299652    20.1857118363
Cu      6.3653316113     2.2713919086    22.2674303602
Cu      3.8617034643     2.2295453548    16.0538715367
Cu      6.4131185417     3.7026155573    18.1126457152
Cu      5.1674681813     2.9834391438    20.1775447196
Cu      7.6053756684     4.3909660075    22.2648070990
Cu      2.6497278670     4.3464817779    16.0435105700
Cu      5.1891726637     5.8111164790    18.1125284353
Cu      3.9511793188     5.0878567012    20.1823120884
Cu      5.0985132785     4.3494586186    16.0514736411
Cu      7.6451404438     5.8256654531    18.1109945671
Cu      6.4077606256     5.1039152423    20.1738627548
Cu      5.0890432121     0.1215046068    16.0435179999
Cu      7.6271589584     1.5883967864    18.1125322233
Cu      6.3818017005     0.8778906890    20.1823155747
Cu      6.3160127462     2.2406942762    16.0514623032
Cu      8.8677441124     3.7080549246    18.1109845979
Cu      7.6239991434     2.9973273664    20.1738623592
Cu      7.5529695073     4.3606953620    16.0504401233
Cu     10.1001687855     5.8313385071    18.1100947036
Cu      8.8642439834     5.1177745449    20.1706660504
72
Step 6 | ATOMIC_POSITIONS (crystal) | Cartesian Angstrom
Ni      1.2286420027     0.7093562278     8.0127033495
Ni      0.0000022775     0.0000000000    10.0192033545
Ni      2.4675764138     1.4246956044    12.0055454223
Ni      1.2948076528     0.7476031381    13.9864431683
Ni      2.4572821841     2.8374249112     8.0127033495
Ni      1.2286424588     2.1280686834    10.0192033545
Ni      3.6964085936     3.5509001321    12.0049860573
Ni      2.5232539220     2.8739683616    13.9933500654
Ni      3.6859592251     4.9655574374     8.0127033495
Ni      2.4573194998     4.2562012095    10.0192033545
Ni      4.9263296911     5.6809860584    12.0025885379
Ni      3.7532913938     5.0021979861    13.9933884830
Ni      3.6859223655     0.7093562278     8.0127033495
Ni      2.4572826402     0.0000000000    10.0192033545
Ni      4.9235067978     1.4256956600    12.0049411762
Ni      3.7506050640     0.7482477967    13.9933356433
Ni      4.9145625469     2.8374249112     8.0127033495
Ni      3.6859228216     2.1280686834    10.0192033545
Ni      6.1526216781     3.5521028615    12.0044065949
Ni      4.9791950272     2.8746876090    14.0003163661
Ni      6.1432395878     4.9655574374     8.0127033495
Ni      4.9145998625     4.2562012095    10.0192033545
Ni      7.3824991924     5.6820943944    12.0022051527
Ni      6.2096068372     5.0029505562    14.0005314187
Ni      6.1432764474     0.7093562278     8.0127033495
Ni      4.9146367221     0.0000000000    10.0192033545
Ni      7.3829519682     1.4259088608    12.0025239096
Ni      6.2086741224     0.7493972366    13.9933563180
Ni      7.3719166287     2.8374249112     8.0127033495
Ni      6.1432769035     2.1280686834    10.0192033545
Ni      8.6120191285     3.5523073286    12.0021824608
Ni      7.4374783792     2.8761550481    14.0005107926
Ni      8.6005936697     4.9655574374     8.0127033495
Ni      7.3719539444     4.2562012095    10.0192033545
Ni      9.8417261021     5.6822276380    11.9998225320
Ni      8.6677596566     5.0043337236    14.0011242362
Cu      0.2280669588     0.1316712955    22.3036822404
Cu      1.4603849755     2.2521503090    22.2985455907
Cu      2.6923572577     4.3683759509    22.2939046992
Cu      2.6806133886     0.1386511003    22.2985463755
Cu      0.1824013693     0.1053295649    16.0426669838
Cu      2.7171070885     1.5687249311    18.1243928987
Cu      1.4793704174     0.8541121591    20.1939853230
Cu      3.9130919573     2.2592229986    22.2928577258
Cu      1.4036453811     2.2232824046    16.0437740775
Cu      3.9486780382     3.6880459945    18.1204402332
Cu      2.7120413748     2.9763086326    20.1902486505
Cu      5.1451597587     4.3752884681    22.2877717494
Cu      5.1293023825     0.1474582063    22.2939071023
Cu      2.6272377422     0.1039491140    16.0438015530
Cu      5.1682835229     1.5756317337    18.1204507927
Cu      3.9335799529     0.8605403209    20.1902545237
Cu      6.3616908760     2.2681948622    22.2877724434
Cu      3.8479954138     2.2216427657    16.0458077287
Cu      6.3999645670     3.6950188564    18.1165159836
Cu      5.1667372396     2.9830173773    20.1867915843
Cu      7.5934791639     4.3840971696    22.2815906916
Cu      2.6330347227     4.3440677954    16.0393684366
Cu      5.1731153517     5.8113109617    18.1177744648
Cu      3.9438342057     5.0976580967    20.1935843181
Cu      5.0779635688     4.3410607564    16.0403105997
Cu      7.6251655912     5.8177525668    18.1143188969
Cu      6.3981233851     5.1049895075    20.1898592980
Cu      5.0786201652     0.1082506563    16.0393673404
Cu      7.6193020317     1.5743973747    18.1177742410
Cu      6.3866183201     0.8666289793    20.1935895460
Cu      6.2984550560     2.2270912159    16.0403034001
Cu      8.8509048138     3.6947083977    18.1143076142
Cu      7.6201117027     2.9884441337    20.1898577122
Cu      7.5277803965     4.3461608004    16.0359620047
Cu     10.0760884227     5.8174345038    18.1111861170
Cu      8.8512391464     5.1102653321    20.1933048805
72
Step 7 | ATOMIC_POSITIONS (crystal) | Cartesian Angstrom
Ni      1.2286420027     0.7093562278     8.0127033495
Ni      0.0000022775     0.0000000000    10.0192033545
Ni      2.4748544858     1.4289759726    11.9966565559
Ni      1.3149790694     0.7593457499    13.9796588275
Ni      2.4572821841     2.8374249112     8.0127033495
Ni      1.2286424588     2.1280686834    10.0192033545
Ni      3.7034468486     3.5554421883    11.9984864534
Ni      2.5416763226     2.8854593752    13.9863765746
Ni      3.6859592251     4.9655574374     8.0127033495
Ni      2.4573194998     4.2562012095    10.0192033545
Ni      4.9335101477     5.6840603984    11.9962365562
Ni      3.7708237133     5.0160058621    13.9923465624
Ni      3.6859223655     0.7093562278     8.0127033495
Ni      2.4572826402     0.0000000000    10.0192033545
Ni      4.9311313072     1.4294951133    11.9983862160
Ni      3.7698503841     0.7585027339    13.9863470885
Ni      4.9145625469     2.8374249112     8.0127033495
Ni      3.6859228216     2.1280686834    10.0192033545
Ni      6.1601563587     3.5562496887    12.0003125273
Ni      4.9962957158     2.8844609782    13.9933146022
Ni      6.1432395878     4.9655574374     8.0127033495
Ni      4.9145998625     4.2562012095    10.0192033545
Ni      7.3900637603     5.6846547471    11.9982124220
Ni      6.2260324886     5.0151452293    13.9994812088
Ni      6.1432764474     0.7093562278     8.0127033495
Ni      4.9146367221     0.0000000000    10.0192033545
Ni      7.3891019586     1.4307330297    11.9960522546
Ni      6.2293915467     0.7577751244    13.9922233152
Ni      7.3719166287     2.8374249112     8.0127033495
Ni      6.1432769035     2.1280686834    10.0192033545
Ni      8.6179115706     3.5574382527    11.9981239505
Ni      7.4562476139     2.8841820558    13.9993858554
Ni      8.6005936697     4.9655574374     8.0127033495
Ni      7.3719539444     4.2562012095    10.0192033545
Ni      9.8475353208     5.6856990777    11.9957839278
Ni      8.6856533767     5.0146671586    14.0056085285
Cu      0.2427011072     0.1401204930    22.3162966360
Cu      1.4664844757     2.2619181871    22.3176635597
Cu      2.6898568804     4.3805642065    22.3103420173
Cu      2.6921225125     0.1390492897    22.3176648375
Cu      0.1741662251     0.1006122789    16.0478991004
Cu      2.7113622593     1.5654086119    18.1311365646
Cu      1.4871067759     0.8585795162    20.1966952233
Cu      3.9165190182     2.2612015758    22.3186369538
Cu      1.3907727725     2.2203371283    16.0413292220
Cu      3.9345865394     3.6879904322    18.1255597270
Cu      2.7111024813     2.9849053074    20.1977921533
Cu      5.1405418716     4.3785832180    22.3108903103
Cu      5.1386072341     0.1391986223    22.3103453252
Cu      2.6182754391     0.0943047365    16.0413751831
Cu      5.1611959724     1.5634536552    18.1255580762
Cu      3.9405564237     0.8554289275    20.1977985259
Cu      6.3622347811     2.2625481032    22.3108908130
Cu      3.8346511998     2.2139157472    16.0366251583
Cu      6.3846808748     3.6861872680    18.1200339161
Cu      5.1653349948     2.9822066982    20.1994256622
Cu      7.5859036201     4.3797235016    22.3019498107
Cu      2.6129286704     4.3453817509    16.0352610205
Cu      5.1529636853     5.8139330663    18.1231161654
Cu      3.9333621627     5.1118612087    20.2071747445
Cu      5.0580017532     4.3367415833    16.0294184375
Cu      7.6042996190     5.8106500902    18.1179806540
Cu      6.3877933632     5.1088869012    20.2085548934
Cu      5.0697188849     0.0902104199    16.0352149945
Cu      7.6114937793     1.5556397379    18.1231008937
Cu      6.3936824222     0.8504588698    20.2071793594
Cu      6.2847493447     2.2119352842    16.0293498591
Cu      8.8343135165     3.6801844895    18.1179701302
Cu      7.6183215462     2.9775482873    20.2085517509
Cu      7.5070356752     4.3341665991    16.0228573901
Cu     10.0535642541     5.8044355481    18.1136962916
Cu      8.8405543065     5.1040966418    20.2181131207
72
Step 8 | ATOMIC_POSITIONS (crystal) | Cartesian Angstrom
Ni      1.2286420027     0.7093562278     8.0127033495
Ni      0.0000022775     0.0000000000    10.0192033545
Ni      2.4795433928     1.4316773392    11.9943005318
Ni      1.3216275745     0.7631616568    13.9809286466
Ni      2.4572821841     2.8374249112     8.0127033495
Ni      1.2286424588     2.1280686834    10.0192033545
Ni      3.7080742782     3.5589413428    11.9975083438
Ni      2.5477799023     2.8898501964    13.9856595144
Ni      3.6859592251     4.9655574374     8.0127033495
Ni      2.4573194998     4.2562012095    10.0192033545
Ni      4.9377465306     5.6860856140    11.9959497243
Ni      3.7765245154     5.0211491844    13.9925095050
Ni      3.6859223655     0.7093562278     8.0127033495
Ni      2.4572826402     0.0000000000    10.0192033545
Ni      4.9363891962     1.4317923818    11.9974189545
Ni      3.7766611740     0.7615903743    13.9856316757
Ni      4.9145625469     2.8374249112     8.0127033495
Ni      3.6859228216     2.1280686834    10.0192033545
Ni      6.1650968296     3.5591896986    12.0007710873
Ni      5.0023614692     2.8880109546    13.9903734857
Ni      6.1432395878     4.9655574374     8.0127033495
Ni      4.9145998625     4.2562012095    10.0192033545
Ni      7.3946936927     5.6861961046    11.9992918360
Ni      6.2315046155     5.0195043168    13.9974432054
Ni      6.1432764474     0.7093562278     8.0127033495
Ni      4.9146367221     0.0000000000    10.0192033545
Ni      7.3930507531     1.4333434714    11.9957675989
Ni      6.2367155946     0.7601046762    13.9924033230
Ni      7.3719166287     2.8374249112     8.0127033495
Ni      6.1432769035     2.1280686834    10.0192033545
Ni      8.6216349492     3.5607252713    11.9991940244
Ni      7.4627810455     2.8867765522    13.9973673138