72
Step 1 | ATOMIC_POSITIONS (angstrom) | Cartesian Angstrom
Ni      0.0000000000     0.0000000000    10.0000000900
Ni      8.6005476670     2.1280836470    10.0000000900
Ni      9.8291973330     4.2561672950    10.0000000900
Ni      2.4572993330     0.0000000000    10.0000000900
Ni      3.6859490000     2.1280836470    10.0000000900
Ni      4.9145986670     4.2561672950    10.0000000900
Ni      4.9145986670     0.0000000000    10.0000000900
Ni      6.1432483330     2.1280836470    10.0000000900
Ni      7.3718980000     4.2561672950    10.0000000900
Ni      1.6381995390     1.4187224170    12.0063763950
Ni      2.8668492300     3.5468061070    12.0063763950
Ni      4.0954988850     5.6748897330    12.0063763950
Ni      4.0954988480     1.4187224170    12.0063763950
Ni      5.3241485390     3.5468061070    12.0063763950
Ni      6.5527981940     5.6748897330    12.0063763950
Ni      6.5527982300     1.4187224170    12.0063763950
Ni      7.7814479220     3.5468061070    12.0063763950
Ni      9.0100975760     5.6748897330    12.0063763950
Ni      2.0477494240     0.7093612090    14.0127530410
Ni      3.2763990780     2.8374448350    14.0127530410
Ni      4.5050487700     4.9655285250    14.0127530410
Ni      4.5050488060     0.7093612090    14.0127530410
Ni      5.7336984610     2.8374448350    14.0127530410
Ni      6.9623481520     4.9655285250    14.0127530410
Ni      6.9623481150     0.7093612090    14.0127530410
Ni      8.1909977700     2.8374448350    14.0127530410
Ni      9.4196474610     4.9655285250    14.0127530410
Ni     -0.0009503262     0.0016460133    16.0053959097
Ni      8.5995922849     2.1297208209    16.0054038122
Ni      9.8282530293     4.2578192596    16.0054047048
Ni      2.4563408416     0.0016437733    16.0054047048
Ni      3.6850013386     2.1297287795    16.0054060067
Ni      4.9136451658     4.2578188075    16.0054011842
Ni      4.9136585239     0.0016459721    16.0054038122
Ni      6.1423030938     2.1297208494    16.0054006240
Ni      7.3709471042     4.2578105601    16.0054060067
Cu      1.6386058529     1.4180099957    18.0217204518
Cu      2.8672600260     3.5460986572    18.0217225212
Cu      4.0959070832     5.6741827130    18.0217146976
Cu      4.0959103540     1.4180117217    18.0217236469
Cu      5.3245577249     3.5460973762    18.0217216871
Cu      6.5532054655     5.6741802483    18.0217225212
Cu      6.5532103244     1.4180086486    18.0217180421
Cu      7.7818576492     3.5460943847    18.0217236469
Cu      9.0105113940     5.6741816442    18.0217204518
Cu      2.0477494240     0.7093612090    20.0319749801
Cu      3.2763990780     2.8374448350    20.0319755902
Cu      4.5050487700     4.9655285250    20.0319744845
Cu      4.5050488060     0.7093612090    20.0319754280
Cu      5.7336984610     2.8374448350    20.0319753185
Cu      6.9623481520     4.9655285250    20.0319755902
Cu      6.9623481150     0.7093612090    20.0319744099
Cu      8.1909977700     2.8374448350    20.0319754280
Cu      9.4196474610     4.9655285250    20.0319749801
Cu      0.0024231830    -0.0041970761    22.0462613225
Cu      8.6029707622     2.1238865789    22.0462618839
Cu      9.8316204511     4.2519704838    22.0462615674
Cu      2.4597223191    -0.0041968874    22.0462615674
Cu      3.6883721380     2.1238867301    22.0462623321
Cu      4.9170215651     4.2519707124    22.0462619535
Cu      4.9170218870    -0.0041969961    22.0462618839
Cu      6.1456715165     2.1238865700    22.0462618618
Cu      7.3743210677     4.2519703375    22.0462623321
Cu      1.6471204411     1.4032710320    24.0724474202
Cu      2.8757702986     3.5313547091    24.0724471224
Cu      4.1044198722     5.6594381298    24.0724471784
Cu      4.1044197974     1.4032707325    24.0724474339
Cu      5.3330694179     3.5313546916    24.0724474695
Cu      6.5617189628     5.6594381620    24.0724471224
Cu      6.5617194975     1.4032703284    24.0724470632
Cu      7.7903689986     3.5313544959    24.0724474339
Cu      9.0190184169     5.6594383126    24.0724474202
72
Step 2 | ATOMIC_POSITIONS (angstrom) | Cartesian Angstrom
Ni      0.0000000000     0.0000000000    10.0000000900
Ni      8.6005476670     2.1280836470    10.0000000900
Ni      9.8291973330     4.2561672950    10.0000000900
Ni      2.4572993330     0.0000000000    10.0000000900
Ni      3.6859490000     2.1280836470    10.0000000900
Ni      4.9145986670     4.2561672950    10.0000000900
Ni      4.9145986670    -0.0000000000    10.0000000900
Ni      6.1432483330     2.1280836470    10.0000000900
Ni      7.3718980000     4.2561672950    10.0000000900
Ni      1.6381995390     1.4187224170    12.0063763950
Ni      2.8668492300     3.5468061070    12.0063763950
Ni      4.0954988850     5.6748897330    12.0063763950
Ni      4.0954988480     1.4187224170    12.0063763950
Ni      5.3241485390     3.5468061070    12.0063763950
Ni      6.5527981940     5.6748897330    12.0063763950
Ni      6.5527982300     1.4187224170    12.0063763950
Ni      7.7814479220     3.5468061070    12.0063763950
Ni      9.0100975760     5.6748897330    12.0063763950
Ni      2.0477494240     0.7093612090    14.0127530410
Ni      3.2763990780     2.8374448350    14.0127530410
Ni      4.5050487700     4.9655285250    14.0127530410
Ni      4.5050488060     0.7093612090    14.0127530410
Ni      5.7336984610     2.8374448350    14.0127530410
Ni      6.9623481520     4.9655285250    14.0127530410
Ni      6.9623481150     0.7093612090    14.0127530410
Ni      8.1909977700     2.8374448350    14.0127530410
Ni      9.4196474610     4.9655285250    14.0127530410
Ni     -0.0012310857     0.0021323029    15.9932754839
Ni      8.5993093321     2.1302075777    15.9932835063
Ni      9.8279741929     4.2583039397    15.9932865263
Ni      2.4560605145     0.0021275927    15.9932865263
Ni      3.6847231833     2.1302163017    15.9932857689
Ni      4.9133663442     4.2583017407    15.9932825614
Ni      4.9133784565     0.0021343949    15.9932835063
Ni      6.1420221528     2.1302074534    15.9932791206
Ni      7.3706639752     4.2582952107    15.9932857689
Cu      1.6388669778     1.4175583511    18.0155817948
Cu      2.8675220899     3.5456451011    18.0155833600
Cu      4.0961687479     5.6737294963    18.0155747861
Cu      4.0961720908     1.4175606945    18.0155825003
Cu      5.3248190742     3.5456447060    18.0155781157
Cu      6.5534672246     5.6737265163    18.0155833600
Cu      6.5534709839     1.4175571730    18.0155772485
Cu      7.7821173818     3.5456422004    18.0155825003
Cu      9.0107719672     5.6737296811    18.0155817948
Cu      2.0477494240     0.7093612090    20.0335280379
Cu      3.2763990780     2.8374448350    20.0335288216
Cu      4.5050487700     4.9655285250    20.0335257757
Cu      4.5050488060     0.7093612090    20.0335289543
Cu      5.7336984610     2.8374448350    20.0335278364
Cu      6.9623481520     4.9655285250    20.0335288216
Cu      6.9623481150     0.7093612090    20.0335268292
Cu      8.1909977700     2.8374448350    20.0335289543
Cu      9.4196474610     4.9655285250    20.0335280379
Cu      0.0059803991    -0.0103583551    22.0595619507
Cu      8.6065278569     2.1177252588    22.0595627563
Cu      9.8351777238     4.2458091127    22.0595622183
Cu      2.4632795866    -0.0103582615    22.0595622183
Cu      3.6919295740     2.1177255639    22.0595631182
Cu      4.9205788705     4.2458092787    22.0595628057
Cu      4.9205791994    -0.0103581905    22.0595627563
Cu      6.1492286244     2.1177254784    22.0595627968
Cu      7.3778780761     4.2458089244    22.0595631182
Cu      1.6575346794     1.3852329812    24.1022355652
Cu      2.8861847767     3.5133165992    24.1022351049
Cu      4.1148341981     5.6413999884    24.1022353516
Cu      4.1148342742     1.3852326880    24.1022355129
Cu      5.3434837932     3.5133164644    24.1022355101
Cu      6.5721331852     5.6413999044    24.1022351049
Cu      6.5721338188     1.3852321948    24.1022351148
Cu      7.8007831650     3.5133162722    24.1022355129
Cu      9.0294327080     5.6414002923    24.1022355652
72
Step 3 | ATOMIC_POSITIONS (angstrom) | Cartesian Angstrom
Ni      0.0000000000     0.0000000000    10.0000000900
Ni      8.6005476670     2.1280836470    10.0000000900
Ni      9.8291973330     4.2561672950    10.0000000900
Ni      2.4572993330     0.0000000000    10.0000000900
Ni      3.6859490000     2.1280836470    10.0000000900
Ni      4.9145986670     4.2561672950    10.0000000900
Ni      4.9145986670    -0.0000000000    10.0000000900
Ni      6.1432483330     2.1280836470    10.0000000900
Ni      7.3718980000     4.2561672950    10.0000000900
Ni      1.6381995390     1.4187224170    12.0063763950
Ni      2.8668492300     3.5468061070    12.0063763950
Ni      4.0954988850     5.6748897330    12.0063763950
Ni      4.0954988480     1.4187224170    12.0063763950
Ni      5.3241485390     3.5468061070    12.0063763950
Ni      6.5527981940     5.6748897330    12.0063763950
Ni      6.5527982300     1.4187224170    12.0063763950
Ni      7.7814479220     3.5468061070    12.0063763950
Ni      9.0100975760     5.6748897330    12.0063763950
Ni      2.0477494240     0.7093612090    14.0127530410
Ni      3.2763990780     2.8374448350    14.0127530410
Ni      4.5050487700     4.9655285250    14.0127530410
Ni      4.5050488060     0.7093612090    14.0127530410
Ni      5.7336984610     2.8374448350    14.0127530410
Ni      6.9623481520     4.9655285250    14.0127530410
Ni      6.9623481150     0.7093612090    14.0127530410
Ni      8.1909977700     2.8374448350    14.0127530410
Ni      9.4196474610     4.9655285250    14.0127530410
Ni     -0.0007363251     0.0012753525    15.9785944824
Ni      8.5998049403     2.1293576179    15.9786027583
Ni      9.8284676729     4.2574432166    15.9786067179
Ni      2.4565591825     0.0012698650    15.9786067179
Ni      3.6852173751     2.1293635402    15.9786025704
Ni      4.9138624911     4.2574423890    15.9785978535
Ni      4.9138667392     0.0012802056    15.9786027583
Ni      6.1425124725     2.1293581947    15.9785946553
Ni      7.3711553924     4.2574408473    15.9786025704
Cu      1.6394655865     1.4165297933    18.0061940657
Cu      2.8681180727     3.5446098858    18.0061952469
Cu      4.0967661222     5.6726948137    18.0061901548
Cu      4.0967661234     1.4165304243    18.0061914007
Cu      5.3254150540     3.5446124386    18.0061888903
Cu      6.5540657559     5.6726927724    18.0061952469
Cu      6.5540654730     1.4165274877    18.0061924532
Cu      7.7827126056     3.5446126179    18.0061914007
Cu      9.0113634201     5.6726969919    18.0061940657
Cu      2.0477494240     0.7093612090    20.0381569629
Cu      3.2763990780     2.8374448350    20.0381575004
Cu      4.5050487700     4.9655285250    20.0381536855
Cu      4.5050488060     0.7093612090    20.0381575996
Cu      5.7336984610     2.8374448350    20.0381555109
Cu      6.9623481520     4.9655285250    20.0381575004
Cu      6.9623481150     0.7093612090    20.0381561162
Cu      8.1909977700     2.8374448350    20.0381575996
Cu      9.4196474610     4.9655285250    20.0381569629
Cu      0.0120770279    -0.0209180258    22.0831306919
Cu      8.6126247773     2.1071656456    22.0831316979
Cu      9.8412740144     4.2352495998    22.0831312710
Cu      2.4693762478    -0.0209175605    22.0831312710
Cu      3.6980258104     2.1071660604    22.0831323427
Cu      4.9266751944     4.2352501359    22.0831311307
Cu      4.9266756324    -0.0209180850    22.0831316979
Cu      6.1553248964     2.1071664256    22.0831316052
Cu      7.3839747562     4.2352496771    22.0831323427
Cu      1.6739012117     1.3568848706    24.1458367654
Cu      2.9025515178     3.4849686660    24.1458359703
Cu      4.1312007146     5.6130523503    24.1458361643
Cu      4.1312011662     1.3568851992    24.1458366238
Cu      5.3598507573     3.4849680510    24.1458367426
Cu      6.5884998449     5.6130519243    24.1458359703
Cu      6.5885007241     1.3568838833    24.1458370143
Cu      7.8171493644     3.4849683836    24.1458366238
Cu      9.0457996257     5.6130524043    24.1458367654
72
Step 4 | ATOMIC_POSITIONS (angstrom) | Cartesian Angstrom
Ni      0.0000000000     0.0000000000    10.0000000900
Ni      8.6005476670     2.1280836470    10.0000000900
Ni      9.8291973330     4.2561672950    10.0000000900
Ni      2.4572993330     0.0000000000    10.0000000900
Ni      3.6859490000     2.1280836470    10.0000000900
Ni      4.9145986670     4.2561672950    10.0000000900
Ni      4.9145986670    -0.0000000000    10.0000000900
Ni      6.1432483330     2.1280836470    10.0000000900
Ni      7.3718980000     4.2561672950    10.0000000900
Ni      1.6381995390     1.4187224170    12.0063763950
Ni      2.8668492300     3.5468061070    12.0063763950
Ni      4.0954988850     5.6748897330    12.0063763950
Ni      4.0954988480     1.4187224170    12.0063763950
Ni      5.3241485390     3.5468061070    12.0063763950
Ni      6.5527981940     5.6748897330    12.0063763950
Ni      6.5527982300     1.4187224170    12.0063763950
Ni      7.7814479220     3.5468061070    12.0063763950
Ni      9.0100975760     5.6748897330    12.0063763950
Ni      2.0477494240     0.7093612090    14.0127530410
Ni      3.2763990780     2.8374448350    14.0127530410
Ni      4.5050487700     4.9655285250    14.0127530410
Ni      4.5050488060     0.7093612090    14.0127530410
Ni      5.7336984610     2.8374448350    14.0127530410
Ni      6.9623481520     4.9655285250    14.0127530410
Ni      6.9623481150     0.7093612090    14.0127530410
Ni      8.1909977700     2.8374448350    14.0127530410
Ni      9.4196474610     4.9655285250    14.0127530410
Ni      0.0012090484    -0.0020941333    15.9611457101
Ni      8.6017467359     2.1259988222    15.9611532607
Ni      9.8304140548     4.2540675166    15.9611552814
Ni      2.4585094336    -0.0021036012    15.9611552814
Ni      3.6871726708     2.1260031000    15.9611462621
Ni      4.9158156040     4.2540594984    15.9611344724
Ni      4.9158046438    -0.0020808365    15.9611532607
Ni      6.1444480234     2.1260057223    15.9611334146
Ni      7.3730879712     4.2540672915    15.9611462621
Cu      1.6410516641     1.4137909792    17.9943136476
Cu      2.8697027608     3.5418657860    17.9943109024
Cu      4.0983519359     5.6699481039    17.9943113497
Cu      4.0983508538     1.4137918233    17.9943053100
Cu      5.3270002892     3.5418667307    17.9942974140
Cu      6.5556498721     5.6699483424    17.9943109024
Cu      6.5556428475     1.4137953950    17.9943047574
Cu      7.7842919384     3.5418709007    17.9943053100
Cu      9.0129422638     5.6699540013    17.9943136476
Cu      2.0477494240     0.7093612090    20.0487258121
Cu      3.2763990780     2.8374448350    20.0487263130
Cu      4.5050487700     4.9655285250    20.0487224452
Cu      4.5050488060     0.7093612090    20.0487245971
Cu      5.7336984610     2.8374448350    20.0487207367
Cu      6.9623481520     4.9655285250    20.0487263130
Cu      6.9623481150     0.7093612090    20.0487250973
Cu      8.1909977700     2.8374448350    20.0487245971
Cu      9.4196474610     4.9655285250    20.0487258121
Cu      0.0219957710    -0.0380977929    22.1219367075
Cu      8.6225437696     2.0899860284    22.1219381637
Cu      9.8511925710     4.2180695219    22.1219377886
Cu      2.4792953533    -0.0380973214    22.1219377886
Cu      3.7079444212     2.0899865333    22.1219387161
Cu      4.9365938811     4.2180704667    22.1219367686
Cu      4.9365941212    -0.0380979930    22.1219381637
Cu      6.1652434888     2.0899869196    22.1219378055
Cu      7.3938933577     4.2180701446    22.1219387161
Cu      1.6995371003     1.3124826905    24.2095522313
Cu      2.9281871584     3.4405663014    24.2095509171
Cu      4.1568366474     5.5686496121    24.2095508625
Cu      4.1568369165     1.3124827522    24.2095519447
Cu      5.3854866747     3.4405653395    24.2095517306
Cu      6.6141356003     5.5686496259    24.2095509171
Cu      6.6141364544     1.3124814959    24.2095519610
Cu      7.8427851363     3.4405659490    24.2095519447
Cu      9.0714350974     5.5686499835    24.2095522313
72
Step 5 | ATOMIC_POSITIONS (angstrom) | Cartesian Angstrom
Ni      0.0000000000     0.0000000000    10.0000000900
Ni      8.6005476670     2.1280836470    10.0000000900
Ni      9.8291973330     4.2561672950    10.0000000900
Ni      2.4572993330     0.0000000000    10.0000000900
Ni      3.6859490000     2.1280836470    10.0000000900
Ni      4.9145986670     4.2561672950    10.0000000900
Ni      4.9145986670    -0.0000000000    10.0000000900
Ni      6.1432483330     2.1280836470    10.0000000900
Ni      7.3718980000     4.2561672950    10.0000000900
Ni      1.6381995390     1.4187224170    12.0063763950
Ni      2.8668492300     3.5468061070    12.0063763950
Ni      4.0954988850     5.6748897330    12.0063763950
Ni      4.0954988480     1.4187224170    12.0063763950
Ni      5.3241485390     3.5468061070    12.0063763950
Ni      6.5527981940     5.6748897330    12.0063763950
Ni      6.5527982300     1.4187224170    12.0063763950
Ni      7.7814479220     3.5468061070    12.0063763950
Ni      9.0100975760     5.6748897330    12.0063763950
Ni      2.0477494240     0.7093612090    14.0127530410
Ni      3.2763990780     2.8374448350    14.0127530410
Ni      4.5050487700     4.9655285250    14.0127530410
Ni      4.5050488060     0.7093612090    14.0127530410
Ni      5.7336984610     2.8374448350    14.0127530410
Ni      6.9623481520     4.9655285250    14.0127530410
Ni      6.9623481150     0.7093612090    14.0127530410
Ni      8.1909977700     2.8374448350    14.0127530410
Ni      9.4196474610     4.9655285250    14.0127530410
Ni      0.0059712764    -0.0103425540    15.9418797189
Ni      8.6065056225     2.1177493781    15.9418937514
Ni      9.8351758577     4.2458276194    15.9418860799
Ni      2.4632644923    -0.0103473921    15.9418860799
Ni      3.6919385819     2.1177591631    15.9418845641
Ni      4.9205771224     4.2458123066    15.9418616991
Ni      4.9205694286    -0.0103268752    15.9418937514
Ni      6.1492106980     2.1177565280    15.9418691333
Ni      7.3778444744     4.2458179229    15.9418845641
Cu      1.6448243221     1.4072542573    17.9817539057
Cu      2.8734752093     3.5353330881    17.9817530271
Cu      4.1021241822     5.6634143817    17.9817469063
Cu      4.1021243415     1.4072542475    17.9817498326
Cu      5.3307737122     3.5353309705    17.9817376694
Cu      6.5594211302     5.6634149571    17.9817530271
Cu      6.5594159078     1.4072602629    17.9817400186
Cu      7.7880669014     3.5353341766    17.9817498326
Cu      9.0167169021     5.6634184227    17.9817539057
Cu      2.0477494240     0.7093612090    20.0700832610
Cu      3.2763990780     2.8374448350    20.0700845198
Cu      4.5050487700     4.9655285250    20.0700809551
Cu      4.5050488060     0.7093612090    20.0700798499
Cu      5.7336984610     2.8374448350    20.0700746724
Cu      6.9623481520     4.9655285250    20.0700845198
Cu      6.9623481150     0.7093612090    20.0700785082
Cu      8.1909977700     2.8374448350    20.0700798499
Cu      9.4196474610     4.9655285250    20.0700832610
Cu      0.0377950204    -0.0654628956    22.1838602879
Cu      8.6383428030     2.0626213073    22.1838620225
Cu      9.8669915426     4.1907044439    22.1838620248
Cu      2.4950947202    -0.0654621712    22.1838620248
Cu      3.7237437107     2.0626214532    22.1838632229
Cu      4.9523928275     4.1907058888    22.1838601796
Cu      4.9523931481    -0.0654627177    22.1838620225
Cu      6.1810424698     2.0626222818    22.1838609888
Cu      7.4096925675     4.1907050185    22.1838632229
Cu      1.7394970873     1.2432702301    24.3026204254
Cu      2.9681468627     3.3713537204    24.3026187187
Cu      4.1967967674     5.4994366540    24.3026182274
Cu      4.1967968947     1.2432698581    24.3026202241
Cu      5.4254466754     3.3713525880    24.3026195516
Cu      6.6540956016     5.4994372165    24.3026187187
Cu      6.6540963393     1.2432689450    24.3026195122
Cu      7.8827452718     3.3713531458    24.3026202241
Cu      9.1113948528     5.4994373894    24.3026204254
72
Step 6 | ATOMIC_POSITIONS (angstrom) | Cartesian Angstrom
Ni      0.0000000000     0.0000000000    10.0000000900
Ni      8.6005476670     2.1280836470    10.0000000900
Ni      9.8291973330     4.2561672950    10.0000000900
Ni      2.4572993330     0.0000000000    10.0000000900
Ni      3.6859490000     2.1280836470    10.0000000900
Ni      4.9145986670     4.2561672950    10.0000000900
Ni      4.9145986670    -0.0000000000    10.0000000900
Ni      6.1432483330     2.1280836470    10.0000000900
Ni      7.3718980000     4.2561672950    10.0000000900
Ni      1.6381995390     1.4187224170    12.0063763950
Ni      2.8668492300     3.5468061070    12.0063763950
Ni      4.0954988850     5.6748897330    12.0063763950
Ni      4.0954988480     1.4187224170    12.0063763950
Ni      5.3241485390     3.5468061070    12.0063763950
Ni      6.5527981940     5.6748897330    12.0063763950
Ni      6.5527982300     1.4187224170    12.0063763950
Ni      7.7814479220     3.5468061070    12.0063763950
Ni      9.0100975760     5.6748897330    12.0063763950
Ni      2.0477494240     0.7093612090    14.0127530410
Ni      3.2763990780     2.8374448350    14.0127530410
Ni      4.5050487700     4.9655285250    14.0127530410
Ni      4.5050488060     0.7093612090    14.0127530410
Ni      5.7336984610     2.8374448350    14.0127530410
Ni      6.9623481520     4.9655285250    14.0127530410
Ni      6.9623481150     0.7093612090    14.0127530410
Ni      8.1909977700     2.8374448350    14.0127530410
Ni      9.4196474610     4.9655285250    14.0127530410
Ni      0.0164076850    -0.0284189440    15.9252440044
Ni      8.6169354118     2.0996660938    15.9252697152
Ni      9.8456150555     4.2277648625    15.9252558196
Ni      2.4736876998    -0.0284193810    15.9252558196
Ni      3.7023797942     2.0996864264    15.9252628070
Ni      4.9310109948     4.2277403094    15.9252281907
Ni      4.9310151176    -0.0284009799    15.9252697152
Ni      6.1596544781     2.0996673702    15.9252446800
Ni      7.3882753174     4.2277391995    15.9252628070
Cu      1.6533505030     1.3924772621    17.9740665933
Cu      2.8820034057     3.5205653911    17.9740672743
Cu      4.1106511368     5.6486452630    17.9740491596
Cu      4.1106526129     1.3924782611    17.9740675150
Cu      5.3393009065     3.5205614367    17.9740474875
Cu      6.5679462327     5.6486454740    17.9740672743
Cu      6.5679482784     1.3924817634    17.9740450371
Cu      7.7965991453     3.5205604836    17.9740675150
Cu      9.0252510648     5.6486460358    17.9740665933
Cu      2.0477494240     0.7093612090    20.1117134699
Cu      3.2763990780     2.8374448350    20.1117157809
Cu      4.5050487700     4.9655285250    20.1117092395
Cu      4.5050488060     0.7093612090    20.1117090263
Cu      5.7336984610     2.8374448350    20.1117009405
Cu      6.9623481520     4.9655285250    20.1117157809
Cu      6.9623481150     0.7093612090    20.1117013306
Cu      8.1909977700     2.8374448350    20.1117090263
Cu      9.4196474610     4.9655285250    20.1117134699
Cu      0.0629387149    -0.1090130519    22.2818703048
Cu      8.6634865415     2.0190705492    22.2818731086
Cu      9.8921352917     4.1471534120    22.2818740528
Cu      2.5202391457    -0.1090128126    22.2818740528
Cu      3.7488878565     2.0190703233    22.2818755717
Cu      4.9775369562     4.1471549804    22.2818715693
Cu      4.9775373418    -0.1090132131    22.2818731086
Cu      6.2061866379     2.0190713052    22.2818709780
Cu      7.4348368794     4.1471539845    22.2818755717
Cu      1.8019682796     1.1350673946    24.4377114585
Cu      3.0306180485     3.2631510583    24.4377087080
Cu      4.2592675340     5.3912341123    24.4377077662
Cu      4.2592677794     1.1350665437    24.4377110142
Cu      5.4879177334     3.2631495417    24.4377093654
Cu      6.7165662629     5.3912342515    24.4377087080
Cu      6.7165676072     1.1350655350    24.4377087949
Cu      7.9452166485     3.2631501154    24.4377110142
Cu      9.1738656610     5.3912343321    24.4377114585
72
Step 7 | ATOMIC_POSITIONS (angstrom) | Cartesian Angstrom
Ni      0.0000000000     0.0000000000    10.0000000900
Ni      8.6005476670     2.1280836470    10.0000000900
Ni      9.8291973330     4.2561672950    10.0000000900
Ni      2.4572993330     0.0000000000    10.0000000900
Ni      3.6859490000     2.1280836470    10.0000000900
Ni      4.9145986670     4.2561672950    10.0000000900
Ni      4.9145986670    -0.0000000000    10.0000000900
Ni      6.1432483330     2.1280836470    10.0000000900
Ni      7.3718980000     4.2561672950    10.0000000900
Ni      1.6381995390     1.4187224170    12.0063763950
Ni      2.8668492300     3.5468061070    12.0063763950
Ni      4.0954988850     5.6748897330    12.0063763950
Ni      4.0954988480     1.4187224170    12.0063763950
Ni      5.3241485390     3.5468061070    12.0063763950
Ni      6.5527981940     5.6748897330    12.0063763950
Ni      6.5527982300     1.4187224170    12.0063763950
Ni      7.7814479220     3.5468061070    12.0063763950
Ni      9.0100975760     5.6748897330    12.0063763950
Ni      2.0477494240     0.7093612090    14.0127530410
Ni      3.2763990780     2.8374448350    14.0127530410
Ni      4.5050487700     4.9655285250    14.0127530410
Ni      4.5050488060     0.7093612090    14.0127530410
Ni      5.7336984610     2.8374448350    14.0127530410
Ni      6.9623481520     4.9655285250    14.0127530410
Ni      6.9623481150     0.7093612090    14.0127530410
Ni      8.1909977700     2.8374448350    14.0127530410
Ni      9.4196474610     4.9655285250    14.0127530410
Ni      0.0283501219    -0.0491038516    15.9248106069
Ni      8.6288712986     2.0789746420    15.9248437513
Ni      9.8575606228     4.2070911902    15.9248321940
Ni      2.4856188416    -0.0491013819    15.9248321940
Ni      3.7143242945     2.0790037494    15.9248424064
Ni      4.9429508836     4.2070598153    15.9248049419
Ni      4.9429664971    -0.0490834870    15.9248437513
Ni      6.1716050514     2.0789683699    15.9248196604
Ni      7.4002147909     4.2070536203    15.9248424064
Cu      1.6638072322     1.3743559654    17.9821357730
Cu      2.8924628851     3.5024521927    17.9821362641
Cu      4.1211093367     5.6305311294    17.9821079421
Cu      4.1211117755     1.3743591099    17.9821395079
Cu      5.3497589459     3.5024475810    17.9821114842
Cu      6.5784029829     5.6305306998    17.9821362641
Cu      6.5784126337     1.3743569684    17.9821084019
Cu      7.8070612092     3.5024430076    17.9821395079
Cu      9.0357162036     5.6305295944    17.9821357730
Cu      2.0477494240     0.7093612090    20.1561481392
Cu      3.2763990780     2.8374448350    20.1561506818
Cu      4.5050487700     4.9655285250    20.1561388789
Cu      4.5050488060     0.7093612090    20.1561444161
Cu      5.7336984610     2.8374448350    20.1561319549
Cu      6.9623481520     4.9655285250    20.1561506818
Cu      6.9623481150     0.7093612090    20.1561291156
Cu      8.1909977700     2.8374448350    20.1561444161
Cu      9.4196474610     4.9655285250    20.1561481392
Cu      0.0847959372    -0.1468708715    22.3658684807
Cu      8.6853438947     1.9812120045    22.3658733921
Cu      9.9139927611     4.1092951764    22.3658746626
Cu      2.5420966048    -0.1468710542    22.3658746626
Cu      3.7707455088     1.9812117075    22.3658768561
Cu      4.9993945774     4.1092964700    22.3658717618
Cu      4.9993951266    -0.1468715085    22.3658733921
Cu      6.2280441452     1.9812129920    22.3658692337
Cu      7.4566945763     4.1092953945    22.3658768561
Cu      1.8549832536     1.0432435320    24.5408425821
Cu      3.0836326947     3.1713274078    24.5408397486
Cu      4.3122819645     5.2994104251    24.5408378598
Cu      4.3122823966     1.0432422950    24.5408423114
Cu      5.5409321671     3.1713258488    24.5408395603
Cu      6.7695805538     5.2994103959    24.5408397486
Cu      6.7695823032     1.0432413879    24.5408384016
Cu      7.9982314720     3.1713259858    24.5408423114
Cu      9.2268799717     5.2994100866    24.5408425821
72
Step 8 | ATOMIC_POSITIONS (angstrom) | Cartesian Angstrom
Ni      0.0000000000     0.0000000000    10.0000000900
Ni      8.6005476670     2.1280836470    10.0000000900
Ni      9.8291973330     4.2561672950    10.0000000900
Ni      2.4572993330     0.0000000000    10.0000000900
Ni      3.6859490000     2.1280836470    10.0000000900
Ni      4.9145986670     4.2561672950    10.0000000900
Ni      4.9145986670    -0.0000000000    10.0000000900
Ni      6.1432483330     2.1280836470    10.0000000900
Ni      7.3718980000     4.2561672950    10.0000000900
Ni      1.6381995390     1.4187224170    12.0063763950
Ni      2.8668492300     3.5468061070    12.0063763950
Ni      4.0954988850     5.6748897330    12.0063763950
Ni      4.0954988480     1.4187224170    12.0063763950
Ni      5.3241485390     3.5468061070    12.0063763950
Ni      6.5527981940     5.6748897330    12.0063763950
Ni      6.5527982300     1.4187224170    12.0063763950
Ni      7.7814479220     3.5468061070    12.0063763950
Ni      9.0100975760     5.6748897330    12.0063763950
Ni      2.0477494240     0.7093612090    14.0127530410
Ni      3.2763990780     2.8374448350    14.0127530410
Ni      4.5050487700     4.9655285250    14.0127530410
Ni      4.5050488060     0.7093612090    14.0127530410
Ni      5.7336984610     2.8374448350    14.0127530410
Ni      6.9623481520     4.9655285250    14.0127530410
Ni      6.9623481150     0.7093612090    14.0127530410
Ni      8.1909977700     2.8374448350    14.0127530410
Ni      9.4196474610     4.9655285250    14.0127530410
Ni      0.0449006544    -0.0777702148    15.9360781078
Ni      8.6454291891     2.0503145908    15.9361005071
Ni      9.8740982271     4.1784292503    15.9360974985
Ni      2.5021720075    -0.0777543372    15.9360974985
Ni      3.7308567275     2.0503353932    15.9361049726