72
Step 1 | ATOMIC_POSITIONS (angstrom) | Cartesian Angstrom
Ni      0.0000000000     0.0000000000    10.0000000900
Ni      8.6005476670     2.1280836470    10.0000000900
Ni      9.8291973330     4.2561672950    10.0000000900
Ni      2.4572993330     0.0000000000    10.0000000900
Ni      3.6859490000     2.1280836470    10.0000000900
Ni      4.9145986670     4.2561672950    10.0000000900
Ni      4.9145986670     0.0000000000    10.0000000900
Ni      6.1432483330     2.1280836470    10.0000000900
Ni      7.3718980000     4.2561672950    10.0000000900
Ni      1.6381995390     1.4187224170    12.0063763950
Ni      2.8668492300     3.5468061070    12.0063763950
Ni      4.0954988850     5.6748897330    12.0063763950
Ni      4.0954988480     1.4187224170    12.0063763950
Ni      5.3241485390     3.5468061070    12.0063763950
Ni      6.5527981940     5.6748897330    12.0063763950
Ni      6.5527982300     1.4187224170    12.0063763950
Ni      7.7814479220     3.5468061070    12.0063763950
Ni      9.0100975760     5.6748897330    12.0063763950
Ni      2.0477494240     0.7093612090    14.1641623143
Ni      3.2763990780     2.8374448350    14.1641712428
Ni      4.5050487700     4.9655285250    14.1641377521
Ni      4.5050488060     0.7093612090    14.1641677113
Ni      5.7336984610     2.8374448350    14.1641338491
Ni      6.9623481520     4.9655285250    14.1641342592
Ni      6.9623481150     0.7093612090    14.1641210941
Ni      8.1909977700     2.8374448350    14.1641431235
Ni      9.4196474610     4.9655285250    14.1641482834
Ni      0.0007930831    -0.0013734274    16.3281911598
Ni      8.6013305500     2.1267139415    16.3282414357
Ni      9.8299796069     4.2547910594    16.3282381718
Ni      2.4580996654    -0.0013891709    16.3282360093
Ni      3.6867483644     2.1267031903    16.3282659419
Ni      4.9154090097     4.2547871041    16.3282073719
Ni      4.9153937232    -0.0013868631    16.3282522131
Ni      6.1440544384     2.1267114755    16.3282087223
Ni      7.3726935248     4.2547847917    16.3282090932
Cu      1.6393170142     1.4167831065    18.5438091627
Cu      2.8679658895     3.5448672248    18.5438183898
Cu      4.0966198205     5.6729494809    18.5437601749
Cu      4.0966217612     1.4167796071    18.5438439744
Cu      5.3252755796     3.5448641884    18.5437741857
Cu      6.5539212971     5.6729446629    18.5437886960
Cu      6.5539194727     1.4167849576    18.5437742238
Cu      7.7825658521     3.5448663825    18.5437736862
Cu      9.0112153037     5.6729475160    18.5438310363
Cu      2.0477494240     0.7093612090    20.7902375698
Cu      3.2763990780     2.8374448350    20.7902728769
Cu      4.5050487700     4.9655285250    20.7902144775
Cu      4.5050488060     0.7093612090    20.7902899824
Cu      5.7336984610     2.8374448350    20.7902315715
Cu      6.9623481520     4.9655285250    20.7902250631
Cu      6.9623481150     0.7093612090    20.7902221001
Cu      8.1909977700     2.8374448350    20.7902230819
Cu      9.4196474610     4.9655285250    20.7902813464
Cu      0.0000000000     0.0000000000    23.0270454677
Cu      8.6005476670     2.1280836470    23.0270494331
Cu      9.8291973330     4.2561672950    23.0271054802
Cu      2.4572993330     0.0000000000    23.0270493287
Cu      3.6859490000     2.1280836470    23.0271084341
Cu      4.9145986670     4.2561672950    23.0270609959
Cu      4.9145986670     0.0000000000    23.0271100369
Cu      6.1432483330     2.1280836470    23.0270696565
Cu      7.3718980000     4.2561672950    23.0270513224
Cu      1.6410197985     1.4138377989    25.2850095058
Cu      2.8696695482     3.5419212009    25.2850534934
Cu      4.0983190078     5.6700047991    25.2849994539
Cu      4.0983191115     1.4138379278    25.2850703090
Cu      5.3269684986     3.5419214601    25.2850291990
Cu      6.5556187533     5.6700046074    25.2849957529
Cu      6.5556182468     1.4138376845    25.2850354988
Cu      7.7842681949     3.5419211881    25.2850087731
Cu      9.0129179094     5.6700048017    25.2850565287
72
Step 2 | ATOMIC_POSITIONS (angstrom) | Cartesian Angstrom
Ni      0.0000000000     0.0000000000    10.0000000900
Ni      8.6005476670     2.1280836470    10.0000000900
Ni      9.8291973330     4.2561672950    10.0000000900
Ni      2.4572993330     0.0000000000    10.0000000900
Ni      3.6859490000     2.1280836470    10.0000000900
Ni      4.9145986670     4.2561672950    10.0000000900
Ni      4.9145986670    -0.0000000000    10.0000000900
Ni      6.1432483330     2.1280836470    10.0000000900
Ni      7.3718980000     4.2561672950    10.0000000900
Ni      1.6381995390     1.4187224170    12.0063763950
Ni      2.8668492300     3.5468061070    12.0063763950
Ni      4.0954988850     5.6748897330    12.0063763950
Ni      4.0954988480     1.4187224170    12.0063763950
Ni      5.3241485390     3.5468061070    12.0063763950
Ni      6.5527981940     5.6748897330    12.0063763950
Ni      6.5527982300     1.4187224170    12.0063763950
Ni      7.7814479220     3.5468061070    12.0063763950
Ni      9.0100975760     5.6748897330    12.0063763950
Ni      2.0477494240     0.7093612090    14.1642987884
Ni      3.2763990780     2.8374448350    14.1643069294
Ni      4.5050487700     4.9655285250    14.1642731071
Ni      4.5050488060     0.7093612090    14.1643023597
Ni      5.7336984610     2.8374448350    14.1642642928
Ni      6.9623481520     4.9655285250    14.1642600667
Ni      6.9623481150     0.7093612090    14.1642517939
Ni      8.1909977700     2.8374448350    14.1642669055
Ni      9.4196474610     4.9655285250    14.1642817866
Ni      0.0016692890    -0.0028871321    16.3282383953
Ni      8.6021953602     2.1252024952    16.3282831402
Ni      9.8308436112     4.2532737193    16.3282855432
Ni      2.4589790746    -0.0029170193    16.3282793748
Ni      3.6876270846     2.1251823228    16.3283163036
Ni      4.9162999346     4.2532682362    16.3282526465
Ni      4.9162690333    -0.0029134340    16.3282980183
Ni      6.1449420884     2.1251991389    16.3282514761
Ni      7.3735691601     4.2532624061    16.3282444751
Cu      1.6405462843     1.4146501523    18.5436094916
Cu      2.8691943753     3.5427345366    18.5436225398
Cu      4.0978528096     5.6708157944    18.5435631333
Cu      4.0978559619     1.4146433525    18.5436494690
Cu      5.3265141062     3.5427287489    18.5435748379
Cu      6.5551555990     5.6708063462    18.5435866241
Cu      6.5551531450     1.4146535843    18.5435709059
Cu      7.7837959369     3.5427323903    18.5435669699
Cu      9.0124452642     5.6708115807    18.5436316768
Cu      2.0477494240     0.7093612090    20.7902806087
Cu      3.2763990780     2.8374448350    20.7903176391
Cu      4.5050487700     4.9655285250    20.7902577194
Cu      4.5050488060     0.7093612090    20.7903338606
Cu      5.7336984610     2.8374448350    20.7902736512
Cu      6.9623481520     4.9655285250    20.7902671969
Cu      6.9623481150     0.7093612090    20.7902637021
Cu      8.1909977700     2.8374448350    20.7902646963
Cu      9.4196474610     4.9655285250    20.7903250596
Cu      0.0000000000     0.0000000000    23.0271251350
Cu      8.6005476670     2.1280836470    23.0271295594
Cu      9.8291973330     4.2561672950    23.0271867511
Cu      2.4572993330     0.0000000000    23.0271297033
Cu      3.6859490000     2.1280836470    23.0271896207
Cu      4.9145986670     4.2561672950    23.0271401141
Cu      4.9145986670    -0.0000000000    23.0271914424
Cu      6.1432483330     2.1280836470    23.0271492345
Cu      7.3718980000     4.2561672950    23.0271309155
Cu      1.6441222330     1.4084649372    25.2849243872
Cu      2.8727718623     3.5365479438    25.2849701199
Cu      4.1014210502     5.6646314014    25.2849149484
Cu      4.1014212255     1.4084654453    25.2849858070
Cu      5.3300702081     3.5365485971    25.2849436332
Cu      6.5587213416     5.6646312605    25.2849117430
Cu      6.5587201692     1.4084648952    25.2849500325
Cu      7.7873704119     3.5365480508    25.2849236780
Cu      9.0160201878     5.6646313621    25.2849733329
72
Step 3 | ATOMIC_POSITIONS (angstrom) | Cartesian Angstrom
Ni      0.0000000000     0.0000000000    10.0000000900
Ni      8.6005476670     2.1280836470    10.0000000900
Ni      9.8291973330     4.2561672950    10.0000000900
Ni      2.4572993330     0.0000000000    10.0000000900
Ni      3.6859490000     2.1280836470    10.0000000900
Ni      4.9145986670     4.2561672950    10.0000000900
Ni      4.9145986670    -0.0000000000    10.0000000900
Ni      6.1432483330     2.1280836470    10.0000000900
Ni      7.3718980000     4.2561672950    10.0000000900
Ni      1.6381995390     1.4187224170    12.0063763950
Ni      2.8668492300     3.5468061070    12.0063763950
Ni      4.0954988850     5.6748897330    12.0063763950
Ni      4.0954988480     1.4187224170    12.0063763950
Ni      5.3241485390     3.5468061070    12.0063763950
Ni      6.5527981940     5.6748897330    12.0063763950
Ni      6.5527982300     1.4187224170    12.0063763950
Ni      7.7814479220     3.5468061070    12.0063763950
Ni      9.0100975760     5.6748897330    12.0063763950
Ni      2.0477494240     0.7093612090    14.1645522187
Ni      3.2763990780     2.8374448350    14.1645465164
Ni      4.5050487700     4.9655285250    14.1645155251
Ni      4.5050488060     0.7093612090    14.1645364155
Ni      5.7336984610     2.8374448350    14.1644913793
Ni      6.9623481520     4.9655285250    14.1644803178
Ni      6.9623481150     0.7093612090    14.1644811125
Ni      8.1909977700     2.8374448350    14.1644841186
Ni      9.4196474610     4.9655285250    14.1645085284
Ni      0.0029671620    -0.0051589071    16.3282722175
Ni      8.6034971020     2.1229430160    16.3283133673
Ni      9.8321470699     4.2510090306    16.3283141625
Ni      2.4603003056    -0.0051999830    16.3283155717
Ni      3.6889472977     2.1229140781    16.3283525060
Ni      4.9176159131     4.2509902123    16.3282849824
Ni      4.9175848741    -0.0051910508    16.3283249956
Ni      6.1462540603     2.1229289134    16.3282737955
Ni      7.3748851983     4.2509901116    16.3282565274
Cu      1.6423977975     1.4114430217    18.5433425648
Cu      2.8710451562     3.5395306684    18.5433550397
Cu      4.0997035918     5.6676056644    18.5432964487
Cu      4.0997108383     1.4114344227    18.5433848806
Cu      5.3283681985     3.5395198047    18.5433059100
Cu      6.5570108500     5.6675956496    18.5433171034
Cu      6.5570017794     1.4114469185    18.5432968608
Cu      7.7856464397     3.5395281871    18.5432935205
Cu      9.0142951236     5.6676040524    18.5433604376
Cu      2.0477494240     0.7093612090    20.7903128168
Cu      3.2763990780     2.8374448350    20.7903520715
Cu      4.5050487700     4.9655285250    20.7902900720
Cu      4.5050488060     0.7093612090    20.7903671495
Cu      5.7336984610     2.8374448350    20.7903045439
Cu      6.9623481520     4.9655285250    20.7902979098
Cu      6.9623481150     0.7093612090    20.7902936763
Cu      8.1909977700     2.8374448350    20.7902951690
Cu      9.4196474610     4.9655285250    20.7903577520
Cu      0.0000000000     0.0000000000    23.0274139383
Cu      8.6005476670     2.1280836470    23.0274179206
Cu      9.8291973330     4.2561672950    23.0274768837
Cu      2.4572993330     0.0000000000    23.0274189725
Cu      3.6859490000     2.1280836470    23.0274797052
Cu      4.9145986670     4.2561672950    23.0274278247
Cu      4.9145986670    -0.0000000000    23.0274820393
Cu      6.1432483330     2.1280836470    23.0274367603
Cu      7.3718980000     4.2561672950    23.0274185721
Cu      1.6487708310     1.4004110142    25.2845619517
Cu      2.8774214178     3.5284942374    25.2846090099
Cu      4.1060707110     5.6565784617    25.2845523813
Cu      4.1060714507     1.4004104382    25.2846242876
Cu      5.3347205419     3.5284945824    25.2845800151
Cu      6.5633711343     5.6565767475    25.2845502990
Cu      6.5633697731     1.4004099400    25.2845873586
Cu      7.7920202767     3.5284934703    25.2845617913
Cu      9.0206701105     5.6565785472    25.2846133042
72
Step 4 | ATOMIC_POSITIONS (angstrom) | Cartesian Angstrom
Ni      0.0000000000     0.0000000000    10.0000000900
Ni      8.6005476670     2.1280836470    10.0000000900
Ni      9.8291973330     4.2561672950    10.0000000900
Ni      2.4572993330     0.0000000000    10.0000000900
Ni      3.6859490000     2.1280836470    10.0000000900
Ni      4.9145986670     4.2561672950    10.0000000900
Ni      4.9145986670    -0.0000000000    10.0000000900
Ni      6.1432483330     2.1280836470    10.0000000900
Ni      7.3718980000     4.2561672950    10.0000000900
Ni      1.6381995390     1.4187224170    12.0063763950
Ni      2.8668492300     3.5468061070    12.0063763950
Ni      4.0954988850     5.6748897330    12.0063763950
Ni      4.0954988480     1.4187224170    12.0063763950
Ni      5.3241485390     3.5468061070    12.0063763950
Ni      6.5527981940     5.6748897330    12.0063763950
Ni      6.5527982300     1.4187224170    12.0063763950
Ni      7.7814479220     3.5468061070    12.0063763950
Ni      9.0100975760     5.6748897330    12.0063763950
Ni      2.0477494240     0.7093612090    14.1649652246
Ni      3.2763990780     2.8374448350    14.1649405767
Ni      4.5050487700     4.9655285250    14.1649132479
Ni      4.5050488060     0.7093612090    14.1649234444
Ni      5.7336984610     2.8374448350    14.1648728869
Ni      6.9623481520     4.9655285250    14.1648545740
Ni      6.9623481150     0.7093612090    14.1648640773
Ni      8.1909977700     2.8374448350    14.1648590053
Ni      9.4196474610     4.9655285250    14.1648869704
Ni      0.0049201131    -0.0085726049    16.3282257923
Ni      8.6054625483     2.1195425932    16.3282648855
Ni      9.8341146262     4.2476039913    16.3282576932
Ni      2.4622821051    -0.0086182612    16.3282742721
Ni      3.6909289388     2.1195071475    16.3283035198
Ni      4.9195845083     4.2475672625    16.3282360794
Ni      4.9195581153    -0.0086012087    16.3282650981
Ni      6.1482141546     2.1195176050    16.3282091459
Ni      7.3768588710     4.2475791260    16.3281866866
Cu      1.6451761160     1.4066343642    18.5428288826
Cu      2.8738234756     3.5347230643    18.5428407676
Cu      4.1024790479     5.6627936869    18.5427820986
Cu      4.1024891547     1.4066262696    18.5428699069
Cu      5.3311445236     3.5347079837    18.5427895970
Cu      6.5597913986     5.6627833530    18.5428029015
Cu      6.5597736500     1.4066371667    18.5427755747
Cu      7.7884208228     3.5347237000    18.5427726908
Cu      9.0170694712     5.6627970003    18.5428431375
Cu      2.0477494240     0.7093612090    20.7905264594
Cu      3.2763990780     2.8374448350    20.7905679459
Cu      4.5050487700     4.9655285250    20.7905036992
Cu      4.5050488060     0.7093612090    20.7905823279
Cu      5.7336984610     2.8374448350    20.7905161884
Cu      6.9623481520     4.9655285250    20.7905096627
Cu      6.9623481150     0.7093612090    20.7905035329
Cu      8.1909977700     2.8374448350    20.7905060468
Cu      9.4196474610     4.9655285250    20.7905719943
Cu      0.0000000000     0.0000000000    23.0280389210
Cu      8.6005476670     2.1280836470    23.0280426012
Cu      9.8291973330     4.2561672950    23.0281043046
Cu      2.4572993330     0.0000000000    23.0280451600
Cu      3.6859490000     2.1280836470    23.0281072220
Cu      4.9145986670     4.2561672950    23.0280516359
Cu      4.9145986670    -0.0000000000    23.0281101974
Cu      6.1432483330     2.1280836470    23.0280603307
Cu      7.3718980000     4.2561672950    23.0280426327
Cu      1.6557394702     1.3883388838    25.2837840387
Cu      2.8843908958     3.5164224375    25.2838333155
Cu      4.1130402795     5.6445071578    25.2837744878
Cu      4.1130411971     1.3883374886    25.2838477626
Cu      5.3416904749     3.5164224325    25.2838004459
Cu      6.5703408660     5.6445039715    25.2837738908
Cu      6.5703388380     1.3883369124    25.2838089696
Cu      7.7989899039     3.5164210698    25.2837845183
Cu      9.0276397467     5.6445075803    25.2838391218
72
Step 5 | ATOMIC_POSITIONS (angstrom) | Cartesian Angstrom
Ni      0.0000000000     0.0000000000    10.0000000900
Ni      8.6005476670     2.1280836470    10.0000000900
Ni      9.8291973330     4.2561672950    10.0000000900
Ni      2.4572993330     0.0000000000    10.0000000900
Ni      3.6859490000     2.1280836470    10.0000000900
Ni      4.9145986670     4.2561672950    10.0000000900
Ni      4.9145986670    -0.0000000000    10.0000000900
Ni      6.1432483330     2.1280836470    10.0000000900
Ni      7.3718980000     4.2561672950    10.0000000900
Ni      1.6381995390     1.4187224170    12.0063763950
Ni      2.8668492300     3.5468061070    12.0063763950
Ni      4.0954988850     5.6748897330    12.0063763950
Ni      4.0954988480     1.4187224170    12.0063763950
Ni      5.3241485390     3.5468061070    12.0063763950
Ni      6.5527981940     5.6748897330    12.0063763950
Ni      6.5527982300     1.4187224170    12.0063763950
Ni      7.7814479220     3.5468061070    12.0063763950
Ni      9.0100975760     5.6748897330    12.0063763950
Ni      2.0477494240     0.7093612090    14.1656476548
Ni      3.2763990780     2.8374448350    14.1655921004
Ni      4.5050487700     4.9655285250    14.1655715308
Ni      4.5050488060     0.7093612090    14.1655677888
Ni      5.7336984610     2.8374448350    14.1655039641
Ni      6.9623481520     4.9655285250    14.1654730751
Ni      6.9623481150     0.7093612090    14.1654994291
Ni      8.1909977700     2.8374448350    14.1654744511
Ni      9.4196474610     4.9655285250    14.1655188280
Ni      0.0078520214    -0.0136884756    16.3280328502
Ni      8.6083960495     2.1144474898    16.3280657820
Ni      9.8370489117     4.2424937804    16.3280527665
Ni      2.4652556121    -0.0137594629    16.3280885495
Ni      3.6938990853     2.1143911649    16.3281150662
Ni      4.9225545666     4.2424347973    16.3280384343
Ni      4.9225226314    -0.0137356966    16.3280570801
Ni      6.1511796380     2.1144011068    16.3279937210
Ni      7.3798266532     4.2424499987    16.3279510786
Cu      1.6493391319     1.3994210133    18.5418940445
Cu      2.8779838442     3.5275124610    18.5419050191
Cu      4.1066434634     5.6555740065    18.5418509322
Cu      4.1066621403     1.3994054090    18.5419425109
Cu      5.3353202247     3.5274850349    18.5418533873
Cu      6.5639665506     5.6555570603    18.5418663574
Cu      6.5639372368     1.3994243109    18.5418223395
Cu      7.7925847276     3.5275112109    18.5418167243
Cu      9.0212328026     5.6555777618    18.5418994465
Cu      2.0477494240     0.7093612090    20.7910305446
Cu      3.2763990780     2.8374448350    20.7910754973
Cu      4.5050487700     4.9655285250    20.7910077623
Cu      4.5050488060     0.7093612090    20.7910886046
Cu      5.7336984610     2.8374448350    20.7910162621
Cu      6.9623481520     4.9655285250    20.7910102552
Cu      6.9623481150     0.7093612090    20.7910008578
Cu      8.1909977700     2.8374448350    20.7910037450
Cu      9.4196474610     4.9655285250    20.7910754309
Cu      0.0000000000     0.0000000000    23.0292472925
Cu      8.6005476670     2.1280836470    23.0292506605
Cu      9.8291973330     4.2561672950    23.0293168184
Cu      2.4572993330     0.0000000000    23.0292557830
Cu      3.6859490000     2.1280836470    23.0293200321
Cu      4.9145986670     4.2561672950    23.0292587754
Cu      4.9145986670    -0.0000000000    23.0293237636
Cu      6.1432483330     2.1280836470    23.0292671179
Cu      7.3718980000     4.2561672950    23.0292499493
Cu      1.6661843300     1.3702455231    25.2823422369
Cu      2.8948367646     3.4983291144    25.2823950785
Cu      4.1234861388     5.6264143161    25.2823328719
Cu      4.1234874023     1.3702429998    25.2824082769
Cu      5.3521368089     3.4983285520    25.2823562408
Cu      6.5807871079     5.6264094685    25.2823344322
Cu      6.5807841156     1.3702424004    25.2823662630
Cu      7.8094360327     3.4983269877    25.2823434099
Cu      9.0380859277     5.6264150025    25.2824030647
