72
Step 1 | ATOMIC_POSITIONS (angstrom) | Cartesian Angstrom
Ni      0.0000000000     0.0000000000    10.0000000900
Ni      8.6005476670     2.1280836470    10.0000000900
Ni      9.8291973330     4.2561672950    10.0000000900
Ni      2.4572993330     0.0000000000    10.0000000900
Ni      3.6859490000     2.1280836470    10.0000000900
Ni      4.9145986670     4.2561672950    10.0000000900
Ni      4.9145986670     0.0000000000    10.0000000900
Ni      6.1432483330     2.1280836470    10.0000000900
Ni      7.3718980000     4.2561672950    10.0000000900
Ni      1.6381995390     1.4187224170    12.0063763950
Ni      2.8668492300     3.5468061070    12.0063763950
Ni      4.0954988850     5.6748897330    12.0063763950
Ni      4.0954988480     1.4187224170    12.0063763950
Ni      5.3241485390     3.5468061070    12.0063763950
Ni      6.5527981940     5.6748897330    12.0063763950
Ni      6.5527982300     1.4187224170    12.0063763950
Ni      7.7814479220     3.5468061070    12.0063763950
Ni      9.0100975760     5.6748897330    12.0063763950
Ni      2.0477494240     0.7093612090    14.1640614080
Ni      3.2763990780     2.8374448350    14.1640729510
Ni      4.5050487700     4.9655285250    14.1640397250
Ni      4.5050488060     0.7093612090    14.1640710440
Ni      5.7336984610     2.8374448350    14.1640423650
Ni      6.9623481520     4.9655285250    14.1640482520
Ni      6.9623481150     0.7093612090    14.1640292020
Ni      8.1909977700     2.8374448350    14.1640591990
Ni      9.4196474610     4.9655285250    14.1640542750
Ni      0.0000000000     0.0000000000    16.3281461600
Ni      8.6005476670     2.1280836470    16.3282017120
Ni      9.8291973330     4.2561672950    16.3281943160
Ni      2.4572993330     0.0000000000    16.3281936330
Ni      3.6859490000     2.1280836470    16.3282178260
Ni      4.9145986670     4.2561672950    16.3281642570
Ni      4.9145986670     0.0000000000    16.3282096040
Ni      6.1432483330     2.1280836470    16.3281694310
Ni      7.3718980000     4.2561672950    16.3281777140
Cu      1.6381995390     1.4187224170    18.5439570380
Cu      2.8668492300     3.5468061070    18.5439633170
Cu      4.0954988850     5.6748897330    18.5439058500
Cu      4.0954988480     1.4187224170    18.5439876690
Cu      5.3241485390     3.5468061070    18.5439225600
Cu      6.5527981940     5.6748897330    18.5439394360
Cu      6.5527982300     1.4187224170    18.5439267690
Cu      7.7814479220     3.5468061070    18.5439293780
Cu      9.0100975760     5.6748897330    18.5439799570
Cu      2.0477494240     0.7093612090    20.7902126970
Cu      3.2763990780     2.8374448350    20.7902464750
Cu      4.5050487700     4.9655285250    20.7901894570
Cu      4.5050488060     0.7093612090    20.7902646290
Cu      5.7336984610     2.8374448350    20.7902077890
Cu      6.9623481520     4.9655285250    20.7902013200
Cu      6.9623481150     0.7093612090    20.7901985810
Cu      8.1909977700     2.8374448350    20.7901995150
Cu      9.4196474610     4.9655285250    20.7902560580
Cu      0.0000000000     0.0000000000    23.0269984560
Cu      8.6005476670     2.1280836470    23.0270021480
Cu      9.8291973330     4.2561672950    23.0270571880
Cu      2.4572993330     0.0000000000    23.0270017780
Cu      3.6859490000     2.1280836470    23.0270601890
Cu      4.9145986670     4.2561672950    23.0270145410
Cu      4.9145986670     0.0000000000    23.0270616010
Cu      6.1432483330     2.1280836470    23.0270229140
Cu      7.3718980000     4.2561672950    23.0270045470
Cu      1.6410218487     1.4138343854    25.2850191238
Cu      2.8696712714     3.5419178793    25.2850631671
Cu      4.0983208404     5.6700016021    25.2850090102
Cu      4.0983210310     1.4138345587    25.2850797255
Cu      5.3269705140     3.5419180139    25.2850387988
Cu      6.5556207403     5.6700014986    25.2850052758
Cu      6.5556200351     1.4138344149    25.2850450035
Cu      7.7842701364     3.5419179809    25.2850183774
Cu      9.0129198607     5.6700015720    25.2850659550
