72
Step 1 | ATOMIC_POSITIONS (angstrom) | Cartesian Angstrom
Ni      0.0000000000     0.0000000000    10.0000000900
Ni      8.6005476670     2.1280836470    10.0000000900
Ni      9.8291973330     4.2561672950    10.0000000900
Ni      2.4572993330     0.0000000000    10.0000000900
Ni      3.6859490000     2.1280836470    10.0000000900
Ni      4.9145986670     4.2561672950    10.0000000900
Ni      4.9145986670     0.0000000000    10.0000000900
Ni      6.1432483330     2.1280836470    10.0000000900
Ni      7.3718980000     4.2561672950    10.0000000900
Ni      1.6381995390     1.4187224170    12.0063763950
Ni      2.8668492300     3.5468061070    12.0063763950
Ni      4.0954988850     5.6748897330    12.0063763950
Ni      4.0954988480     1.4187224170    12.0063763950
Ni      5.3241485390     3.5468061070    12.0063763950
Ni      6.5527981940     5.6748897330    12.0063763950
Ni      6.5527982300     1.4187224170    12.0063763950
Ni      7.7814479220     3.5468061070    12.0063763950
Ni      9.0100975760     5.6748897330    12.0063763950
Ni      2.0470853100     0.7105308283    14.0105095177
Ni      3.2757147993     2.8385966189    14.0105158920
Ni      4.5043846606     4.9666963710    14.0105221983
Ni      4.5043711033     0.7105151595    14.0105128329
Ni      5.7330402739     2.8386025601    14.0105169040
Ni      6.9616888551     4.9666955068    14.0105077653
Ni      6.9616745039     0.7105370960    14.0105119039
Ni      8.1903255601     2.8386114078    14.0105067746
Ni      9.4189554959     4.9666906769    14.0105135353
Ni     -0.0005735678     0.0009950643    16.0125326552
Ni      8.5999758716     2.1290742721    16.0125234065
Ni      9.8286175240     4.2571565523    16.0125289586
Ni      2.4567338119     0.0009913119    16.0125242674
Ni      3.6853747892     2.1290670762    16.0125270217
Ni      4.9140322578     4.2571564560    16.0125355308
Ni      4.9140242720     0.0009870874    16.0125260876
Ni      6.1426803829     2.1290705994    16.0125287437
Ni      7.3713304978     4.2571597415    16.0125206135
Cu      1.6386981208     1.4178586010    18.0219027529
Cu      2.8673456057     3.5459422889    18.0219048318
Cu      4.0959966692     5.6740280263    18.0219055297
Cu      4.0959977634     1.4178557950    18.0219033951
Cu      5.3246490370     3.5459413555    18.0219071445
Cu      6.5532990509     5.6740270253    18.0219025075
Cu      6.5532969805     1.4178578494    18.0219034027
Cu      7.7819472451     3.5459429392    18.0219024723
Cu      9.0105948207     5.6740267582    18.0219010204
Cu      2.0478325932     0.7092172256    20.0323810197
Cu      3.2764820112     2.8373006111    20.0323814935
Cu      4.5051318324     4.9653848214    20.0323815600
Cu      4.5051320812     0.7092168518    20.0323808189
Cu      5.7337819038     2.8373004943    20.0323814617
Cu      6.9624316978     4.9653846938    20.0323810066
Cu      6.9624310188     0.7092172518    20.0323808545
Cu      8.1910808488     2.8373009352    20.0323809675
Cu      9.4197301579     4.9653848030    20.0323806647
Cu      0.0007192547    -0.0012458841    22.0397323460
Cu      8.6012670120     2.1268377091    22.0397322541
Cu      9.8299166247     4.2549214462    22.0397325417
Cu      2.4580186259    -0.0012459149    22.0397323123
Cu      3.6866683368     2.1268376858    22.0397323913
Cu      4.9153179669     4.2549214755    22.0397326740
Cu      4.9153179522    -0.0012459170    22.0397325068
Cu      6.1439677321     2.1268377687    22.0397322029
Cu      7.3726173772     4.2549213595    22.0397322148
Cu      1.6472627421     1.4030244086    24.0801162242
Cu      2.8759125443     3.5311083099    24.0801161873
Cu      4.1045620618     5.6591917753    24.0801160747
Cu      4.1045620362     1.4030243349    24.0801160474
Cu      5.3332117485     3.5311079528    24.0801160184
Cu      6.5618614019     5.6591918488    24.0801162058
Cu      6.5618613587     1.4030245348    24.0801162752
Cu      7.7905111000     3.5311081482    24.0801161507
Cu      9.0191606138     5.6591918161    24.0801157616
72
Step 2 | ATOMIC_POSITIONS (angstrom) | Cartesian Angstrom
Ni      0.0000000000     0.0000000000    10.0000000900
Ni      8.6005476670     2.1280836470    10.0000000900
Ni      9.8291973330     4.2561672950    10.0000000900
Ni      2.4572993330     0.0000000000    10.0000000900
Ni      3.6859490000     2.1280836470    10.0000000900
Ni      4.9145986670     4.2561672950    10.0000000900
Ni      4.9145986670     0.0000000000    10.0000000900
Ni      6.1432483330     2.1280836470    10.0000000900
Ni      7.3718980000     4.2561672950    10.0000000900
Ni      1.6381995390     1.4187224170    12.0063763950
Ni      2.8668492300     3.5468061070    12.0063763950
Ni      4.0954988850     5.6748897330    12.0063763950
Ni      4.0954988480     1.4187224170    12.0063763950
Ni      5.3241485390     3.5468061070    12.0063763950
Ni      6.5527981940     5.6748897330    12.0063763950
Ni      6.5527982300     1.4187224170    12.0063763950
Ni      7.7814479220     3.5468061070    12.0063763950
Ni      9.0100975760     5.6748897330    12.0063763950
Ni      2.0461297729     0.7121978730    14.0072058357
Ni      3.2747387296     2.8402565497    14.0072191985
Ni      4.5034334116     4.9683637635    14.0072325257
Ni      4.5033916740     0.7121739030    14.0072163234
Ni      5.7320838633     2.8402776533    14.0072246456
Ni      6.9607279267     4.9683649113    14.0072064263
Ni      6.9607269452     0.7122038833    14.0072196467
Ni      8.1893745769     2.8402774656    14.0072075951
Ni      9.4179851420     4.9683411235    14.0072195312
Ni     -0.0009891723     0.0017258190    16.0057463991
Ni      8.5995594349     2.1298098109    16.0057297185
Ni      9.8281927605     4.2578810258    16.0057398504
Ni      2.4563119424     0.0017228058    16.0057287223
Ni      3.6849445408     2.1298021124    16.0057382269
Ni      4.9136123687     4.2578896249    16.0057514263
Ni      4.9135928344     0.0017143594    16.0057404946
Ni      6.1422585108     2.1298112375    16.0057469159
Ni      7.3709063145     4.2578938759    16.0057278814
Cu      1.6393743183     1.4166928192    18.0171860753
Cu      2.8680196232     3.5447739345    18.0171880511
Cu      4.0966736742     5.6728581477    18.0171936999
Cu      4.0966678064     1.4166912994    18.0171884478
Cu      5.3253225342     3.5447766211    18.0171920678
Cu      6.5539716156     5.6728587808    18.0171839704
Cu      6.5539714677     1.4166937775    18.0171940024
Cu      7.7826203157     3.5447784506    18.0171833398
Cu      9.0112665520     5.6728559444    18.0171901628
Cu      2.0479239976     0.7090594966    20.0326544061
Cu      3.2765730586     2.8371429754    20.0326546952
Cu      4.5052234200     4.9652264444    20.0326554939
Cu      4.5052224760     0.7090591484    20.0326552598
Cu      5.7338729705     2.8371432594    20.0326559080
Cu      6.9625223952     4.9652267403    20.0326539583
Cu      6.9625225192     0.7090596224    20.0326559063
Cu      8.1911721148     2.8371435845    20.0326541907
Cu      9.4198210226     4.9652263557    20.0326543569
Cu      0.0031411438    -0.0054405310    22.0500423862
Cu      8.6036889285     2.1226431679    22.0500423127
Cu      9.8323383266     4.2507267625    22.0500422850
Cu      2.4604403331    -0.0054405655    22.0500422614
Cu      3.6890899853     2.1226431468    22.0500424644
Cu      4.9177397533     4.2507269575    22.0500425422
Cu      4.9177395942    -0.0054405190    22.0500424244
Cu      6.1463894958     2.1226432104    22.0500424003
Cu      7.3750390714     4.2507267140    22.0500421303
Cu      1.6577968621     1.3847790422    24.1185475682
Cu      2.8864465843     3.5128626167    24.1185478145
Cu      4.1150962295     5.6409461469    24.1185475242
Cu      4.1150960570     1.3847788190    24.1185474815
Cu      5.3437460201     3.5128624483    24.1185477363
Cu      6.5723954079     5.6409460502    24.1185473712
Cu      6.5723953456     1.3847790689    24.1185478881
Cu      7.8010450687     3.5128627116    24.1185477275
Cu      9.0296946295     5.6409462140    24.1185474155
