72
Step 1 | ATOMIC_POSITIONS (angstrom) | Cartesian Angstrom
Ni      0.0000000000     0.0000000000    10.0000000900
Ni      8.6005476670     2.1280836470    10.0000000900
Ni      9.8291973330     4.2561672950    10.0000000900
Ni      2.4572993330     0.0000000000    10.0000000900
Ni      3.6859490000     2.1280836470    10.0000000900
Ni      4.9145986670     4.2561672950    10.0000000900
Ni      4.9145986670     0.0000000000    10.0000000900
Ni      6.1432483330     2.1280836470    10.0000000900
Ni      7.3718980000     4.2561672950    10.0000000900
Ni      1.6381995390     1.4187224170    12.0063763950
Ni      2.8668492300     3.5468061070    12.0063763950
Ni      4.0954988850     5.6748897330    12.0063763950
Ni      4.0954988480     1.4187224170    12.0063763950
Ni      5.3241485390     3.5468061070    12.0063763950
Ni      6.5527981940     5.6748897330    12.0063763950
Ni      6.5527982300     1.4187224170    12.0063763950
Ni      7.7814479220     3.5468061070    12.0063763950
Ni      9.0100975760     5.6748897330    12.0063763950
Ni      2.0477494240     0.7093612090    14.0127530410
Ni      3.2763990780     2.8374448350    14.0127530410
Ni      4.5050487700     4.9655285250    14.0127530410
Ni      4.5050488060     0.7093612090    14.0127530410
Ni      5.7336984610     2.8374448350    14.0127530410
Ni      6.9623481520     4.9655285250    14.0127530410
Ni      6.9623481150     0.7093612090    14.0127530410
Ni      8.1909977700     2.8374448350    14.0127530410
Ni      9.4196474610     4.9655285250    14.0127530410
Ni     -0.0009503262     0.0016460133    16.0053959097
Ni      8.5995922849     2.1297208209    16.0054038122
Ni      9.8282530293     4.2578192596    16.0054047048
Ni      2.4563408416     0.0016437733    16.0054047048
Ni      3.6850013386     2.1297287795    16.0054060067
Ni      4.9136451658     4.2578188075    16.0054011842
Ni      4.9136585239     0.0016459721    16.0054038122
Ni      6.1423030938     2.1297208494    16.0054006240
Ni      7.3709471042     4.2578105601    16.0054060067
Cu      1.6386058529     1.4180099957    18.0217204518
Cu      2.8672600260     3.5460986572    18.0217225212
Cu      4.0959070832     5.6741827130    18.0217146976
Cu      4.0959103540     1.4180117217    18.0217236469
Cu      5.3245577249     3.5460973762    18.0217216871
Cu      6.5532054655     5.6741802483    18.0217225212
Cu      6.5532103244     1.4180086486    18.0217180421
Cu      7.7818576492     3.5460943847    18.0217236469
Cu      9.0105113940     5.6741816442    18.0217204518
Cu      2.0477494240     0.7093612090    20.0319749801
Cu      3.2763990780     2.8374448350    20.0319755902
Cu      4.5050487700     4.9655285250    20.0319744845
Cu      4.5050488060     0.7093612090    20.0319754280
Cu      5.7336984610     2.8374448350    20.0319753185
Cu      6.9623481520     4.9655285250    20.0319755902
Cu      6.9623481150     0.7093612090    20.0319744099
Cu      8.1909977700     2.8374448350    20.0319754280
Cu      9.4196474610     4.9655285250    20.0319749801
Cu      0.0024231830    -0.0041970761    22.0462613225
Cu      8.6029707622     2.1238865789    22.0462618839
Cu      9.8316204511     4.2519704838    22.0462615674
Cu      2.4597223191    -0.0041968874    22.0462615674
Cu      3.6883721380     2.1238867301    22.0462623321
Cu      4.9170215651     4.2519707124    22.0462619535
Cu      4.9170218870    -0.0041969961    22.0462618839
Cu      6.1456715165     2.1238865700    22.0462618618
Cu      7.3743210677     4.2519703375    22.0462623321
Cu      1.6471204411     1.4032710320    24.0724474202
Cu      2.8757702986     3.5313547091    24.0724471224
Cu      4.1044198722     5.6594381298    24.0724471784
Cu      4.1044197974     1.4032707325    24.0724474339
Cu      5.3330694179     3.5313546916    24.0724474695
Cu      6.5617189628     5.6594381620    24.0724471224
Cu      6.5617194975     1.4032703284    24.0724470632
Cu      7.7903689986     3.5313544959    24.0724474339
Cu      9.0190184169     5.6594383126    24.0724474202
