72
Step 1 | ATOMIC_POSITIONS (angstrom) | Cartesian Angstrom
Ni      0.0000000000     0.0000000000    10.0000000900
Ni      8.6005476670     2.1280836470    10.0000000900
Ni      9.8291973330     4.2561672950    10.0000000900
Ni      2.4572993330     0.0000000000    10.0000000900
Ni      3.6859490000     2.1280836470    10.0000000900
Ni      4.9145986670     4.2561672950    10.0000000900
Ni      4.9145986670     0.0000000000    10.0000000900
Ni      6.1432483330     2.1280836470    10.0000000900
Ni      7.3718980000     4.2561672950    10.0000000900
Ni      1.6381995390     1.4187224170    12.0063763950
Ni      2.8668492300     3.5468061070    12.0063763950
Ni      4.0954988850     5.6748897330    12.0063763950
Ni      4.0954988480     1.4187224170    12.0063763950
Ni      5.3241485390     3.5468061070    12.0063763950
Ni      6.5527981940     5.6748897330    12.0063763950
Ni      6.5527982300     1.4187224170    12.0063763950
Ni      7.7814479220     3.5468061070    12.0063763950
Ni      9.0100975760     5.6748897330    12.0063763950
Ni      2.0470853100     0.7105308283    14.0105095177
Ni      3.2757147993     2.8385966189    14.0105158920
Ni      4.5043846606     4.9666963710    14.0105221983
Ni      4.5043711033     0.7105151595    14.0105128329
Ni      5.7330402739     2.8386025601    14.0105169040
Ni      6.9616888551     4.9666955068    14.0105077653
Ni      6.9616745039     0.7105370960    14.0105119039
Ni      8.1903255601     2.8386114078    14.0105067746
Ni      9.4189554959     4.9666906769    14.0105135353
Ni     -0.0005735678     0.0009950643    16.0125326552
Ni      8.5999758716     2.1290742721    16.0125234065
Ni      9.8286175240     4.2571565523    16.0125289586
Ni      2.4567338119     0.0009913119    16.0125242674
Ni      3.6853747892     2.1290670762    16.0125270217
Ni      4.9140322578     4.2571564560    16.0125355308
Ni      4.9140242720     0.0009870874    16.0125260876
Ni      6.1426803829     2.1290705994    16.0125287437
Ni      7.3713304978     4.2571597415    16.0125206135
Cu      1.6386981208     1.4178586010    18.0219027529
Cu      2.8673456057     3.5459422889    18.0219048318
Cu      4.0959966692     5.6740280263    18.0219055297
Cu      4.0959977634     1.4178557950    18.0219033951
Cu      5.3246490370     3.5459413555    18.0219071445
Cu      6.5532990509     5.6740270253    18.0219025075
Cu      6.5532969805     1.4178578494    18.0219034027
Cu      7.7819472451     3.5459429392    18.0219024723
Cu      9.0105948207     5.6740267582    18.0219010204
Cu      2.0478325932     0.7092172256    20.0323810197
Cu      3.2764820112     2.8373006111    20.0323814935
Cu      4.5051318324     4.9653848214    20.0323815600
Cu      4.5051320812     0.7092168518    20.0323808189
Cu      5.7337819038     2.8373004943    20.0323814617
Cu      6.9624316978     4.9653846938    20.0323810066
Cu      6.9624310188     0.7092172518    20.0323808545
Cu      8.1910808488     2.8373009352    20.0323809675
Cu      9.4197301579     4.9653848030    20.0323806647
Cu      0.0007192547    -0.0012458841    22.0397323460
Cu      8.6012670120     2.1268377091    22.0397322541
Cu      9.8299166247     4.2549214462    22.0397325417
Cu      2.4580186259    -0.0012459149    22.0397323123
Cu      3.6866683368     2.1268376858    22.0397323913
Cu      4.9153179669     4.2549214755    22.0397326740
Cu      4.9153179522    -0.0012459170    22.0397325068
Cu      6.1439677321     2.1268377687    22.0397322029
Cu      7.3726173772     4.2549213595    22.0397322148
Cu      1.6472627421     1.4030244086    24.0801162242
Cu      2.8759125443     3.5311083099    24.0801161873
Cu      4.1045620618     5.6591917753    24.0801160747
Cu      4.1045620362     1.4030243349    24.0801160474
Cu      5.3332117485     3.5311079528    24.0801160184
Cu      6.5618614019     5.6591918488    24.0801162058
Cu      6.5618613587     1.4030245348    24.0801162752
Cu      7.7905111000     3.5311081482    24.0801161507
Cu      9.0191606138     5.6591918161    24.0801157616
72
Step 2 | ATOMIC_POSITIONS (angstrom) | Cartesian Angstrom
Ni      0.0000000000     0.0000000000    10.0000000900
Ni      8.6005476670     2.1280836470    10.0000000900
Ni      9.8291973330     4.2561672950    10.0000000900
Ni      2.4572993330     0.0000000000    10.0000000900
Ni      3.6859490000     2.1280836470    10.0000000900
Ni      4.9145986670     4.2561672950    10.0000000900
Ni      4.9145986670     0.0000000000    10.0000000900
Ni      6.1432483330     2.1280836470    10.0000000900
Ni      7.3718980000     4.2561672950    10.0000000900
Ni      1.6381995390     1.4187224170    12.0063763950
Ni      2.8668492300     3.5468061070    12.0063763950
Ni      4.0954988850     5.6748897330    12.0063763950
Ni      4.0954988480     1.4187224170    12.0063763950
Ni      5.3241485390     3.5468061070    12.0063763950
Ni      6.5527981940     5.6748897330    12.0063763950
Ni      6.5527982300     1.4187224170    12.0063763950
Ni      7.7814479220     3.5468061070    12.0063763950
Ni      9.0100975760     5.6748897330    12.0063763950
Ni      2.0461297729     0.7121978730    14.0072058357
Ni      3.2747387296     2.8402565497    14.0072191985
Ni      4.5034334116     4.9683637635    14.0072325257
Ni      4.5033916740     0.7121739030    14.0072163234
Ni      5.7320838633     2.8402776533    14.0072246456
Ni      6.9607279267     4.9683649113    14.0072064263
Ni      6.9607269452     0.7122038833    14.0072196467
Ni      8.1893745769     2.8402774656    14.0072075951
Ni      9.4179851420     4.9683411235    14.0072195312
Ni     -0.0009891723     0.0017258190    16.0057463991
Ni      8.5995594349     2.1298098109    16.0057297185
Ni      9.8281927605     4.2578810258    16.0057398504
Ni      2.4563119424     0.0017228058    16.0057287223
Ni      3.6849445408     2.1298021124    16.0057382269
Ni      4.9136123687     4.2578896249    16.0057514263
Ni      4.9135928344     0.0017143594    16.0057404946
Ni      6.1422585108     2.1298112375    16.0057469159
Ni      7.3709063145     4.2578938759    16.0057278814
Cu      1.6393743183     1.4166928192    18.0171860753
Cu      2.8680196232     3.5447739345    18.0171880511
Cu      4.0966736742     5.6728581477    18.0171936999
Cu      4.0966678064     1.4166912994    18.0171884478
Cu      5.3253225342     3.5447766211    18.0171920678
Cu      6.5539716156     5.6728587808    18.0171839704
Cu      6.5539714677     1.4166937775    18.0171940024
Cu      7.7826203157     3.5447784506    18.0171833398
Cu      9.0112665520     5.6728559444    18.0171901628
Cu      2.0479239976     0.7090594966    20.0326544061
Cu      3.2765730586     2.8371429754    20.0326546952
Cu      4.5052234200     4.9652264444    20.0326554939
Cu      4.5052224760     0.7090591484    20.0326552598
Cu      5.7338729705     2.8371432594    20.0326559080
Cu      6.9625223952     4.9652267403    20.0326539583
Cu      6.9625225192     0.7090596224    20.0326559063
Cu      8.1911721148     2.8371435845    20.0326541907
Cu      9.4198210226     4.9652263557    20.0326543569
Cu      0.0031411438    -0.0054405310    22.0500423862
Cu      8.6036889285     2.1226431679    22.0500423127
Cu      9.8323383266     4.2507267625    22.0500422850
Cu      2.4604403331    -0.0054405655    22.0500422614
Cu      3.6890899853     2.1226431468    22.0500424644
Cu      4.9177397533     4.2507269575    22.0500425422
Cu      4.9177395942    -0.0054405190    22.0500424244
Cu      6.1463894958     2.1226432104    22.0500424003
Cu      7.3750390714     4.2507267140    22.0500421303
Cu      1.6577968621     1.3847790422    24.1185475682
Cu      2.8864465843     3.5128626167    24.1185478145
Cu      4.1150962295     5.6409461469    24.1185475242
Cu      4.1150960570     1.3847788190    24.1185474815
Cu      5.3437460201     3.5128624483    24.1185477363
Cu      6.5723954079     5.6409460502    24.1185473712
Cu      6.5723953456     1.3847790689    24.1185478881
Cu      7.8010450687     3.5128627116    24.1185477275
Cu      9.0296946295     5.6409462140    24.1185474155
72
Step 3 | ATOMIC_POSITIONS (angstrom) | Cartesian Angstrom
Ni      0.0000000000     0.0000000000    10.0000000900
Ni      8.6005476670     2.1280836470    10.0000000900
Ni      9.8291973330     4.2561672950    10.0000000900
Ni      2.4572993330     0.0000000000    10.0000000900
Ni      3.6859490000     2.1280836470    10.0000000900
Ni      4.9145986670     4.2561672950    10.0000000900
Ni      4.9145986670     0.0000000000    10.0000000900
Ni      6.1432483330     2.1280836470    10.0000000900
Ni      7.3718980000     4.2561672950    10.0000000900
Ni      1.6381995390     1.4187224170    12.0063763950
Ni      2.8668492300     3.5468061070    12.0063763950
Ni      4.0954988850     5.6748897330    12.0063763950
Ni      4.0954988480     1.4187224170    12.0063763950
Ni      5.3241485390     3.5468061070    12.0063763950
Ni      6.5527981940     5.6748897330    12.0063763950
Ni      6.5527982300     1.4187224170    12.0063763950
Ni      7.7814479220     3.5468061070    12.0063763950
Ni      9.0100975760     5.6748897330    12.0063763950
Ni      2.0445185880     0.7149583204    14.0018455952
Ni      3.2731566412     2.8430205414    14.0018760273
Ni      4.5018381415     4.9711340935    14.0018858374
Ni      4.5018223894     0.7149439710    14.0018526177
Ni      5.7305026152     2.8430298037    14.0018662039
Ni      6.9591312907     4.9711135726    14.0018518313
Ni      6.9591185100     0.7149830469    14.0018464406
Ni      8.1877482119     2.8430348712    14.0018436489
Ni      9.4163875476     4.9711257649    14.0018617239
Ni     -0.0013763574     0.0023881659    15.9960748233
Ni      8.5991643247     2.1304707697    15.9960677539
Ni      9.8278198533     4.2585445756    15.9960822581
Ni      2.4559275562     0.0023697476    15.9960697959
Ni      3.6845819836     2.1304698258    15.9960821979
Ni      4.9132364213     4.2585413101    15.9960913227
Ni      4.9132213396     0.0023804263    15.9960760841
Ni      6.1418752933     2.1304764419    15.9960770679
Ni      7.3705129107     4.2585437642    15.9960628212
Cu      1.6406453714     1.4144856003    18.0098244207
Cu      2.8693011716     3.5425677150    18.0098251019
Cu      4.0979484573     5.6706463612    18.0098264111
Cu      4.0979484387     1.4144896898    18.0098237981
Cu      5.3265981571     3.5425678719    18.0098192048
Cu      6.5552437044     5.6706431377    18.0098189897
Cu      6.5552429857     1.4144906278    18.0098252003
Cu      7.7838871446     3.5425711128    18.0098130711
Cu      9.0125434845     5.6706491764    18.0098282226
Cu      2.0486093562     0.7078711681    20.0359823275
Cu      3.2772604861     2.8359556279    20.0359818077
Cu      4.5059099945     4.9640368021    20.0359831323
Cu      4.5059092245     0.7078720651    20.0359823465
Cu      5.7345587607     2.8359556222    20.0359814758
Cu      6.9632073541     4.9640376382    20.0359798769
Cu      6.9632081055     0.7078716157    20.0359842204
Cu      8.1918564950     2.8359564264    20.0359798757
Cu      9.4205076583     4.9640380745    20.0359828912
Cu      0.0080191129    -0.0138896470    22.0720079416
Cu      8.6085667216     2.1141943790    22.0720073219
Cu      9.8372165357     4.2422778868    22.0720074619
Cu      2.4653182700    -0.0138897316    22.0720073325
Cu      3.6939680851     2.1141943442    22.0720076569
Cu      4.9226178530     4.2422777928    22.0720077328
Cu      4.9226176600    -0.0138894796    22.0720076834
Cu      6.1512675145     2.1141944039    22.0720075342
Cu      7.3799169136     4.2422775639    22.0720071892
Cu      1.6742383556     1.3563013712    24.1754738787
Cu      2.9028882080     3.4843853435    24.1754739277
Cu      4.1315375121     5.6124687388    24.1754736423
Cu      4.1315376940     1.3563012120    24.1754735610
Cu      5.3601874340     3.4843846161    24.1754739924
Cu      6.5888367405     5.6124686427    24.1754735660
Cu      6.5888368877     1.3563016369    24.1754741439
Cu      7.8174864507     3.4843849911    24.1754740201
Cu      9.0461363259     5.6124683209    24.1754739409
72
Step 4 | ATOMIC_POSITIONS (angstrom) | Cartesian Angstrom
Ni      0.0000000000     0.0000000000    10.0000000900
Ni      8.6005476670     2.1280836470    10.0000000900
Ni      9.8291973330     4.2561672950    10.0000000900
Ni      2.4572993330     0.0000000000    10.0000000900
Ni      3.6859490000     2.1280836470    10.0000000900
Ni      4.9145986670     4.2561672950    10.0000000900
Ni      4.9145986670     0.0000000000    10.0000000900
Ni      6.1432483330     2.1280836470    10.0000000900
Ni      7.3718980000     4.2561672950    10.0000000900
Ni      1.6381995390     1.4187224170    12.0063763950
Ni      2.8668492300     3.5468061070    12.0063763950
Ni      4.0954988850     5.6748897330    12.0063763950
Ni      4.0954988480     1.4187224170    12.0063763950
Ni      5.3241485390     3.5468061070    12.0063763950
Ni      6.5527981940     5.6748897330    12.0063763950
Ni      6.5527982300     1.4187224170    12.0063763950
Ni      7.7814479220     3.5468061070    12.0063763950
Ni      9.0100975760     5.6748897330    12.0063763950
Ni      2.0420127484     0.7192478195    13.9941412011
Ni      3.2706911535     2.8473347636    13.9941672185
Ni      4.4993527765     4.9754447447    13.9941705704
Ni      4.4993672188     0.7192577050    13.9941405867
Ni      5.7280240775     2.8473310366    13.9941378822
Ni      6.9566319708     4.9754023088    13.9941376458
Ni      6.9566313121     0.7192890773    13.9941303015
Ni      8.1852350732     2.8473217078    13.9941333546
Ni      9.4139179450     4.9754454177    13.9941590837
Ni     -0.0015490293     0.0026837415    15.9825671435
Ni      8.5989827574     2.1307564635    15.9825755900
Ni      9.8276606515     4.2588451475    15.9825917348
Ni      2.4557488245     0.0026542051    15.9825742549
Ni      3.6844302398     2.1307667404    15.9825978006
Ni      4.9130690085     4.2588325427    15.9825897823
Ni      4.9130650285     0.0026786631    15.9825857243
Ni      6.1417080315     2.1307662097    15.9825783831
Ni      7.3703324073     4.2588257390    15.9825699434
Cu      1.6432543313     1.4099579745    18.0003611283
Cu      2.8719191050     3.5380430167    18.0003672203
Cu      4.1005604536     5.6661209139    18.0003554894
Cu      4.1005674304     1.4099633539    18.0003670146
Cu      5.3292140573     3.5380375853    18.0003575235
Cu      6.5578543256     5.6661126293    18.0003568044
Cu      6.5578559921     1.4099640910    18.0003570505
Cu      7.7864971021     3.5380416149    18.0003503901
Cu      9.0151599511     5.6661254532    18.0003666869
Cu      2.0505616033     0.7044881077    20.0458787365
Cu      3.2792144994     2.8325730255    20.0458794323
Cu      4.5078631566     4.9606536879    20.0458793405
Cu      4.5078628831     0.7044898965    20.0458788571
Cu      5.7365115196     2.8325734254    20.0458755372
Cu      6.9651597420     4.9606544384    20.0458758096
Cu      6.9651607240     0.7044892251    20.0458790572
Cu      8.1938079577     2.8325748381    20.0458727546
Cu      9.4224616317     4.9606552986    20.0458810728
Cu      0.0166546558    -0.0288468751    22.1112686250
Cu      8.6172019309     2.0992373398    22.1112667954
Cu      9.8458522804     4.2273207257    22.1112683196
Cu      2.4739538094    -0.0288469316    22.1112674042
Cu      3.7026035758     2.0992371726    22.1112679521
Cu      4.9312534712     4.2273203861    22.1112686929
Cu      4.9312530612    -0.0288466227    22.1112682610
Cu      6.1599030745     2.0992372638    22.1112672962
Cu      7.3885522765     4.2273205089    22.1112669853
Cu      1.6997852813     1.3120529526    24.2598171992
Cu      2.9284353702     3.4401366034    24.2598167972
Cu      4.1570844862     5.5682199006    24.2598166966
Cu      4.1570847619     1.3120523902    24.2598167429
Cu      5.3857344135     3.4401358771    24.2598170571
Cu      6.6143835851     5.5682198148    24.2598168253
Cu      6.6143837581     1.3120527629    24.2598169912
Cu      7.8430332503     3.4401363873    24.2598172452
Cu      9.0716831433     5.5682196640    24.2598172849
