72
Step 1 | ATOMIC_POSITIONS (crystal) | Cartesian Angstrom
Ni      1.2286420027     0.7093562278     8.0127033495
Ni      0.0000022775     0.0000000000    10.0192033545
Ni      2.4574014795     1.4187657055    12.0249954967
Ni      1.2331049320     0.7119592855    14.0273976365
Ni      2.4572821841     2.8374249112     8.0127033495
Ni      1.2286424588     2.1280686834    10.0192033545
Ni      3.6860876354     3.5467754219    12.0247463236
Ni      2.4633813499     2.8409033998    14.0263654354
Ni      3.6859592251     4.9655574374     8.0127033495
Ni      2.4573194998     4.2562012095    10.0192033545
Ni      4.9147766527     5.6749453522    12.0245989803
Ni      3.6935977562     4.9675245184    14.0204028646
Ni      3.6859223655     0.7093562278     8.0127033495
Ni      2.4572826402     0.0000000000    10.0192033545
Ni      4.9146570313     1.4188341232    12.0247426167
Ni      3.6920091575     0.7129104402    14.0263564748
Ni      4.9145625469     2.8374249112     8.0127033495
Ni      3.6859228216     2.1280686834    10.0192033545
Ni      6.1433658481     3.5468558044    12.0244701258
Ni      4.9223442722     2.8418888476    14.0248832329
Ni      6.1432395878     4.9655574374     8.0127033495
Ni      4.9145998625     4.2562012095    10.0192033545
Ni      7.3721106162     5.6750470530    12.0243451793
Ni      6.1525572590     4.9686825681    14.0185173676
Ni      6.1432764474     0.7093562278     8.0127033495
Ni      4.9146367221     0.0000000000    10.0192033545
Ni      7.3720034408     1.4188505225    12.0246341710
Ni      6.1487991100     0.7150139097    14.0203906252
Ni      7.3719166287     2.8374249112     8.0127033495
Ni      6.1432769035     2.1280686834    10.0192033545
Ni      8.6007593992     3.5469126524    12.0243835029
Ni      7.3792810997     2.8439022236    14.0185137418
Ni      8.6005936697     4.9655574374     8.0127033495
Ni      7.3719539444     4.2562012095    10.0192033545
Ni      9.8294358113     5.6750632575    12.0242332278
Ni      8.6094341634     4.9706620404    14.0115827388
Cu      0.1343767228     0.0775794554    22.2511696122
Cu      1.3944449475     2.2468618984    22.2444292607
Cu      2.6568834773     4.4132323004    22.2459858046
Cu      2.6430628562     0.0841898216    22.2444299158
Cu      0.1357132446     0.0783669040    16.0318761163
Cu      2.6635927858     1.5378254166    18.1035295763
Cu      1.4004640707     0.8085565341    20.1822506027
Cu      3.9033691098     2.2536097129    22.2379347355
Cu      1.3902496916     2.2469435871    16.0408815523
Cu      3.9232535505     3.7071611242    18.1036748603
Cu      2.6606440245     2.9758242204    20.1768082171
Cu      5.1631287967     4.4245695705    22.2391890786
Cu      5.1504125430     0.0943098381    22.2459854706
Cu      2.6410397947     0.0805297255    16.0408938339
Cu      5.1721248227     1.5440547109    18.1036725253
Cu      3.9074621528     0.8162707439    20.1768079511
Cu      6.4133534507     2.2591147890    22.2391888548
Cu      3.8961686784     2.2494487957    16.0472033180
Cu      6.4318881926     3.7134500719    18.1037189469
Cu      5.1677395324     2.9835947061    20.1715605336
Cu      7.6730163362     4.4300181752    22.2404917404
Cu      2.6507648712     4.4110422386    16.0427311159
Cu      5.1834492544     5.8704844521    18.1031462820
Cu      3.9236547633     5.1383559058    20.1712505526
Cu      5.1539076742     4.4182358015    16.0495455233
Cu      7.6892450809     5.8814667760    18.1034198788
Cu      6.4279855289     5.1509608902    20.1661238040
Cu      5.1454643776     0.0901175741    16.0427211369
Cu      7.6757094631     1.5537576258    18.1031429027
Cu      6.4117730429     0.8288053953    20.1712496380
Cu      6.4032659233     2.2542878111    16.0495231006
Cu      8.9381188684     3.7183477383    18.1034190291
Cu      7.6748549989     2.9913182305    20.1661231781
Cu      7.6609071998     4.4230188569    16.0526108015
Cu     10.1947023859     5.8859178781    18.1060457118
Cu      8.9348976219     5.1585669720    20.1603988479
72
Step 2 | ATOMIC_POSITIONS (crystal) | Cartesian Angstrom
Ni      1.2286420027     0.7093562278     8.0127033495
Ni      0.0000022775     0.0000000000    10.0192033545
Ni      2.4576074143     1.4188935531    12.0234287014
Ni      1.2420320590     0.7170995517    14.0187137010
Ni      2.4572821841     2.8374249112     8.0127033495
Ni      1.2286424588     2.1280686834    10.0192033545
Ni      3.6866542185     3.5466867949    12.0222697960
Ni      2.4734671820     2.8464439751    14.0182993833
Ni      3.6859592251     4.9655574374     8.0127033495
Ni      2.4573194998     4.2562012095    10.0192033545
Ni      4.9153085689     5.6755510483    12.0217437149
Ni      3.7050630127     4.9717445725    14.0077895619
Ni      3.6859223655     0.7093562278     8.0127033495
Ni      2.4572826402     0.0000000000    10.0192033545
Ni      4.9148676526     1.4193744284    12.0222566226
Ni      3.7018398289     0.7188636659    14.0182916679
Ni      4.9145625469     2.8374249112     8.0127033495
Ni      3.6859228216     2.1280686834    10.0192033545
Ni      6.1434728385     3.5469136950    12.0210315549
Ni      4.9336624582     2.8484332401    14.0171129700
Ni      6.1432395878     4.9655574374     8.0127033495
Ni      4.9145998625     4.2562012095    10.0192033545
Ni      7.3722767308     5.6759120047    12.0205847803
Ni      6.1647752659     4.9737236770    14.0064882428
Ni      6.1432764474     0.7093562278     8.0127033495
Ni      4.9146367221     0.0000000000    10.0192033545
Ni      7.3727962904     1.4190144565    12.0217460888
Ni      6.1581806519     0.7228196966    14.0077784998
Ni      7.3719166287     2.8374249112     8.0127033495
Ni      6.1432769035     2.1280686834    10.0192033545
Ni      8.6015944461     3.5466195940    12.0206054550
Ni      7.3897522587     2.8519770960    14.0064829533
Ni      8.6005936697     4.9655574374     8.0127033495
Ni      7.3719539444     4.2562012095    10.0192033545
Ni      9.8307832065     5.6758367163    12.0201314417
Ni      8.6209952224     4.9773410931    13.9960989477
Cu      0.1639292488     0.0946416139    22.2715243531
Cu      1.4189078423     2.2406900715    22.2593425728
Cu      2.6754020452     4.3834405972    22.2613547969
Cu      2.6499497887     0.1084615223    22.2593434063
Cu      0.1630435452     0.0941378536    16.0281035395
Cu      2.6907324619     1.5534944374    18.1058019643
Cu      1.4298944892     0.8255480859    20.1949404228
Cu      3.9045524826     2.2542935116    22.2469283667
Cu      1.4069421400     2.2387460594    16.0433078022
Cu      3.9447816520     3.6986124451    18.1055217743
Cu      2.6852318691     2.9677327207    20.1852640368
Cu      5.1582862739     4.4018806868    22.2487841992
Cu      5.1338723515     0.1252428311    22.2613556141
Cu      2.6422869544     0.0990774289    16.0433085125
Cu      5.1754847085     1.5669733785    18.1055179248
Cu      3.9127486602     0.8416094859    20.1852642671
Cu      6.3912836793     2.2662656993    22.2487836609
Cu      3.8863961382     2.2438060702    16.0554823472
Cu      6.4292324238     3.7119179250    18.1052710899
Cu      5.1676858351     2.9835633932    20.1754057232
Cu      7.6451720434     4.4139418482    22.2504019370
Cu      2.6599568349     4.3782319702    16.0454118739
Cu      5.1957351494     5.8379327722    18.1051114131
Cu      3.9426435707     5.1053728095    20.1760060678
Cu      5.1365920574     4.3879830895    16.0578403561
Cu      7.6775760570     5.8557558483    18.1050169873
Cu      6.4224826525     5.1256193978    20.1660640403
Cu      5.1216389127     0.1144782013    16.0454005263
Cu      7.6536641139     1.5806730545    18.1051082543
Cu      6.3927039000     0.8617413208    20.1760055911
Cu      6.3683996052     2.2544218265    16.0578294495
Cu      8.9100188969     3.7210976266    18.1050177981
Cu      7.6501571698     2.9992247197    20.1660641733
Cu      7.6192300173     4.3989641359    16.0613900644
Cu     10.1582316271     5.8648605156    18.1083519155
Cu      8.9050776444     5.1413503320    20.1567976361
72
Step 3 | ATOMIC_POSITIONS (crystal) | Cartesian Angstrom
Ni      1.2286420027     0.7093562278     8.0127033495
Ni      0.0000022775     0.0000000000    10.0192033545
Ni      2.4585549594     1.4194338902    12.0204770838
Ni      1.2538801713     0.7239288978    14.0085592349
Ni      2.4572821841     2.8374249112     8.0127033495
Ni      1.2286424588     2.1280686834    10.0192033545
Ni      3.6876316428     3.5464171680    12.0184189894
Ni      2.4853493265     2.8524095639    14.0101579908
Ni      3.6859592251     4.9655574374     8.0127033495
Ni      2.4573194998     4.2562012095    10.0192033545
Ni      4.9166559262     5.6766801511    12.0173293046
Ni      3.7173950350     4.9774755707    13.9989265073
Ni      3.6859223655     0.7093562278     8.0127033495
Ni      2.4572826402     0.0000000000    10.0192033545
Ni      4.9151150543     1.4203521443    12.0183985645
Ni      3.7129434803     0.7261614636    14.0101444217
Ni      4.9145625469     2.8374249112     8.0127033495
Ni      3.6859228216     2.1280686834    10.0192033545
Ni      6.1439502201     3.5471980778    12.0162007578
Ni      4.9450398791     2.8550059935    14.0110923544
Ni      6.1432395878     4.9655574374     8.0127033495
Ni      4.9145998625     4.2562012095    10.0192033545
Ni      7.3729851761     5.6775367867    12.0152145308
Ni      6.1765977479     4.9800358302    13.9999404466
Ni      6.1432764474     0.7093562278     8.0127033495
Ni      4.9146367221     0.0000000000    10.0192033545
Ni      7.3744492393     1.4196091180    12.0173187029
Ni      6.1693036751     0.7306263461    13.9989170375
Ni      7.3719166287     2.8374249112     8.0127033495
Ni      6.1432769035     2.1280686834    10.0192033545
Ni      8.6033565430     3.5464286041    12.0152291798
Ni      7.4011240433     2.8590672631    13.9999424086
Ni      8.6005936697     4.9655574374     8.0127033495
Ni      7.3719539444     4.2562012095    10.0192033545
Ni      9.8327665982     5.6769809000    12.0142909992
Ni      8.6328101040     4.9841697554    13.9896733187
Cu      0.1880853917     0.1085882775    22.2902768972
Cu      1.4378987077     2.2382176423    22.2760418807
Cu      2.6876435343     4.3646958764    22.2771841069
Cu      2.6573043059     0.1261446182    22.2760428310
Cu      0.1808842316     0.1044342176    16.0287002292
Cu      2.7097544477     1.5644761707    18.1102706834
Cu      1.4520556455     0.8383428439    20.2038625244
Cu      3.9063623613     2.2553381435    22.2611872361
Cu      1.4163563770     2.2319881399    16.0447672059
Cu      3.9581680435     3.6921488513    18.1092446864
Cu      2.7022776951     2.9639167162    20.1925712902
Cu      5.1543497850     4.3850325973    22.2622732271
Cu      5.1237600493     0.1452167798    22.2771857576
Cu      2.6411426562     0.1106055632    16.0447598570
Cu      5.1765796547     1.5817980963    18.1092401363
Cu      3.9179671066     0.8582797818    20.1925711442
Cu      6.3747247432     2.2712804763    22.2622724747
Cu      3.8762708483     2.2379588904    16.0587316319
Cu      6.4245367890     3.7092075700    18.1083282085
Cu      5.1676576012     2.9835470431    20.1809193822
Cu      7.6229198230     4.4010946765    22.2628120276
Cu      2.6620348539     4.3562066796    16.0456970420
Cu      5.2000312010     5.8174515243    18.1086456065
Cu      3.9532413855     5.0864145336    20.1831741861
Cu      5.1202048190     4.3648421911    16.0595053749
Cu      7.6650327111     5.8371576382    18.1078361571
Cu      6.4169721868     5.1086654590    20.1712491029
Cu      5.1035991719     0.1272886251    16.0456825616
Cu      7.6380749719     1.5946329872    18.1086436769
Cu      6.3815845587     0.8803984928    20.1831739235
Cu      6.3401603256     2.2518016826    16.0594998940
Cu      8.8876404022     3.7195352049    18.1078392769
Cu      7.6327193720     3.0029294394    20.1712493170
Cu      7.5849718413     4.3791897901    16.0617194456
Cu     10.1286373424     5.8477745558    18.1100374339
Cu      8.8822265453     5.1281574464    20.1619508450
72
Step 4 | ATOMIC_POSITIONS (crystal) | Cartesian Angstrom
Ni      1.2286420027     0.7093562278     8.0127033495
Ni      0.0000022775     0.0000000000    10.0192033545
Ni      2.4599332944     1.4202308987    12.0168747822
Ni      1.2634444323     0.7294487554    14.0016212398
Ni      2.4572821841     2.8374249112     8.0127033495
Ni      1.2286424588     2.1280686834    10.0192033545
Ni      3.6889126006     3.5468336382    12.0146999885
Ni      2.4943038645     2.8571478292    14.0049636141
Ni      3.6859592251     4.9655574374     8.0127033495
Ni      2.4573194998     4.2562012095    10.0192033545
Ni      4.9183089909     5.6775969859    12.0132057476
Ni      3.7261241215     4.9827380988    13.9955662603
Ni      3.6859223655     0.7093562278     8.0127033495
Ni      2.4572826402     0.0000000000    10.0192033545
Ni      4.9161103187     1.4212574337    12.0146792263
Ni      3.7215213378     0.7315469789    14.0049490396
Ni      4.9145625469     2.8374249112     8.0127033495
Ni      3.6859228216     2.1280686834    10.0192033545
Ni      6.1451617341     3.5479041340    12.0123434261
Ni      4.9530165924     2.8596146906    14.0078457323
Ni      6.1432395878     4.9655574374     8.0127033495
Ni      4.9145998625     4.2562012095    10.0192033545
Ni      7.3744554697     5.6786353817    12.0109801898
Ni      6.1846139895     4.9852327427    13.9985233620
Ni      6.1432764474     0.7093562278     8.0127033495
Ni      4.9146367221     0.0000000000    10.0192033545
Ni      7.3760765940     1.4205800065    12.0131946044
Ni      6.1782274123     0.7355524443    13.9955587883
Ni      7.3719166287     2.8374249112     8.0127033495
Ni      6.1432769035     2.1280686834    10.0192033545
Ni      8.6050497370     3.5471548257    12.0109932854
Ni      7.4096339496     2.8634135304    13.9985287196
Ni      8.6005936697     4.9655574374     8.0127033495
Ni      7.3719539444     4.2562012095    10.0192033545
Ni      9.8345034089     5.6779762620    12.0096919241
Ni      8.6412231334     4.9890260020    13.9901152935
Cu      0.2004541147     0.1157294307    22.3022938345
Cu      1.4462487705     2.2397931876    22.2889615160
Cu      2.6914126687     4.3602132456    22.2888143867
Cu      2.6628439007     0.1325883403    22.2889623949
Cu      0.1859134738     0.1073369300    16.0314730131
Cu      2.7162309991     1.5682150156    18.1148903521
Cu      1.4618475563     0.8439962011    20.2079546428
Cu      3.9079819601     2.2562730854    22.2749519040
Cu      1.4168860635     2.2290634044    16.0450519233
Cu      3.9604152517     3.6899812167    18.1131467597
Cu      2.7079599128     2.9650599883    20.1973704866
Cu      5.1519289163     4.3789814809    22.2747047805
Cu      5.1217626515     0.1507221235    22.2888160634
Cu      2.6388737578     0.1125261699    16.0450425929
Cu      5.1758258272     1.5848278588    18.1131424756
Cu      3.9217983545     0.8626292214    20.1973699548
Cu      6.3682738466     2.2722094552    22.2747039697
Cu      3.8693096527     2.2339411340    16.0572730617
Cu      6.4196550967     3.7063892456    18.1114866801
Cu      5.1675740532     2.9834987927    20.1865724292
Cu      7.6123182010     4.3949740259    22.2737431458
Cu      2.6581087536     4.3489476938    16.0445563401
Cu      5.1971942380     5.8117681521    18.1119359649
Cu      3.9544245661     5.0834678930    20.1901375844
Cu      5.1094549506     4.3552815503    16.0563734706
Cu      7.6556947879     5.8299025609    18.1104344173
Cu      6.4127123235     5.1039424483    20.1790330354
Cu      5.0953494469     0.1275165792    16.0445425959
Cu      7.6317339973     1.5950173751    18.1119352709
Cu      6.3796243091     0.8828964609    20.1901371466
Cu      6.3265058015     2.2472732899    16.0563705972
Cu      8.8766880592     3.7150761786    18.1104385393
Cu      7.6264990826     3.0016015266    20.1790331846
Cu      7.5672606354     4.3689642333    16.0569263851
Cu     10.1132641008     5.8388988431    18.1112358530
Cu      8.8717244613     5.1220941578    20.1718819596
72
Step 5 | ATOMIC_POSITIONS (crystal) | Cartesian Angstrom
Ni      1.2286420027     0.7093562278     8.0127033495
Ni      0.0000022775     0.0000000000    10.0192033545
Ni      2.4624160711     1.4216693583    12.0114597618
Ni      1.2760538088     0.7367283585    13.9936718123
Ni      2.4572821841     2.8374249112     8.0127033495
Ni      1.2286424588     2.1280686834    10.0192033545
Ni      3.6912963528     3.5480174331    12.0096442863
Ni      2.5059581335     2.8636805308    13.9988247456
Ni      3.6859592251     4.9655574374     8.0127033495
Ni      2.4573194998     4.2562012095    10.0192033545
Ni      4.9210423220     5.6787836270    12.0077477368
Ni      3.7372763499     4.9903118769    13.9927727791
Ni      3.6859223655     0.7093562278     8.0127033495
Ni      2.4572826402     0.0000000000    10.0192033545
Ni      4.9183187482     1.4227397610    12.0096274385
Ni      3.7330012603     0.7383765797    13.9988112025
Ni      4.9145625469     2.8374249112     8.0127033495
Ni      3.6859228216     2.1280686834    10.0192033545
Ni      6.1474896529     3.5492578731    12.0076613117
Ni      4.9633868410     2.8656079163    14.0037663527
Ni      6.1432395878     4.9655574374     8.0127033495
Ni      4.9145998625     4.2562012095    10.0192033545
Ni      7.3771398363     5.6799282832    12.0059214813
Ni      6.1948063763     4.9923182972    13.9978016544
Ni      6.1432764474     0.7093562278     8.0127033495
Ni      4.9146367221     0.0000000000    10.0192033545
Ni      7.3784840379     1.4223519906    12.0077413382
Ni      6.1903682391     0.7414213523    13.9927688419
Ni      7.3719166287     2.8374249112     8.0127033495
Ni      6.1432769035     2.1280686834    10.0192033545
Ni      8.6075245013     3.5488347639    12.0059334126
Ni      7.4208712857     2.8687003507    13.9978103329
Ni      8.6005936697     4.9655574374     8.0127033495
Ni      7.3719539444     4.2562012095    10.0192033545
Ni      9.8370613836     5.6794387699    12.0042339100
Ni      8.6521800246     4.9953467120    13.9925795655
Cu      0.2134915087     0.1232566752    22.3173596367
Cu      1.4539527620     2.2436371175    22.3064795485
Cu      2.6934312069     4.3598091794    22.3044226217
Cu      2.6700247000     0.1373382352    22.3064803723
Cu      0.1878515353     0.1084549172    16.0356982442
Cu      2.7200875261     1.5704413657    18.1214639536
Cu      1.4710409548     0.8493040161    20.2128849412
Cu      3.9100977945     2.2574944211    22.2949130700
Cu      1.4139681730     2.2262672493    16.0449062663
Cu      3.9587912555     3.6887348413    18.1187313613
Cu      2.7116752735     2.9685780549    20.2041770166
Cu      5.1488639340     4.3750637316    22.2927052617
Cu      5.1224219026     0.1526721987    22.3044242206
Cu      2.6349909850     0.1113974323    16.0448964884
Cu      5.1739341649     1.5840444732    18.1187280566
Cu      3.9267027181     0.8640878988    20.2041761864
Cu      6.3633482936     2.2715138960    22.2927043147
Cu      3.8605297865     2.2288751144    16.0535977096
Cu      6.4124714314     3.7022418923    18.1160539729
Cu      5.1673181098     2.9833511182    20.1955034233
Cu      7.6020412847     4.3890407849    22.2895700106
Cu      2.6499354828     4.3442854894    16.0425511828
Cu      5.1900397058     5.8090440505    18.1166792408
Cu      3.9523649004     5.0855180059    20.2006165315
Cu      5.0960789095     4.3471566086    16.0505754153
Cu      7.6435589683     5.8234100195    18.1142442020
Cu      6.4069277632     5.1019095078    20.1916301324
Cu      5.0872263309     0.1227672206    16.0425405876
Cu      7.6257969501     1.5901830323    18.1166802267
Cu      6.3803698989     0.8800876886    20.2006158958
Cu      6.3127832664     2.2397535374    16.0505756391
Cu      8.8649972002     3.7078127584    18.1142490959
Cu      7.6218462564     2.9976079883    20.1916302394
Cu      7.5484870750     4.3581237430    16.0489316290
Cu     10.0964736766     5.8292047857    18.1132834527
Cu      8.8613975904     5.1161319303    20.1881084833
72
Step 6 | ATOMIC_POSITIONS (crystal) | Cartesian Angstrom
Ni      1.2286420027     0.7093562278     8.0127033495
Ni      0.0000022775     0.0000000000    10.0192033545
Ni      2.4675762199     1.4246586739    12.0022786282
Ni      1.2964152504     0.7484844182    13.9831587706
Ni      2.4572821841     2.8374249112     8.0127033495
Ni      1.2286424588     2.1280686834    10.0192033545
Ni      3.6962003286     3.5508875429    12.0018938809
Ni      2.5246370587     2.8745226280    13.9901401194
Ni      3.6859592251     4.9655574374     8.0127033495
Ni      2.4573194998     4.2562012095    10.0192033545
Ni      4.9264418622     5.6809753851    11.9995978605
Ni      3.7549983746     5.0031920323    13.9899530677
Ni      3.6859223655     0.7093562278     8.0127033495
Ni      2.4572826402     0.0000000000    10.0192033545
Ni      4.9232445262     1.4255682639    12.0018876769
Ni      3.7517235162     0.7491385505    13.9901304225
Ni      4.9145625469     2.8374249112     8.0127033495
Ni      3.6859228216     2.1280686834    10.0192033545
Ni      6.1525381949     3.5521854446    12.0013914127
Ni      4.9800844952     2.8752572940    13.9972815665
Ni      6.1432395878     4.9655574374     8.0127033495
Ni      4.9145998625     4.2562012095    10.0192033545
Ni      7.3826227064     5.6820463151    11.9992324842
Ni      6.2110421902     5.0041268171    13.9971876077
Ni      6.1432764474     0.7093562278     8.0127033495
Ni      4.9146367221     0.0000000000    10.0192033545
Ni      7.3831026730     1.4259315352    11.9996019857
Ni      6.2103939570     0.7503264135    13.9899546568
Ni      7.3719166287     2.8374249112     8.0127033495
Ni      6.1432769035     2.1280686834    10.0192033545
Ni      8.6121201301     3.5525240369    11.9992411497
Ni      7.4392242090     2.8768604378    13.9971989034
Ni      8.6005936697     4.9655574374     8.0127033495
Ni      7.3719539444     4.2562012095    10.0192033545
Ni      9.8416827391     5.6820844886    11.9970832039
Ni      8.6698179419     5.0055203289    13.9974617656
Cu      0.2310986177     0.1334220685    22.3416302893
Cu      1.4629881870     2.2516160963    22.3358323183
Cu      2.6936377625     4.3651854848    22.3307760129
Cu      2.6814522494     0.1411737756    22.3358329864
Cu      0.1857382651     0.1072336695    16.0425471711
Cu      2.7210233965     1.5709815739    18.1323618333
Cu      1.4821739374     0.8557315145    20.2215975845
Cu      3.9134212403     2.2594128961    22.3293586949
Cu      1.4053854509     2.2228117843    16.0440668183
Cu      3.9511056542     3.6880358154    18.1280756354
Cu      2.7140288903     2.9759525218    20.2167909711
Cu      5.1439838474     4.3732647867    22.3241251059
Cu      5.1271810159     0.1501627535    22.3307771837
Cu      2.6277031696     0.1056927513    16.0440581431
Cu      5.1694853248     1.5777379292    18.1280741793
Cu      3.9342658758     0.8624393143    20.2167895247
Cu      6.3593499500     2.2681870281    22.3241243438
Cu      3.8468550086     2.2209845775    16.0462602047
Cu      6.3996995012     3.6948682834    18.1238535696
Cu      5.1665498967     2.9829078149    20.2123665202
Cu      7.5896022317     4.3818596062    22.3176591134
Cu      2.6334535285     4.3415016560    16.0392130634
Cu      5.1747925362     5.8088988824    18.1249741870
Cu      3.9454286373     5.0945717721    20.2195039362
Cu      5.0753748557     4.3385639074    16.0404606867
Cu      7.6238978913     5.8154660693    18.1210765697
Cu      6.3972523799     5.1025480937    20.2147586269
Cu      5.0765764879     0.1098824725    16.0392083966
Cu      7.6180470518     1.5770508177    18.1249780009
Cu      6.3847424910     0.8695538246    20.2195031838
Cu      6.2949931344     2.2261223717    16.0404654378
Cu      8.8482871299     3.6947581458    18.1210821737
Cu      7.6175613539     2.9889089022    20.2147588864
Cu      7.5229917923     4.3434012215    16.0357510644
Cu     10.0725382412     5.8153852362    18.1177318246
Cu      8.8480707999     5.1084376516    20.2174952828
72
Step 7 | ATOMIC_POSITIONS (crystal) | Cartesian Angstrom
Ni      1.2286420027     0.7093562278     8.0127033495
Ni      0.0000022775     0.0000000000    10.0192033545
Ni      2.4769878102     1.4300826603    11.9897191056
Ni      1.3243920834     0.7646360362    13.9729363293
Ni      2.4572821841     2.8374249112     8.0127033495
Ni      1.2286424588     2.1280686834    10.0192033545
Ni      3.7053485775     3.5569328930    11.9924403633
Ni      2.5503294947     2.8903034387    13.9802778265
Ni      3.6859592251     4.9655574374     8.0127033495
Ni      2.4573194998     4.2562012095    10.0192033545
Ni      4.9357170381     5.6848631067    11.9901706216
Ni      3.7792193686     5.0219495663    13.9877383158
Ni      3.6859223655     0.7093562278     8.0127033495
Ni      2.4572826402     0.0000000000    10.0192033545
Ni      4.9330558932     1.4304584141    11.9924357614
Ni      3.7782422130     0.7634973985    13.9802618251
Ni      4.9145625469     2.8374249112     8.0127033495
Ni      3.6859228216     2.1280686834    10.0192033545
Ni      6.1620505935     3.5576753708    11.9951847669
Ni      5.0037105770     2.8888930858    13.9879133487
Ni      6.1432395878     4.9655574374     8.0127033495
Ni      4.9145998625     4.2562012095    10.0192033545
Ni      7.3924036218     5.6853991517    11.9929595367
Ni      6.2334806388     5.0208745082    13.9956209032
Ni      6.1432764474     0.7093562278     8.0127033495
Ni      4.9146367221     0.0000000000    10.0192033545
Ni      7.3910975781     1.4320171081    11.9901825822
Ni      6.2387454002     0.7619275282    13.9877332307
Ni      7.3719166287     2.8374249112     8.0127033495
Ni      6.1432769035     2.1280686834    10.0192033545
Ni      8.6199049153     3.5593202001    11.9929691297
Ni      7.4649429156     2.8879157645    13.9956334085
Ni      8.6005936697     4.9655574374     8.0127033495
Ni      7.3719539444     4.2562012095    10.0192033545
Ni      9.8495208373     5.6866213532    11.9906360019
Ni      8.6942355751     5.0196232596    14.0032879158
Cu      0.2515255857     0.1452156683    22.3770854460
Cu      1.4716917541     2.2646129063    22.3794057183
Cu      2.6905073956     4.3802992530    22.3708252017
Cu      2.6970595348     0.1422129700    22.3794055626
Cu      0.1756250976     0.1013964754    16.0511611174
Cu      2.7149822407     1.5674929068    18.1477065186
Cu      1.4934666231     0.8622509566    20.2373706983
Cu      3.9178354492     2.2619609630    22.3810963250
Cu      1.3885470918     2.2188221085    16.0423297154
Cu      3.9335932892     3.6880211374    18.1416045403
Cu      2.7133756360     2.9875142176    20.2387999574
Cu      5.1372782888     4.3766667662    22.3723781944
Cu      5.1387042276     0.1398948588    22.3708255163
Cu      2.6158297734     0.0931052547    16.0423188413
Cu      5.1607152933     1.5625783003    18.1416043555
Cu      3.9439517950     0.8560930531    20.2387977294
Cu      6.3589430925     2.2606787398    22.3723775944
Cu      3.8285180248     2.2103965596    16.0354099270
Cu      6.3797316088     3.6833404320    18.1356486827
Cu      5.1647079119     2.9818447848    20.2409143518
Cu      7.5778698983     4.3750864257    22.3621821810
Cu      2.6065431222     4.3424777189    16.0352383221
Cu      5.1487327548     5.8122504454    18.1381015001
Cu      3.9318808731     5.1128881019    20.2496111429
Cu      5.0477846971     4.3317806475    16.0272709442
Cu      7.5959800080     5.8060556900    18.1324229299
Cu      6.3831818109     5.1071903102    20.2513792822
Cu      5.0639663350     0.0860911958    16.0352328283
Cu      7.6079185747     1.5528056475    18.1381084727
Cu      6.3938305012     0.8486626632    20.2496106758
Cu      6.2753247551     2.2056186301    16.0272764834
Cu      8.8261785694     3.6752865395    18.1324300096
Cu      7.6145459299     2.9744014737    20.2513801157
Cu      7.4934824029     4.3263640388    16.0197262739
Cu     10.0420924637     5.7978071922    18.1269780180
Cu      8.8328562793     5.0996536752    20.2623619039
72
Step 8 | ATOMIC_POSITIONS (crystal) | Cartesian Angstrom
Ni      1.2286420027     0.7093562278     8.0127033495
Ni      0.0000022775     0.0000000000    10.0192033545
Ni      2.4822531438     1.4331243563    11.9872298424
Ni      1.3322588052     0.7691787609    13.9744335733
Ni      2.4572821841     2.8374249112     8.0127033495
Ni      1.2286424588     2.1280686834    10.0192033545
Ni      3.7104828922     3.5606302146    11.9914087136
Ni      2.5574994761     2.8954991025    13.9797838065
Ni      3.6859592251     4.9655574374     8.0127033495
Ni      2.4573194998     4.2562012095    10.0192033545
Ni      4.9404723920     5.6872760326    11.9898849216
Ni      3.7857251016     5.0278226560    13.9884280628
Ni      3.6859223655     0.7093562278     8.0127033495
Ni      2.4572826402     0.0000000000    10.0192033545
Ni      4.9388295593     1.4330564908    11.9914048478
Ni      3.7863282178     0.7671101956    13.9797705325
Ni      4.9145625469     2.8374249112     8.0127033495
Ni      3.6859228216     2.1280686834    10.0192033545
Ni      6.1675252993     3.5608314787    11.9957347820
Ni      5.0109595546     2.8930768849    13.9851840741
Ni      6.1432395878     4.9655574374     8.0127033495
Ni      4.9145998625     4.2562012095    10.0192033545
Ni      7.3975067612     5.6873296636    11.9941211630
Ni      6.2398539076     5.0258053078    13.9940905796
Ni      6.1432764474     0.7093562278     8.0127033495
Ni      4.9146367221     0.0000000000    10.0192033545
Ni      7.3955630634     1.4349324345    11.9898968302
Ni      6.2470839055     0.7646266028    13.9884235484
Ni      7.3719166287     2.8374249112     8.0127033495
Ni      6.1432769035     2.1280686834    10.0192033545
Ni      8.6241265403     3.5627711335    11.9941302858
Ni      7.4723999074     2.8909687818    13.9941007046