72
Step 1 | ATOMIC_POSITIONS (angstrom) | Cartesian Angstrom
Ni      1.2286390390     0.7093535490     9.0128649340
Ni      0.0000019230    -0.0000011100    11.0189462060
Ni      2.4571123413     1.4186169478    13.0254955103
Ni      1.2337085754     0.7122827815    15.0213743020
Ni      2.4572760100     2.8374169220     9.0128649340
Ni      1.2286511800     2.1280835430    11.0189462060
Ni      3.6858193288     3.5469875771    13.0252337501
Ni      2.4638416632     2.8411931704    15.0204220507
Ni      3.6859498400     4.9655441370     9.0128649340
Ni      2.4573004370     4.2561681970    11.0189462060
Ni      4.9145441525     5.6749661250    13.0251302622
Ni      3.6939596021     4.9675877176    15.0151599199
Ni      3.6859144660     0.7093535490     9.0128649340
Ni      2.4573019230    -0.0000011100    11.0189462060
Ni      4.9146957399     1.4185200300    13.0252352623
Ni      3.6924695337     0.7131527513    15.0204235207
Ni      4.9145514370     2.8374169220     9.0128649340
Ni      3.6859511800     2.1280835430    11.0189462060
Ni      6.1434205845     3.5469009819    13.0249552643
Ni      4.9226968156     2.8421174711    15.0190088742
Ni      6.1432252670     4.9655441370     9.0128649340
Ni      4.9146004370     4.2561681970    11.0189462060
Ni      7.3721440405     5.6749017561    13.0248334652
Ni      6.1527802600     4.9685902287    15.0133010648
Ni      6.1432636120     0.7093535490     9.0128649340
Ni      4.9146019230    -0.0000011100    11.0189462060
Ni      7.3719397288     1.4186396016    13.0251311786
Ni      6.1490415352     0.7152688761    15.0151595361
Ni      7.3719005830     2.8374169220     9.0128649340
Ni      6.1432511800     2.1280835430    11.0189462060
Ni      8.6006832060     3.5470082900    13.0248329544
Ni      7.3793193792     2.8441647213    15.0132992269
Ni      8.6005744130     4.9655441370     9.0128649340
Ni      7.3719004370     4.2561681970    11.0189462060
Ni      9.8293873595     5.6749978790    13.0246978884
Ni      8.6093404203     4.9706013513    15.0071588783
Cu      0.1339299666     0.0773198128    23.2405651094
Cu      1.3941002386     2.2471363797    23.2340838251
Cu      2.6565868980     4.4132770667    23.2357801938
Cu      2.6431312335     0.0837519568    23.2340836571
Cu      0.1362258201     0.0786475869    17.0335533177
Cu      2.6638680124     1.5379818956    19.1029261719
Cu      1.4013443543     0.8090626314    21.1841060393
Cu      3.9034584194     2.2536589117    23.2276816013
Cu      1.3903500255     2.2470042510    17.0424409134
Cu      3.9232147986     3.7072339428    19.1037762762
Cu      2.6613024902     2.9758378905    21.1791701693
Cu      5.1632767542     4.4245378543    23.2291713545
Cu      5.1503075333     0.0940281033    23.2357801587
Cu      2.6411402362     0.0805732196    17.0424430016
Cu      5.1721691903     1.5439829422    19.1037760911
Cu      3.9078058349     0.8168315789    21.1791702237
Cu      6.4134037130     2.2592551455    23.2291713550
Cu      3.8959749274     2.2493401005    17.0486024136
Cu      6.4317918908     3.7133941479    19.1045222423
Cu      5.1675483783     2.9834823765    21.1741529585
Cu      7.6731326437     4.4300822568    23.2307935262
Cu      2.6508809395     4.4111222421    17.0443422052
Cu      5.1828932503     5.8696623380    19.1028518944
Cu      3.9240812584     5.1388505010    21.1740210886
Cu      5.1536897649     4.4181487399    17.0509189889
Cu      7.6885528977     5.8804527230    19.1038009374
Cu      6.4276186527     5.1513612818    21.1691892747
Cu      5.1455887257     0.0901660445    17.0443424786
Cu      7.6747260946     1.5536832046    19.1028515327
Cu      6.4124190572     0.8289246889    21.1740212442
Cu      6.4030774391     2.2541487053    17.0509171661
Cu      8.9368999927     3.7182528897    19.1038006099
Cu      7.6750217267     2.9907966071    21.1691891219
Cu      7.6605440723     4.4228141100    17.0539370436
Cu     10.1929740146     5.8849147447    19.1061322227
Cu      8.9349585174     5.1585985363    21.1640375589
72
Step 2 | ATOMIC_POSITIONS (angstrom) | Cartesian Angstrom
Ni      1.2286390390     0.7093535490     9.0128649340
Ni      0.0000019230    -0.0000011100    11.0189462060
Ni      2.4572808969     1.4187121789    13.0229957570
Ni      1.2432293220     0.7177778242    15.0053782567
Ni      2.4572760100     2.8374169220     9.0128649340
Ni      1.2286511800     2.1280835430    11.0189462060
Ni      3.6860508627     3.5470133593    13.0222792163
Ni      2.4745008072     2.8468326634    15.0049390622
Ni      3.6859498400     4.9655441370     9.0128649340
Ni      2.4573004370     4.2561681970    11.0189462060
Ni      4.9149453414     5.6755762385    13.0217325809
Ni      3.7058520453     4.9716816903    14.9951335810
Ni      3.6859144660     0.7093535490     9.0128649340
Ni      2.4573019230    -0.0000011100    11.0189462060
Ni      4.9148326136     1.4187063167    13.0222803137
Ni      3.7026824794     0.7195626306    15.0049397431
Ni      4.9145514370     2.8374169220     9.0128649340
Ni      3.6859511800     2.1280835430    11.0189462060
Ni      6.1436399605     3.5470290805    13.0214919761
Ni      4.9342802511     2.8488059255    15.0036346007
Ni      6.1432252670     4.9655441370     9.0128649340
Ni      4.9146004370     4.2561681970    11.0189462060
Ni      7.3725591227     5.6756717564    13.0209615812
Ni      6.1654663959     4.9737187792    14.9935853874
Ni      6.1432636120     0.7093535490     9.0128649340
Ni      4.9146019230    -0.0000011100    11.0189462060
Ni      7.3726681522     1.4186802506    13.0217324939
Ni      6.1585320163     0.7235198983    14.9951331316
Ni      7.3719005830     2.8374169220     9.0128649340
Ni      6.1432511800     2.1280835430    11.0189462060
Ni      8.6015569684     3.5469845236    13.0209603755
Ni      7.3901028977     2.8525881062    14.9935841345
Ni      8.6005744130     4.9655441370     9.0128649340
Ni      7.3719004370     4.2561681970    11.0189462060
Ni      9.8305189189     5.6756519298    13.0204073259
Ni      8.6212091863     4.9774547897    14.9835656761
Cu      0.1636647249     0.0944871104    23.2456183878
Cu      1.4188293448     2.2407477654    23.2337838388
Cu      2.6753643099     4.3828179915    23.2359232230
Cu      2.6499630352     0.1083624716    23.2337837065
Cu      0.1645526379     0.0950013345    17.0310913515
Cu      2.6911247263     1.5537184784    19.1047388330
Cu      1.4323374443     0.8269565746    21.1986076446
Cu      3.9046274088     2.2543337750    23.2214378640
Cu      1.4076960141     2.2388664295    17.0456862651
Cu      3.9445919156     3.6984686528    19.1060394444
Cu      2.6868293047     2.9680757085    21.1899402017
Cu      5.1584313299     4.4014651671    23.2235696812
Cu      5.1333180278     0.1255192981    23.2359232721
Cu      2.6427658131     0.0996632856    17.0456871465
Cu      5.1752667692     1.5668786119    19.1060391806
Cu      3.9138469243     0.8428195659    21.1899402692
Cu      6.3909995352     2.2665953049    23.2235695811
Cu      3.8861660191     2.2436767454    17.0572739054
Cu      6.4286367103     3.7115726721    19.1073698728
Cu      5.1675510878     2.9834839217    21.1806869222
Cu      7.6450205287     4.4138517026    23.2256342736
Cu      2.6604085477     4.3781945133    17.0482548079
Cu      5.1940848482     5.8363508714    19.1049735184
Cu      3.9436681436     5.1061718478    21.1812303747
Cu      5.1361452624     4.3875259731    17.0600464003
Cu      7.6756072694     5.8535089416    19.1064569175
Cu      6.4219264656     5.1258995464    21.1719357349
Cu      5.1218352508     0.1148806378    17.0482545976
Cu      7.6514734592     1.5800311650    19.1049730163
Cu      6.3939119726     0.8622266898    21.1812305283
Cu      6.3677843150     2.2542664440    17.0600452232
Cu      8.9070932142     3.7205135325    19.1064566831
Cu      7.6501251273     2.9985977752    21.1719356266
Cu      7.6182796565     4.3984135917    17.0638000913
Cu     10.1540837634     5.8624614175    19.1092028816
Cu      8.9047303016     5.1411462808    21.1636100462
