72
Step 1 | ATOMIC_POSITIONS (angstrom) | Cartesian Angstrom
Ni      0.0000000000     0.0000000000    10.0000000900
Ni      8.6005476670     2.1280836470    10.0000000900
Ni      9.8291973330     4.2561672950    10.0000000900
Ni      2.4572993330     0.0000000000    10.0000000900
Ni      3.6859490000     2.1280836470    10.0000000900
Ni      4.9145986670     4.2561672950    10.0000000900
Ni      4.9145986670     0.0000000000    10.0000000900
Ni      6.1432483330     2.1280836470    10.0000000900
Ni      7.3718980000     4.2561672950    10.0000000900
Ni      1.6381995390     1.4187224170    12.0063763950
Ni      2.8668492300     3.5468061070    12.0063763950
Ni      4.0954988850     5.6748897330    12.0063763950
Ni      4.0954988480     1.4187224170    12.0063763950
Ni      5.3241485390     3.5468061070    12.0063763950
Ni      6.5527981940     5.6748897330    12.0063763950
Ni      6.5527982300     1.4187224170    12.0063763950
Ni      7.7814479220     3.5468061070    12.0063763950
Ni      9.0100975760     5.6748897330    12.0063763950
Ni      2.0472906968     0.7101298310    14.0110207952
Ni      3.2759692616     2.8382262922    14.0110173660
Ni      4.5046237576     4.9662893175    14.0110214855
Ni      4.5045992535     0.7101590027    14.0110294414
Ni      5.7332546416     2.8382396070    14.0110256585
Ni      6.9618697348     4.9662801675    14.0110214279
Ni      6.9619118759     0.7101563775    14.0110259969
Ni      8.1905262690     2.8382172798    14.0110144258
Ni      9.4192066609     4.9662920654    14.0110216226
Ni     -0.0004804061     0.0008559618    16.0127056651
Ni      8.6000422830     2.1289323690    16.0127033923
Ni      9.8287174706     4.2570108343    16.0127133539
Ni      2.4567984944     0.0008390879    16.0127049324
Ni      3.6854718328     2.1289438748    16.0127041824
Ni      4.9141215751     4.2570109245    16.0126917014
Ni      4.9141057904     0.0008630694    16.0127157268
Ni      6.1427554869     2.1289535423    16.0126956055
Ni      7.3713808145     4.2570055010    16.0127004989
Cu      1.6386694866     1.4179002598    18.0219923264
Cu      2.8673300301     3.5459830720    18.0219972215
Cu      4.0959787593     5.6740678246    18.0219888537
Cu      4.0959768082     1.4179076662    18.0219917497
Cu      5.3246258370     3.5459855679    18.0219768316
Cu      6.5532660252     5.6740630689    18.0219895477
Cu      6.5532707400     1.4179106678    18.0219831296
Cu      7.7819105713     3.5459824238    18.0219880881
Cu      9.0105708123     5.6740720985    18.0220000403
Cu      2.0478273587     0.7092246582    20.0323455062
Cu      3.2764791231     2.8373087084    20.0323456926
Cu      4.5051286435     4.9653918623    20.0323441516
Cu      4.5051277918     0.7092264287    20.0323458106
Cu      5.7337772740     2.8373094155    20.0323422789
Cu      6.9624250625     4.9653912832    20.0323447134
Cu      6.9624267189     0.7092265321    20.0323445754
Cu      8.1910744599     2.8373083635    20.0323450701
Cu      9.4197261921     4.9653926010    20.0323472666
Cu      0.0007149436    -0.0012380156    22.0396801613
Cu      8.6012622460     2.1268455164    22.0396802859
Cu      9.8299123106     4.2549291393    22.0396804901
Cu      2.4580141089    -0.0012383161    22.0396801832
Cu      3.6866640762     2.1268456577    22.0396802924
Cu      4.9153136968     4.2549290460    22.0396799144
Cu      4.9153134549    -0.0012379182    22.0396804096
Cu      6.1439631741     2.1268457678    22.0396798020
Cu      7.3726124588     4.2549290031    22.0396800855
Cu      1.6472613251     1.4030270254    24.0801358135
Cu      2.8759110098     3.5311106595    24.0801359038
Cu      4.1045606828     5.6591942962    24.0801358098
Cu      4.1045606655     1.4030269888    24.0801358247
Cu      5.3332103267     3.5311106097    24.0801358001
Cu      6.5618599846     5.6591942811    24.0801358527
Cu      6.5618599607     1.4030270173    24.0801357932
Cu      7.7905096591     3.5311106650    24.0801357904
Cu      9.0191592699     5.6591943058    24.0801358576
72
Step 2 | ATOMIC_POSITIONS (angstrom) | Cartesian Angstrom
Ni      0.0000000000     0.0000000000    10.0000000900
Ni      8.6005476670     2.1280836470    10.0000000900
Ni      9.8291973330     4.2561672950    10.0000000900
Ni      2.4572993330     0.0000000000    10.0000000900
Ni      3.6859490000     2.1280836470    10.0000000900
Ni      4.9145986670     4.2561672950    10.0000000900
Ni      4.9145986670     0.0000000000    10.0000000900
Ni      6.1432483330     2.1280836470    10.0000000900
Ni      7.3718980000     4.2561672950    10.0000000900
Ni      1.6381995390     1.4187224170    12.0063763950
Ni      2.8668492300     3.5468061070    12.0063763950
Ni      4.0954988850     5.6748897330    12.0063763950
Ni      4.0954988480     1.4187224170    12.0063763950
Ni      5.3241485390     3.5468061070    12.0063763950
Ni      6.5527981940     5.6748897330    12.0063763950
Ni      6.5527982300     1.4187224170    12.0063763950
Ni      7.7814479220     3.5468061070    12.0063763950
Ni      9.0100975760     5.6748897330    12.0063763950
Ni      2.0465676310     0.7113471254    14.0081433432
Ni      3.2752531925     2.8394506317    14.0081453313
Ni      4.5039168292     4.9675365278    14.0081290526
Ni      4.5038965664     0.7113723830    14.0081540137
Ni      5.7325632190     2.8394640819    14.0081320282
Ni      6.9611590269     4.9675051157    14.0081341426
Ni      6.9612190709     0.7113779599    14.0081429993
Ni      8.1898141694     2.8394313726    14.0081385705
Ni      9.4185013647     4.9675211830    14.0081534445
Ni     -0.0007833086     0.0013890615    16.0061643952
Ni      8.5997343756     2.1294587719    16.0061651653
Ni      9.8284055683     4.2575466621    16.0061828323
Ni      2.4564836323     0.0013732537    16.0061688789
Ni      3.6851528811     2.1294710206    16.0061784795
Ni      4.9138112058     4.2575561783    16.0061601211
Ni      4.9138041593     0.0013847916    16.0061852539
Ni      6.1424648655     2.1294726598    16.0061659125
Ni      7.3710839278     4.2575363279    16.0061661748
Cu      1.6393104976     1.4167854806    18.0173948313
Cu      2.8679682887     3.5448702352    18.0174069231
Cu      4.0966205450     5.6729567023    18.0173926745
Cu      4.0966165261     1.4167890099    18.0174066623
Cu      5.3252695328     3.5448732547    18.0173935942
Cu      6.5539095058     5.6729505139    18.0173991572
Cu      6.5539215276     1.4167888656    18.0173936860
Cu      7.7825607584     3.5448665196    18.0173963147
Cu      9.0112171360     5.6729546229    18.0174082033
Cu      2.0479146878     0.7090723936    20.0326524658
Cu      3.2765660030     2.8371560267    20.0326556537
Cu      4.5052160616     4.9652404911    20.0326515050
Cu      4.5052153191     0.7090732726    20.0326545377
Cu      5.7338652711     2.8371578136    20.0326496252
Cu      6.9625135096     4.9652394878    20.0326528828
Cu      6.9625153602     0.7090739527    20.0326495757
Cu      8.1911633185     2.8371560066    20.0326515723
Cu      9.4198146287     4.9652396608    20.0326558768
Cu      0.0031312393    -0.0054230863    22.0499597266
Cu      8.6036785458     2.1226604619    22.0499600314
Cu      9.8323286133     4.2507439692    22.0499607017
Cu      2.4604303403    -0.0054233575    22.0499599937
Cu      3.6890801373     2.1226604867    22.0499607248
Cu      4.9177297850     4.2507442254    22.0499599228
Cu      4.9177296956    -0.0054230918    22.0499605212
Cu      6.1463795019     2.1226607542    22.0499593121
Cu      7.3750289020     4.2507440097    22.0499599723
Cu      1.6577988468     1.3847755032    24.1185840982
Cu      2.8864485422     3.5128591021    24.1185841524
Cu      4.1150981797     5.6409428017    24.1185837583
Cu      4.1150982154     1.3847753193    24.1185838251
Cu      5.3437477701     3.5128591077    24.1185838898
Cu      6.5723976261     5.6409427888    24.1185841029
Cu      6.5723974975     1.3847754102    24.1185838864
Cu      7.8010473100     3.5128590228    24.1185839432
Cu      9.0296967898     5.6409428363    24.1185840244
