72
Step 1 | ATOMIC_POSITIONS (angstrom) | Cartesian Angstrom
Ni      1.2286390390     0.7093535490     9.0128649340
Ni      0.0000019230    -0.0000011100    11.0189462060
Ni      2.4571123413     1.4186169478    13.0254955103
Ni      1.2337085754     0.7122827815    15.0213743020
Ni      2.4572760100     2.8374169220     9.0128649340
Ni      1.2286511800     2.1280835430    11.0189462060
Ni      3.6858193288     3.5469875771    13.0252337501
Ni      2.4638416632     2.8411931704    15.0204220507
Ni      3.6859498400     4.9655441370     9.0128649340
Ni      2.4573004370     4.2561681970    11.0189462060
Ni      4.9145441525     5.6749661250    13.0251302622
Ni      3.6939596021     4.9675877176    15.0151599199
Ni      3.6859144660     0.7093535490     9.0128649340
Ni      2.4573019230    -0.0000011100    11.0189462060
Ni      4.9146957399     1.4185200300    13.0252352623
Ni      3.6924695337     0.7131527513    15.0204235207
Ni      4.9145514370     2.8374169220     9.0128649340
Ni      3.6859511800     2.1280835430    11.0189462060
Ni      6.1434205845     3.5469009819    13.0249552643
Ni      4.9226968156     2.8421174711    15.0190088742
Ni      6.1432252670     4.9655441370     9.0128649340
Ni      4.9146004370     4.2561681970    11.0189462060
Ni      7.3721440405     5.6749017561    13.0248334652
Ni      6.1527802600     4.9685902287    15.0133010648
Ni      6.1432636120     0.7093535490     9.0128649340
Ni      4.9146019230    -0.0000011100    11.0189462060
Ni      7.3719397288     1.4186396016    13.0251311786
Ni      6.1490415352     0.7152688761    15.0151595361
Ni      7.3719005830     2.8374169220     9.0128649340
Ni      6.1432511800     2.1280835430    11.0189462060
Ni      8.6006832060     3.5470082900    13.0248329544
Ni      7.3793193792     2.8441647213    15.0132992269
Ni      8.6005744130     4.9655441370     9.0128649340
Ni      7.3719004370     4.2561681970    11.0189462060
Ni      9.8293873595     5.6749978790    13.0246978884
Ni      8.6093404203     4.9706013513    15.0071588783
Cu      0.1339299666     0.0773198128    23.2405651094
Cu      1.3941002386     2.2471363797    23.2340838251
Cu      2.6565868980     4.4132770667    23.2357801938
Cu      2.6431312335     0.0837519568    23.2340836571
Cu      0.1362258201     0.0786475869    17.0335533177
Cu      2.6638680124     1.5379818956    19.1029261719
Cu      1.4013443543     0.8090626314    21.1841060393
Cu      3.9034584194     2.2536589117    23.2276816013
Cu      1.3903500255     2.2470042510    17.0424409134
Cu      3.9232147986     3.7072339428    19.1037762762
Cu      2.6613024902     2.9758378905    21.1791701693
Cu      5.1632767542     4.4245378543    23.2291713545
Cu      5.1503075333     0.0940281033    23.2357801587
Cu      2.6411402362     0.0805732196    17.0424430016
Cu      5.1721691903     1.5439829422    19.1037760911
Cu      3.9078058349     0.8168315789    21.1791702237
Cu      6.4134037130     2.2592551455    23.2291713550
Cu      3.8959749274     2.2493401005    17.0486024136
Cu      6.4317918908     3.7133941479    19.1045222423
Cu      5.1675483783     2.9834823765    21.1741529585
Cu      7.6731326437     4.4300822568    23.2307935262
Cu      2.6508809395     4.4111222421    17.0443422052
Cu      5.1828932503     5.8696623380    19.1028518944
Cu      3.9240812584     5.1388505010    21.1740210886
Cu      5.1536897649     4.4181487399    17.0509189889
Cu      7.6885528977     5.8804527230    19.1038009374
Cu      6.4276186527     5.1513612818    21.1691892747
Cu      5.1455887257     0.0901660445    17.0443424786
Cu      7.6747260946     1.5536832046    19.1028515327
Cu      6.4124190572     0.8289246889    21.1740212442
Cu      6.4030774391     2.2541487053    17.0509171661
Cu      8.9368999927     3.7182528897    19.1038006099
Cu      7.6750217267     2.9907966071    21.1691891219
Cu      7.6605440723     4.4228141100    17.0539370436
Cu     10.1929740146     5.8849147447    19.1061322227
Cu      8.9349585174     5.1585985363    21.1640375589
72
Step 2 | ATOMIC_POSITIONS (angstrom) | Cartesian Angstrom
Ni      1.2286390390     0.7093535490     9.0128649340
Ni      0.0000019230    -0.0000011100    11.0189462060
Ni      2.4572808969     1.4187121789    13.0229957570
Ni      1.2432293220     0.7177778242    15.0053782567
Ni      2.4572760100     2.8374169220     9.0128649340
Ni      1.2286511800     2.1280835430    11.0189462060
Ni      3.6860508627     3.5470133593    13.0222792163
Ni      2.4745008072     2.8468326634    15.0049390622
Ni      3.6859498400     4.9655441370     9.0128649340
Ni      2.4573004370     4.2561681970    11.0189462060
Ni      4.9149453414     5.6755762385    13.0217325809
Ni      3.7058520453     4.9716816903    14.9951335810
Ni      3.6859144660     0.7093535490     9.0128649340
Ni      2.4573019230    -0.0000011100    11.0189462060
Ni      4.9148326136     1.4187063167    13.0222803137
Ni      3.7026824794     0.7195626306    15.0049397431
Ni      4.9145514370     2.8374169220     9.0128649340
Ni      3.6859511800     2.1280835430    11.0189462060
Ni      6.1436399605     3.5470290805    13.0214919761
Ni      4.9342802511     2.8488059255    15.0036346007
Ni      6.1432252670     4.9655441370     9.0128649340
Ni      4.9146004370     4.2561681970    11.0189462060
Ni      7.3725591227     5.6756717564    13.0209615812
Ni      6.1654663959     4.9737187792    14.9935853874
Ni      6.1432636120     0.7093535490     9.0128649340
Ni      4.9146019230    -0.0000011100    11.0189462060
Ni      7.3726681522     1.4186802506    13.0217324939
Ni      6.1585320163     0.7235198983    14.9951331316
Ni      7.3719005830     2.8374169220     9.0128649340
Ni      6.1432511800     2.1280835430    11.0189462060
Ni      8.6015569684     3.5469845236    13.0209603755
Ni      7.3901028977     2.8525881062    14.9935841345
Ni      8.6005744130     4.9655441370     9.0128649340
Ni      7.3719004370     4.2561681970    11.0189462060
Ni      9.8305189189     5.6756519298    13.0204073259
Ni      8.6212091863     4.9774547897    14.9835656761
Cu      0.1636647249     0.0944871104    23.2456183878
Cu      1.4188293448     2.2407477654    23.2337838388
Cu      2.6753643099     4.3828179915    23.2359232230
Cu      2.6499630352     0.1083624716    23.2337837065
Cu      0.1645526379     0.0950013345    17.0310913515
Cu      2.6911247263     1.5537184784    19.1047388330
Cu      1.4323374443     0.8269565746    21.1986076446
Cu      3.9046274088     2.2543337750    23.2214378640
Cu      1.4076960141     2.2388664295    17.0456862651
Cu      3.9445919156     3.6984686528    19.1060394444
Cu      2.6868293047     2.9680757085    21.1899402017
Cu      5.1584313299     4.4014651671    23.2235696812
Cu      5.1333180278     0.1255192981    23.2359232721
Cu      2.6427658131     0.0996632856    17.0456871465
Cu      5.1752667692     1.5668786119    19.1060391806
Cu      3.9138469243     0.8428195659    21.1899402692
Cu      6.3909995352     2.2665953049    23.2235695811
Cu      3.8861660191     2.2436767454    17.0572739054
Cu      6.4286367103     3.7115726721    19.1073698728
Cu      5.1675510878     2.9834839217    21.1806869222
Cu      7.6450205287     4.4138517026    23.2256342736
Cu      2.6604085477     4.3781945133    17.0482548079
Cu      5.1940848482     5.8363508714    19.1049735184
Cu      3.9436681436     5.1061718478    21.1812303747
Cu      5.1361452624     4.3875259731    17.0600464003
Cu      7.6756072694     5.8535089416    19.1064569175
Cu      6.4219264656     5.1258995464    21.1719357349
Cu      5.1218352508     0.1148806378    17.0482545976
Cu      7.6514734592     1.5800311650    19.1049730163
Cu      6.3939119726     0.8622266898    21.1812305283
Cu      6.3677843150     2.2542664440    17.0600452232
Cu      8.9070932142     3.7205135325    19.1064566831
Cu      7.6501251273     2.9985977752    21.1719356266
Cu      7.6182796565     4.3984135917    17.0638000913
Cu     10.1540837634     5.8624614175    19.1092028816
Cu      8.9047303016     5.1411462808    21.1636100462
72
Step 3 | ATOMIC_POSITIONS (angstrom) | Cartesian Angstrom
Ni      1.2286390390     0.7093535490     9.0128649340
Ni      0.0000019230    -0.0000011100    11.0189462060
Ni      2.4581594483     1.4192179791    13.0175997083
Ni      1.2542230222     0.7241239409    14.9901459721
Ni      2.4572760100     2.8374169220     9.0128649340
Ni      1.2286511800     2.1280835430    11.0189462060
Ni      3.6869861707     3.5470396615    13.0165114928
Ni      2.4857412828     2.8525697854    14.9915277769
Ni      3.6859498400     4.9655441370     9.0128649340
Ni      2.4573004370     4.2561681970    11.0189462060
Ni      4.9161660809     5.6766222576    13.0154061773
Ni      3.7176179902     4.9769257959    14.9802102605
Ni      3.6859144660     0.7093535490     9.0128649340
Ni      2.4573019230    -0.0000011100    11.0189462060
Ni      4.9153222576     1.4195022071    13.0165123272
Ni      3.7132708209     0.7264277189    14.9915278018
Ni      4.9145514370     2.8374169220     9.0128649340
Ni      3.6859511800     2.1280835430    11.0189462060
Ni      6.1442354420     3.5473737884    13.0153051670
Ni      4.9453239029     2.8551822908    14.9918597115
Ni      6.1432252670     4.9655441370     9.0128649340
Ni      4.9146004370     4.2561681970    11.0189462060
Ni      7.3734577783     5.6770719858    13.0142605712
Ni      6.1769866496     4.9796034104    14.9805812823
Ni      6.1432636120     0.7093535490     9.0128649340
Ni      4.9146019230    -0.0000011100    11.0189462060
Ni      7.3741840875     1.4192131852    13.0154056156
Ni      6.1689557412     0.7310868615    14.9802096550
Ni      7.3719005830     2.8374169220     9.0128649340
Ni      6.1432511800     2.1280835430    11.0189462060
Ni      8.6032184298     3.5470639209    13.0142589527
Ni      7.4009585972     2.8596233361    14.9805804818
Ni      8.6005744130     4.9655441370     9.0128649340
Ni      7.3719004370     4.2561681970    11.0189462060
Ni      9.8325357105     5.6768167751    13.0131882384
Ni      8.6326178716     4.9840424057    14.9697544038
Cu      0.1865223474     0.1076840659    23.2475402585
Cu      1.4368543768     2.2383155348    23.2342202584
Cu      2.6870137305     4.3651048166    23.2352371546
Cu      2.6568691994     0.1251888547    23.2342201879
Cu      0.1818809343     0.1050055727    17.0317514690
Cu      2.7085673931     1.5637889307    19.1093408932
Cu      1.4543232006     0.8396500393    21.2061186743
Cu      3.9063816754     2.2553466646    23.2200262879
Cu      1.4169522211     2.2328952526    17.0465737430
Cu      3.9564635338     3.6920285859    19.1103196068
Cu      2.7032609283     2.9651652632    21.1962348771
Cu      5.1548003183     4.3855328347    23.2210946518
Cu      5.1238026929     0.1444646249    23.2352372342
Cu      2.6422229365     0.1106647577    17.0465738985
Cu      5.1756252499     1.5803796499    19.1103192509
Cu      3.9195422096     0.8585050417    21.1962349473
Cu      6.3753863320     2.2714168804    23.2210945912
Cu      3.8770214273     2.2383968959    17.0593757813
Cu      6.4232318121     3.7084521051    19.1113983428
Cu      5.1677551699     2.9836018099    21.1857478617
Cu      7.6240862612     4.4017653725    23.2218215358
Cu      2.6624058880     4.3577840396    17.0483332579
Cu      5.1966752562     5.8170520567    19.1090066441
Cu      3.9537066649     5.0891189914    21.1878750127
Cu      5.1208835390     4.3657039112    17.0609154695
Cu      7.6622935769     5.8355363201    19.1102721826
Cu      6.4166944568     5.1099729193    21.1771104306
Cu      5.1051574579     0.1268156418    17.0483328306
Cu      7.6360553240     1.5919238430    19.1090060861
Cu      6.3841630596     0.8794467799    21.1878751348
Cu      6.3412547200     2.2519605908    17.0609145988
Cu      8.8848716804     3.7179697492    19.1102719788
Cu      7.6337162990     3.0020300108    21.1771103403
Cu      7.5859351114     4.3797398444    17.0635432125
Cu     10.1244598385     5.8453580686    19.1117455570
Cu      8.8829593975     5.1285769066    21.1693512149
72
Step 4 | ATOMIC_POSITIONS (angstrom) | Cartesian Angstrom
Ni      1.2286390390     0.7093535490     9.0128649340
Ni      0.0000019230    -0.0000011100    11.0189462060
Ni      2.4595140341     1.4199995335    13.0120642673
Ni      1.2620750880     0.7286569530    14.9814402185
Ni      2.4572760100     2.8374169220     9.0128649340
Ni      1.2286511800     2.1280835430    11.0189462060
Ni      3.6883509004     3.5473031588    13.0109467413
Ni      2.4932793526     2.8564709378    14.9843524762
Ni      3.6859498400     4.9655441370     9.0128649340
Ni      2.4573004370     4.2561681970    11.0189462060
Ni      4.9178045732     5.6775542472    13.0095132792
Ni      3.7251133788     4.9812410939    14.9739634631
Ni      3.6859144660     0.7093535490     9.0128649340
Ni      2.4573019230    -0.0000011100    11.0189462060
Ni      4.9162323864     1.4205520670    13.0109473204
Ni      3.7204181539     0.7310050661    14.9843523116
Ni      4.9145514370     2.8374169220     9.0128649340
Ni      3.6859511800     2.1280835430    11.0189462060
Ni      6.1452148815     3.5479397557    13.0097001963
Ni      4.9522120518     2.8591593501    14.9862351246
Ni      6.1432252670     4.9655441370     9.0128649340
Ni      4.9146004370     4.2561681970    11.0189462060
Ni      7.3747086999     5.6783007176    13.0083504719
Ni      6.1838762839     4.9840180041    14.9759655775
Ni      6.1432636120     0.7093535490     9.0128649340
Ni      4.9146019230    -0.0000011100    11.0189462060
Ni      7.3758103935     1.4201656284    13.0095125833
Ni      6.1764403903     0.7354202006    14.9739627844
Ni      7.3719005830     2.8374169220     9.0128649340
Ni      6.1432511800     2.1280835430    11.0189462060
Ni      8.6049079381     3.5475333990    13.0083489057
Ni      7.4082263436     2.8633829461    14.9759649487
Ni      8.6005744130     4.9655441370     9.0128649340
Ni      7.3719004370     4.2561681970    11.0189462060
Ni      9.8344945706     5.6779478029    13.0069640442
Ni      8.6399565478     4.9882795821    14.9662162353
Cu      0.1969180772     0.1136860656    23.2469814651
Cu      1.4437793027     2.2398884230    23.2353048777
Cu      2.6899982532     4.3620646510    23.2347974283
Cu      2.6616938780     0.1303996025    23.2353048030
Cu      0.1858545479     0.1072996632    17.0333722026
Cu      2.7130918782     1.5664010882    19.1136463056
Cu      1.4626939228     0.8444828356    21.2065415915
Cu      3.9078910514     2.2562181731    23.2227719000
Cu      1.4172271661     2.2308026329    17.0455880454
Cu      3.9571901076     3.6900200631    19.1138922673
Cu      2.7076972834     2.9668611956    21.1974075631
Cu      5.1528776312     4.3808109226    23.2222185832
Cu      5.1226620377     0.1485693943    23.2347974704
Cu      2.6405480826     0.1119490001    17.0455880217
Cu      5.1742490927     1.5820130834    19.1138919339
Cu      3.9232290898     0.8614991114    21.1974076150
Cu      6.3703356876     2.2721127324    23.2222185276
Cu      3.8715238448     2.2352228383    17.0564811810
Cu      6.4180910771     3.7054841387    19.1141920573
Cu      5.1678522552     2.9836578531    21.1879818626
Cu      7.6154820119     4.3967977746    23.2211644984
Cu      2.6587144020     4.3523988268    17.0461618271
Cu      5.1928989888     5.8129346361    19.1121670470
Cu      3.9540707003     5.0879213906    21.1916086405
Cu      5.1120345814     4.3580897017    17.0566063495
Cu      7.6532690407     5.8296458238    19.1127668391
Cu      6.4130255580     5.1064912902    21.1818602834
Cu      5.0986479760     0.1263113214    17.0461613214
Cu      7.6306013175     1.5907121091    19.1121665568
Cu      6.3833078949     0.8803608667    21.1916086894
Cu      6.3302360913     2.2481041617    17.0566054912
Cu      8.8752581103     3.7130996026    19.1127666893
Cu      7.6288667139     3.0005935182    21.1818601759
Cu      7.5713623046     4.3713263652    17.0577927815
Cu     10.1109054337     5.8375324101    19.1130122249
Cu      8.8742328896     5.1235386159    21.1766247366
