72
Step 1 | ATOMIC_POSITIONS (angstrom) | Cartesian Angstrom
Ni      0.0000000000     0.0000000000    10.0000000900
Ni      8.6005476670     2.1280836470    10.0000000900
Ni      9.8291973330     4.2561672950    10.0000000900
Ni      2.4572993330     0.0000000000    10.0000000900
Ni      3.6859490000     2.1280836470    10.0000000900
Ni      4.9145986670     4.2561672950    10.0000000900
Ni      4.9145986670     0.0000000000    10.0000000900
Ni      6.1432483330     2.1280836470    10.0000000900
Ni      7.3718980000     4.2561672950    10.0000000900
Ni      1.6381995390     1.4187224170    12.0063763950
Ni      2.8668492300     3.5468061070    12.0063763950
Ni      4.0954988850     5.6748897330    12.0063763950
Ni      4.0954988480     1.4187224170    12.0063763950
Ni      5.3241485390     3.5468061070    12.0063763950
Ni      6.5527981940     5.6748897330    12.0063763950
Ni      6.5527982300     1.4187224170    12.0063763950
Ni      7.7814479220     3.5468061070    12.0063763950
Ni      9.0100975760     5.6748897330    12.0063763950
Ni      2.0477494240     0.7093612090    14.0105095270
Ni      3.2763990780     2.8374448350    14.0105159059
Ni      4.5050487700     4.9655285250    14.0105222195
Ni      4.5050488060     0.7093612090    14.0105128491
Ni      5.7336984610     2.8374448350    14.0105169222
Ni      6.9623481520     4.9655285250    14.0105077827
Ni      6.9623481150     0.7093612090    14.0105119184
Ni      8.1909977700     2.8374448350    14.0105068028
Ni      9.4196474610     4.9655285250    14.0105135341
Ni      0.0000000000     0.0000000000    16.0125326634
Ni      8.6005476670     2.1280836470    16.0125234148
Ni      9.8291973330     4.2561672950    16.0125289781
Ni      2.4572993330     0.0000000000    16.0125242794
Ni      3.6859490000     2.1280836470    16.0125270262
Ni      4.9145986670     4.2561672950    16.0125355379
Ni      4.9145986670     0.0000000000    16.0125260963
Ni      6.1432483330     2.1280836470    16.0125287616
Ni      7.3718980000     4.2561672950    16.0125206062
Cu      1.6381995390     1.4187224170    18.0219027487
Cu      2.8668492300     3.5468061070    18.0219048241
Cu      4.0954988850     5.6748897330    18.0219055171
Cu      4.0954988480     1.4187224170    18.0219033733
Cu      5.3241485390     3.5468061070    18.0219071218
Cu      6.5527981940     5.6748897330    18.0219024911
Cu      6.5527982300     1.4187224170    18.0219033832
Cu      7.7814479220     3.5468061070    18.0219024644
Cu      9.0100975760     5.6748897330    18.0219010099
Cu      2.0477494240     0.7093612090    20.0323810165
Cu      3.2763990780     2.8374448350    20.0323814794
Cu      4.5050487700     4.9655285250    20.0323815512
Cu      4.5050488060     0.7093612090    20.0323808119
Cu      5.7336984610     2.8374448350    20.0323814505
Cu      6.9623481520     4.9655285250    20.0323810046
Cu      6.9623481150     0.7093612090    20.0323808513
Cu      8.1909977700     2.8374448350    20.0323809665
Cu      9.4196474610     4.9655285250    20.0323806632
Cu      0.0000000000     0.0000000000    22.0397323353
Cu      8.6005476670     2.1280836470    22.0397322443
Cu      9.8291973330     4.2561672950    22.0397325251
Cu      2.4572993330     0.0000000000    22.0397322917
Cu      3.6859490000     2.1280836470    22.0397323796
Cu      4.9145986670     4.2561672950    22.0397326562
Cu      4.9145986670     0.0000000000    22.0397324934
Cu      6.1432483330     2.1280836470    22.0397321802
Cu      7.3718980000     4.2561672950    22.0397321990
Cu      1.6381995390     1.4187224170    24.0801162281
Cu      2.8668492300     3.5468061070    24.0801161961
Cu      4.0954988850     5.6748897330    24.0801160648
Cu      4.0954988480     1.4187224170    24.0801160359
Cu      5.3241485390     3.5468061070    24.0801160050
Cu      6.5527981940     5.6748897330    24.0801161945
Cu      6.5527982300     1.4187224170    24.0801162668
Cu      7.7814479220     3.5468061070    24.0801161464
Cu      9.0100975760     5.6748897330    24.0801157662
72
Step 2 | ATOMIC_POSITIONS (angstrom) | Cartesian Angstrom
Ni      0.0000000000     0.0000000000    10.0000000900
Ni      8.6005476670     2.1280836470    10.0000000900
Ni      9.8291973330     4.2561672950    10.0000000900
Ni      2.4572993330     0.0000000000    10.0000000900
Ni      3.6859490000     2.1280836470    10.0000000900
Ni      4.9145986670     4.2561672950    10.0000000900
Ni      4.9145986670    -0.0000000000    10.0000000900
Ni      6.1432483330     2.1280836470    10.0000000900
Ni      7.3718980000     4.2561672950    10.0000000900
Ni      1.6381995390     1.4187224170    12.0063763950
Ni      2.8668492300     3.5468061070    12.0063763950
Ni      4.0954988850     5.6748897330    12.0063763950
Ni      4.0954988480     1.4187224170    12.0063763950
Ni      5.3241485390     3.5468061070    12.0063763950
Ni      6.5527981940     5.6748897330    12.0063763950
Ni      6.5527982300     1.4187224170    12.0063763950
Ni      7.7814479220     3.5468061070    12.0063763950
Ni      9.0100975760     5.6748897330    12.0063763950
Ni      2.0477494240     0.7093612090    14.0071015905
Ni      3.2763990780     2.8374448350    14.0071160551
Ni      4.5050487700     4.9655285250    14.0071210046
Ni      4.5050488060     0.7093612090    14.0071113791
Ni      5.7336984610     2.8374448350    14.0071172052
Ni      6.9623481520     4.9655285250    14.0071091986
Ni      6.9623481150     0.7093612090    14.0071058577
Ni      8.1909977700     2.8374448350    14.0071028340
Ni      9.4196474610     4.9655285250    14.0071157413
Ni      0.0000000000     0.0000000000    16.0056846718
Ni      8.6005476670     2.1280836470    16.0056768285
Ni      9.8291973330     4.2561672950    16.0056839347
Ni      2.4572993330     0.0000000000    16.0056771783
Ni      3.6859490000     2.1280836470    16.0056757574
Ni      4.9145986670     4.2561672950    16.0056912878
Ni      4.9145986670    -0.0000000000    16.0056785018
Ni      6.1432483330     2.1280836470    16.0056820171
Ni      7.3718980000     4.2561672950    16.0056737460
Cu      1.6381995390     1.4187224170    18.0174725519
Cu      2.8668492300     3.5468061070    18.0174657337
Cu      4.0954988850     5.6748897330    18.0174669598
Cu      4.0954988480     1.4187224170    18.0174638923
Cu      5.3241485390     3.5468061070    18.0174658490
Cu      6.5527981940     5.6748897330    18.0174698106
Cu      6.5527982300     1.4187224170    18.0174665460
Cu      7.7814479220     3.5468061070    18.0174680912
Cu      9.0100975760     5.6748897330    18.0174654498
Cu      2.0477494240     0.7093612090    20.0324450496
Cu      3.2763990780     2.8374448350    20.0324439630
Cu      4.5050487700     4.9655285250    20.0324440028
Cu      4.5050488060     0.7093612090    20.0324438166
Cu      5.7336984610     2.8374448350    20.0324442714
Cu      6.9623481520     4.9655285250    20.0324443948
Cu      6.9623481150     0.7093612090    20.0324440990
Cu      8.1909977700     2.8374448350    20.0324447625
Cu      9.4196474610     4.9655285250    20.0324431103
Cu      0.0000000000     0.0000000000    22.0490023526
Cu      8.6005476670     2.1280836470    22.0490025287
Cu      9.8291973330     4.2561672950    22.0490022952
Cu      2.4572993330     0.0000000000    22.0490023706
Cu      3.6859490000     2.1280836470    22.0490024957
Cu      4.9145986670     4.2561672950    22.0490024546
Cu      4.9145986670    -0.0000000000    22.0490023604
Cu      6.1432483330     2.1280836470    22.0490023588
Cu      7.3718980000     4.2561672950    22.0490023246
Cu      1.6381995390     1.4187224170    24.1191457080
Cu      2.8668492300     3.5468061070    24.1191454603
Cu      4.0954988850     5.6748897330    24.1191454218
Cu      4.0954988480     1.4187224170    24.1191454612
Cu      5.3241485390     3.5468061070    24.1191450375
Cu      6.5527981940     5.6748897330    24.1191456429
Cu      6.5527982300     1.4187224170    24.1191456298
Cu      7.7814479220     3.5468061070    24.1191455599
Cu      9.0100975760     5.6748897330    24.1191452587
