72
Step 1 | ATOMIC_POSITIONS (angstrom) | Cartesian Angstrom
Ni      0.0000000000     0.0000000000    10.0000000900
Ni      8.6005476670     2.1280836470    10.0000000900
Ni      9.8291973330     4.2561672950    10.0000000900
Ni      2.4572993330     0.0000000000    10.0000000900
Ni      3.6859490000     2.1280836470    10.0000000900
Ni      4.9145986670     4.2561672950    10.0000000900
Ni      4.9145986670     0.0000000000    10.0000000900
Ni      6.1432483330     2.1280836470    10.0000000900
Ni      7.3718980000     4.2561672950    10.0000000900
Ni      1.6381995390     1.4187224170    12.0063763950
Ni      2.8668492300     3.5468061070    12.0063763950
Ni      4.0954988850     5.6748897330    12.0063763950
Ni      4.0954988480     1.4187224170    12.0063763950
Ni      5.3241485390     3.5468061070    12.0063763950
Ni      6.5527981940     5.6748897330    12.0063763950
Ni      6.5527982300     1.4187224170    12.0063763950
Ni      7.7814479220     3.5468061070    12.0063763950
Ni      9.0100975760     5.6748897330    12.0063763950
Ni      2.0472906968     0.7101298310    14.0110207952
Ni      3.2759692616     2.8382262922    14.0110173660
Ni      4.5046237576     4.9662893175    14.0110214855
Ni      4.5045992535     0.7101590027    14.0110294414
Ni      5.7332546416     2.8382396070    14.0110256585
Ni      6.9618697348     4.9662801675    14.0110214279
Ni      6.9619118759     0.7101563775    14.0110259969
Ni      8.1905262690     2.8382172798    14.0110144258
Ni      9.4192066609     4.9662920654    14.0110216226
Ni     -0.0004804061     0.0008559618    16.0127056651
Ni      8.6000422830     2.1289323690    16.0127033923
Ni      9.8287174706     4.2570108343    16.0127133539
Ni      2.4567984944     0.0008390879    16.0127049324
Ni      3.6854718328     2.1289438748    16.0127041824
Ni      4.9141215751     4.2570109245    16.0126917014
Ni      4.9141057904     0.0008630694    16.0127157268
Ni      6.1427554869     2.1289535423    16.0126956055
Ni      7.3713808145     4.2570055010    16.0127004989
Cu      1.6386694866     1.4179002598    18.0219923264
Cu      2.8673300301     3.5459830720    18.0219972215
Cu      4.0959787593     5.6740678246    18.0219888537
Cu      4.0959768082     1.4179076662    18.0219917497
Cu      5.3246258370     3.5459855679    18.0219768316
Cu      6.5532660252     5.6740630689    18.0219895477
Cu      6.5532707400     1.4179106678    18.0219831296
Cu      7.7819105713     3.5459824238    18.0219880881
Cu      9.0105708123     5.6740720985    18.0220000403
Cu      2.0478273587     0.7092246582    20.0323455062
Cu      3.2764791231     2.8373087084    20.0323456926
Cu      4.5051286435     4.9653918623    20.0323441516
Cu      4.5051277918     0.7092264287    20.0323458106
Cu      5.7337772740     2.8373094155    20.0323422789
Cu      6.9624250625     4.9653912832    20.0323447134
Cu      6.9624267189     0.7092265321    20.0323445754
Cu      8.1910744599     2.8373083635    20.0323450701
Cu      9.4197261921     4.9653926010    20.0323472666
Cu      0.0007149436    -0.0012380156    22.0396801613
Cu      8.6012622460     2.1268455164    22.0396802859
Cu      9.8299123106     4.2549291393    22.0396804901
Cu      2.4580141089    -0.0012383161    22.0396801832
Cu      3.6866640762     2.1268456577    22.0396802924
Cu      4.9153136968     4.2549290460    22.0396799144
Cu      4.9153134549    -0.0012379182    22.0396804096
Cu      6.1439631741     2.1268457678    22.0396798020
Cu      7.3726124588     4.2549290031    22.0396800855
Cu      1.6472613251     1.4030270254    24.0801358135
Cu      2.8759110098     3.5311106595    24.0801359038
Cu      4.1045606828     5.6591942962    24.0801358098
Cu      4.1045606655     1.4030269888    24.0801358247
Cu      5.3332103267     3.5311106097    24.0801358001
Cu      6.5618599846     5.6591942811    24.0801358527
Cu      6.5618599607     1.4030270173    24.0801357932
Cu      7.7905096591     3.5311106650    24.0801357904
Cu      9.0191592699     5.6591943058    24.0801358576
72
Step 2 | ATOMIC_POSITIONS (angstrom) | Cartesian Angstrom
Ni      0.0000000000     0.0000000000    10.0000000900
Ni      8.6005476670     2.1280836470    10.0000000900
Ni      9.8291973330     4.2561672950    10.0000000900
Ni      2.4572993330     0.0000000000    10.0000000900
Ni      3.6859490000     2.1280836470    10.0000000900
Ni      4.9145986670     4.2561672950    10.0000000900
Ni      4.9145986670     0.0000000000    10.0000000900
Ni      6.1432483330     2.1280836470    10.0000000900
Ni      7.3718980000     4.2561672950    10.0000000900
Ni      1.6381995390     1.4187224170    12.0063763950
Ni      2.8668492300     3.5468061070    12.0063763950
Ni      4.0954988850     5.6748897330    12.0063763950
Ni      4.0954988480     1.4187224170    12.0063763950
Ni      5.3241485390     3.5468061070    12.0063763950
Ni      6.5527981940     5.6748897330    12.0063763950
Ni      6.5527982300     1.4187224170    12.0063763950
Ni      7.7814479220     3.5468061070    12.0063763950
Ni      9.0100975760     5.6748897330    12.0063763950
Ni      2.0465676310     0.7113471254    14.0081433432
Ni      3.2752531925     2.8394506317    14.0081453313
Ni      4.5039168292     4.9675365278    14.0081290526
Ni      4.5038965664     0.7113723830    14.0081540137
Ni      5.7325632190     2.8394640819    14.0081320282
Ni      6.9611590269     4.9675051157    14.0081341426
Ni      6.9612190709     0.7113779599    14.0081429993
Ni      8.1898141694     2.8394313726    14.0081385705
Ni      9.4185013647     4.9675211830    14.0081534445
Ni     -0.0007833086     0.0013890615    16.0061643952
Ni      8.5997343756     2.1294587719    16.0061651653
Ni      9.8284055683     4.2575466621    16.0061828323
Ni      2.4564836323     0.0013732537    16.0061688789
Ni      3.6851528811     2.1294710206    16.0061784795
Ni      4.9138112058     4.2575561783    16.0061601211
Ni      4.9138041593     0.0013847916    16.0061852539
Ni      6.1424648655     2.1294726598    16.0061659125
Ni      7.3710839278     4.2575363279    16.0061661748
Cu      1.6393104976     1.4167854806    18.0173948313
Cu      2.8679682887     3.5448702352    18.0174069231
Cu      4.0966205450     5.6729567023    18.0173926745
Cu      4.0966165261     1.4167890099    18.0174066623
Cu      5.3252695328     3.5448732547    18.0173935942
Cu      6.5539095058     5.6729505139    18.0173991572
Cu      6.5539215276     1.4167888656    18.0173936860
Cu      7.7825607584     3.5448665196    18.0173963147
Cu      9.0112171360     5.6729546229    18.0174082033
Cu      2.0479146878     0.7090723936    20.0326524658
Cu      3.2765660030     2.8371560267    20.0326556537
Cu      4.5052160616     4.9652404911    20.0326515050
Cu      4.5052153191     0.7090732726    20.0326545377
Cu      5.7338652711     2.8371578136    20.0326496252
Cu      6.9625135096     4.9652394878    20.0326528828
Cu      6.9625153602     0.7090739527    20.0326495757
Cu      8.1911633185     2.8371560066    20.0326515723
Cu      9.4198146287     4.9652396608    20.0326558768
Cu      0.0031312393    -0.0054230863    22.0499597266
Cu      8.6036785458     2.1226604619    22.0499600314
Cu      9.8323286133     4.2507439692    22.0499607017
Cu      2.4604303403    -0.0054233575    22.0499599937
Cu      3.6890801373     2.1226604867    22.0499607248
Cu      4.9177297850     4.2507442254    22.0499599228
Cu      4.9177296956    -0.0054230918    22.0499605212
Cu      6.1463795019     2.1226607542    22.0499593121
Cu      7.3750289020     4.2507440097    22.0499599723
Cu      1.6577988468     1.3847755032    24.1185840982
Cu      2.8864485422     3.5128591021    24.1185841524
Cu      4.1150981797     5.6409428017    24.1185837583
Cu      4.1150982154     1.3847753193    24.1185838251
Cu      5.3437477701     3.5128591077    24.1185838898
Cu      6.5723976261     5.6409427888    24.1185841029
Cu      6.5723974975     1.3847754102    24.1185838864
Cu      7.8010473100     3.5128590228    24.1185839432
Cu      9.0296967898     5.6409428363    24.1185840244
72
Step 3 | ATOMIC_POSITIONS (angstrom) | Cartesian Angstrom
Ni      0.0000000000     0.0000000000    10.0000000900
Ni      8.6005476670     2.1280836470    10.0000000900
Ni      9.8291973330     4.2561672950    10.0000000900
Ni      2.4572993330     0.0000000000    10.0000000900
Ni      3.6859490000     2.1280836470    10.0000000900
Ni      4.9145986670     4.2561672950    10.0000000900
Ni      4.9145986670     0.0000000000    10.0000000900
Ni      6.1432483330     2.1280836470    10.0000000900
Ni      7.3718980000     4.2561672950    10.0000000900
Ni      1.6381995390     1.4187224170    12.0063763950
Ni      2.8668492300     3.5468061070    12.0063763950
Ni      4.0954988850     5.6748897330    12.0063763950
Ni      4.0954988480     1.4187224170    12.0063763950
Ni      5.3241485390     3.5468061070    12.0063763950
Ni      6.5527981940     5.6748897330    12.0063763950
Ni      6.5527982300     1.4187224170    12.0063763950
Ni      7.7814479220     3.5468061070    12.0063763950
Ni      9.0100975760     5.6748897330    12.0063763950
Ni      2.0453599758     0.7134496698    14.0033134289
Ni      3.2740455138     2.8415539927    14.0033194550
Ni      4.5027006338     4.9696438493    14.0033022940
Ni      4.5026792826     0.7134806185    14.0033235740
Ni      5.7313406377     2.8415661674    14.0033104343
Ni      6.9599430355     4.9696201661    14.0033006067
Ni      6.9599919836     0.7134821785    14.0033150549
Ni      8.1885941446     2.8415435466    14.0033106289
Ni      9.4172802712     4.9696407719    14.0033219426
Ni     -0.0009849919     0.0017263891    15.9969518207
Ni      8.5995406471     2.1297987805    15.9969573851
Ni      9.8282132225     4.2578882941    15.9969785579
Ni      2.4562935632     0.0017119754    15.9969604402
Ni      3.6849602190     2.1298088302    15.9969663853
Ni      4.9136096142     4.2578956241    15.9969442172
Ni      4.9136074199     0.0017310476    15.9969695618
Ni      6.1422619358     2.1298062394    15.9969508371
Ni      7.3708889375     4.2578821785    15.9969503352
Cu      1.6405370828     1.4146634538    18.0103282223
Cu      2.8691956054     3.5427465295    18.0103433609
Cu      4.0978433506     5.6708337310    18.0103229156
Cu      4.0978425381     1.4146671941    18.0103366663
Cu      5.3264917171     3.5427500275    18.0103238991
Cu      6.5551372925     5.6708288396    18.0103341686
Cu      6.5551452914     1.4146622540    18.0103257821
Cu      7.7837878174     3.5427444862    18.0103302074
Cu      9.0124432487     5.6708351334    18.0103409151
Cu      2.0485829703     0.7079154192    20.0360561238
Cu      3.2772347219     2.8359977599    20.0360622890
Cu      4.5058835799     4.9640832793    20.0360545593
Cu      4.5058843546     0.7079150752    20.0360611109
Cu      5.7345332491     2.8359994105    20.0360542298
Cu      6.9631824335     4.9640820326    20.0360583055
Cu      6.9631834623     0.7079155460    20.0360539519
Cu      8.1918321969     2.8359980353    20.0360566797
Cu      9.4204835351     4.9640819798    20.0360628433
Cu      0.0080031151    -0.0138616328    22.0717212243
Cu      8.6085507474     2.1142216879    22.0717223437
Cu      9.8372009054     4.2423048918    22.0717242201
Cu      2.4653026339    -0.0138621467    22.0717224865
Cu      3.6939524363     2.1142213431    22.0717241928
Cu      4.9226018295     4.2423053844    22.0717220725
Cu      4.9226019865    -0.0138619323    22.0717236477
Cu      6.1512514963     2.1142218646    22.0717210779
Cu      7.3799012778     4.2423050742    22.0717228328
Cu      1.6742528185     1.3562764278    24.1755269428
Cu      2.9029024693     3.4843598992    24.1755273412
Cu      4.1315521273     5.6124437726    24.1755266604
Cu      4.1315522096     1.3562761613    24.1755269766
Cu      5.3602018192     3.4843599886    24.1755268468
Cu      6.5888515779     5.6124438011    24.1755270308
Cu      6.5888513837     1.3562764174    24.1755266286
Cu      7.8175012350     3.4843600142    24.1755268973
Cu      9.0461507537     5.6124436495    24.1755270342
72
Step 4 | ATOMIC_POSITIONS (angstrom) | Cartesian Angstrom
Ni      0.0000000000     0.0000000000    10.0000000900
Ni      8.6005476670     2.1280836470    10.0000000900
Ni      9.8291973330     4.2561672950    10.0000000900
Ni      2.4572993330     0.0000000000    10.0000000900
Ni      3.6859490000     2.1280836470    10.0000000900
Ni      4.9145986670     4.2561672950    10.0000000900
Ni      4.9145986670     0.0000000000    10.0000000900
Ni      6.1432483330     2.1280836470    10.0000000900
Ni      7.3718980000     4.2561672950    10.0000000900
Ni      1.6381995390     1.4187224170    12.0063763950
Ni      2.8668492300     3.5468061070    12.0063763950
Ni      4.0954988850     5.6748897330    12.0063763950
Ni      4.0954988480     1.4187224170    12.0063763950
Ni      5.3241485390     3.5468061070    12.0063763950
Ni      6.5527981940     5.6748897330    12.0063763950
Ni      6.5527982300     1.4187224170    12.0063763950
Ni      7.7814479220     3.5468061070    12.0063763950
Ni      9.0100975760     5.6748897330    12.0063763950
Ni      2.0434572711     0.7167618995    13.9959584783
Ni      3.2721221151     2.8448672189    13.9959728811
Ni      4.5007649924     4.9729894498    13.9959551483
Ni      4.5007725746     0.7167707988    13.9959603607
Ni      5.7294230327     2.8448595637    13.9959684258
Ni      6.9580567301     4.9729726760    13.9959503902
Ni      6.9580487423     0.7167800066    13.9959540368
Ni      8.1866848050     2.8448697689    13.9959670507
Ni      9.4153490428     4.9729978484    13.9959673492
Ni     -0.0008822355     0.0015147857    15.9840534642
Ni      8.5996641862     2.1295902835    15.9840704983
Ni      9.8283220186     4.2577041357    15.9840820438
Ni      2.4564264244     0.0015068964    15.9840684175
Ni      3.6850796066     2.1295875960    15.9840811567
Ni      4.9137223403     4.2576955585    15.9840642889
Ni      4.9137296395     0.0015181183    15.9840628735
Ni      6.1423771632     2.1295782697    15.9840646455
Ni      7.3710244193     4.2576954676    15.9840592748
Cu      1.6430836748     1.4102538201    18.0014069969
Cu      2.8717364344     3.5383446034    18.0014231441
Cu      4.1003819659     5.6664276348    18.0013949161
Cu      4.1003884180     1.4102528567    18.0014128908
Cu      5.3290345852     3.5383435817    18.0014016993
Cu      6.5576878623     5.6664258279    18.0014072126
Cu      6.5576859978     1.4102479555    18.0013984940
Cu      7.7863358025     3.5383449456    18.0014038376
Cu      9.0149864485     5.6664311730    18.0014061324
Cu      2.0504993683     0.7045969993    20.0460357402
Cu      3.2791506222     2.8326788859    20.0460464647
Cu      4.5077983205     4.9607661120    20.0460326323
Cu      4.5078005434     0.7045954530    20.0460413983
Cu      5.7364488447     2.8326807294    20.0460338209
Cu      6.9650996807     4.9607645769    20.0460389583
Cu      6.9650984516     0.7045958540    20.0460331128
Cu      8.1937485557     2.8326802179    20.0460376133
Cu      9.4223989466     4.9607646162    20.0460433054
Cu      0.0166336500    -0.0288105868    22.1107972363
Cu      8.6171816105     2.0992724323    22.1107994375
Cu      9.8458319323     4.2273555404    22.1108029654
Cu      2.4739335102    -0.0288111239    22.1107990686
Cu      3.7025835604     2.0992717486    22.1108029868
Cu      4.9312324714     4.2273565802    22.1107981273
Cu      4.9312330260    -0.0288114830    22.1108017570
Cu      6.1598822532     2.0992726359    22.1107973464
Cu      7.3885323867     4.2273559856    22.1108002194
Cu      1.6997950181     1.3120357704    24.2599217836
Cu      2.9284448182     3.4401191917    24.2599230760
Cu      4.1570943228     5.5682033416    24.2599215189
Cu      4.1570947042     1.3120353791    24.2599225387
Cu      5.3857441318     3.4401194546    24.2599216613
Cu      6.6143938927     5.5682033318    24.2599221607
Cu      6.6143935563     1.3120358253    24.2599213740
Cu      7.8430435049     3.4401194566    24.2599221344
Cu      9.0716931245     5.5682029100    24.2599223549
