72
Step 1 | ATOMIC_POSITIONS (angstrom) | Cartesian Angstrom
Ni      0.0000000000     0.0000000000    10.0000000900
Ni      8.6005476670     2.1280836470    10.0000000900
Ni      9.8291973330     4.2561672950    10.0000000900
Ni      2.4572993330     0.0000000000    10.0000000900
Ni      3.6859490000     2.1280836470    10.0000000900
Ni      4.9145986670     4.2561672950    10.0000000900
Ni      4.9145986670     0.0000000000    10.0000000900
Ni      6.1432483330     2.1280836470    10.0000000900
Ni      7.3718980000     4.2561672950    10.0000000900
Ni      1.6381995390     1.4187224170    12.0063763950
Ni      2.8668492300     3.5468061070    12.0063763950
Ni      4.0954988850     5.6748897330    12.0063763950
Ni      4.0954988480     1.4187224170    12.0063763950
Ni      5.3241485390     3.5468061070    12.0063763950
Ni      6.5527981940     5.6748897330    12.0063763950
Ni      6.5527982300     1.4187224170    12.0063763950
Ni      7.7814479220     3.5468061070    12.0063763950
Ni      9.0100975760     5.6748897330    12.0063763950
Ni      2.0477494240     0.7093612090    14.1640614080
Ni      3.2763990780     2.8374448350    14.1640729510
Ni      4.5050487700     4.9655285250    14.1640397250
Ni      4.5050488060     0.7093612090    14.1640710440
Ni      5.7336984610     2.8374448350    14.1640423650
Ni      6.9623481520     4.9655285250    14.1640482520
Ni      6.9623481150     0.7093612090    14.1640292020
Ni      8.1909977700     2.8374448350    14.1640591990
Ni      9.4196474610     4.9655285250    14.1640542750
Ni      0.0007993438    -0.0013739079    16.3282391863
Ni      8.6013566394     2.1267094496    16.3282828552
Ni      9.8299801878     4.2547782929    16.3282727308
Ni      2.4581103710    -0.0013669720    16.3282717655
Ni      3.6867337280     2.1266922554    16.3282937657
Ni      4.9153989960     4.2547865477    16.3282536842
Ni      4.9153753300    -0.0013776570    16.3282883860
Ni      6.1440416509     2.1267049794    16.3282651885
Ni      7.3727016390     4.2547968639    16.3282610512
Cu      1.6393238836     1.4167856362    18.5438029202
Cu      2.8679656257     3.5448595666    18.5438183018
Cu      4.0966218171     5.6729514841    18.5437657346
Cu      4.0966143016     1.4167801669    18.5438341061
Cu      5.3252705758     3.5448641102    18.5437792943
Cu      6.5539229956     5.6729530562    18.5437873971
Cu      6.5539177531     1.4167845443    18.5437821894
Cu      7.7825692861     3.5448672378    18.5437778532
Cu      9.0112094613     5.6729516775    18.5438314539
Cu      2.0477494240     0.7093612090    20.7902126970
Cu      3.2763990780     2.8374448350    20.7902464750
Cu      4.5050487700     4.9655285250    20.7901894570
Cu      4.5050488060     0.7093612090    20.7902646290
Cu      5.7336984610     2.8374448350    20.7902077890
Cu      6.9623481520     4.9655285250    20.7902013200
Cu      6.9623481150     0.7093612090    20.7901985810
Cu      8.1909977700     2.8374448350    20.7901995150
Cu      9.4196474610     4.9655285250    20.7902560580
Cu      0.0000000000     0.0000000000    23.0269984560
Cu      8.6005476670     2.1280836470    23.0270021480
Cu      9.8291973330     4.2561672950    23.0270571880
Cu      2.4572993330     0.0000000000    23.0270017780
Cu      3.6859490000     2.1280836470    23.0270601890
Cu      4.9145986670     4.2561672950    23.0270145410
Cu      4.9145986670     0.0000000000    23.0270616010
Cu      6.1432483330     2.1280836470    23.0270229140
Cu      7.3718980000     4.2561672950    23.0270045470
Cu      1.6410219227     1.4138343519    25.2850191772
Cu      2.8696712643     3.5419178834    25.2850631349
Cu      4.0983208713     5.6700015605    25.2850089346
Cu      4.0983209856     1.4138345051    25.2850797842
Cu      5.3269704619     3.5419179953    25.2850388044
Cu      6.5556207586     5.6700015550    25.2850052484
Cu      6.5556200475     1.4138343896    25.2850449895
Cu      7.7842701350     3.5419180104    25.2850183303
Cu      9.0129198014     5.6700015745    25.2850659661
72
Step 2 | ATOMIC_POSITIONS (angstrom) | Cartesian Angstrom
Ni      0.0000000000     0.0000000000    10.0000000900
Ni      8.6005476670     2.1280836470    10.0000000900
Ni      9.8291973330     4.2561672950    10.0000000900
Ni      2.4572993330     0.0000000000    10.0000000900
Ni      3.6859490000     2.1280836470    10.0000000900
Ni      4.9145986670     4.2561672950    10.0000000900
Ni      4.9145986670    -0.0000000000    10.0000000900
Ni      6.1432483330     2.1280836470    10.0000000900
Ni      7.3718980000     4.2561672950    10.0000000900
Ni      1.6381995390     1.4187224170    12.0063763950
Ni      2.8668492300     3.5468061070    12.0063763950
Ni      4.0954988850     5.6748897330    12.0063763950
Ni      4.0954988480     1.4187224170    12.0063763950
Ni      5.3241485390     3.5468061070    12.0063763950
Ni      6.5527981940     5.6748897330    12.0063763950
Ni      6.5527982300     1.4187224170    12.0063763950
Ni      7.7814479220     3.5468061070    12.0063763950
Ni      9.0100975760     5.6748897330    12.0063763950
Ni      2.0477494240     0.7093612090    14.1640614080
Ni      3.2763990780     2.8374448350    14.1640729510
Ni      4.5050487700     4.9655285250    14.1640397250
Ni      4.5050488060     0.7093612090    14.1640710440
Ni      5.7336984610     2.8374448350    14.1640423650
Ni      6.9623481520     4.9655285250    14.1640482520
Ni      6.9623481150     0.7093612090    14.1640292020
Ni      8.1909977700     2.8374448350    14.1640591990
Ni      9.4196474610     4.9655285250    14.1640542750
Ni      0.0016823641    -0.0028889094    16.3283418447
Ni      8.6022498230     2.1251901511    16.3283751444
Ni      9.8308475965     4.2532494469    16.3283642886
Ni      2.4590032548    -0.0028740219    16.3283581896
Ni      3.6876010302     2.1251572252    16.3283794061
Ni      4.9162811452     4.2532662105    16.3283521526
Ni      4.9162296324    -0.0028921923    16.3283779736
Ni      6.1449110182     2.1251853373    16.3283691652
Ni      7.3735821919     4.2532900389    16.3283558266
Cu      1.6405619303     1.4146524515    18.5435873996
Cu      2.8691961446     3.5427186029    18.5436120559
Cu      4.0978580540     5.6708184765    18.5435635116
Cu      4.0978416694     1.4146435524    18.5436167501
Cu      5.3265037656     3.5427281541    18.5435738171
Cu      6.5551590165     5.6708234279    18.5435714598
Cu      6.5551482777     1.4146514945    18.5435768172
Cu      7.7838020210     3.5427349032    18.5435671602
Cu      9.0124333392     5.6708206642    18.5436218992
Cu      2.0477494240     0.7093612090    20.7902126970
Cu      3.2763990780     2.8374448350    20.7902464750
Cu      4.5050487700     4.9655285250    20.7901894570
Cu      4.5050488060     0.7093612090    20.7902646290
Cu      5.7336984610     2.8374448350    20.7902077890
Cu      6.9623481520     4.9655285250    20.7902013200
Cu      6.9623481150     0.7093612090    20.7901985810
Cu      8.1909977700     2.8374448350    20.7901995150
Cu      9.4196474610     4.9655285250    20.7902560580
Cu      0.0000000000     0.0000000000    23.0269984560
Cu      8.6005476670     2.1280836470    23.0270021480
Cu      9.8291973330     4.2561672950    23.0270571880
Cu      2.4572993330     0.0000000000    23.0270017780
Cu      3.6859490000     2.1280836470    23.0270601890
Cu      4.9145986670     4.2561672950    23.0270145410
Cu      4.9145986670    -0.0000000000    23.0270616010
Cu      6.1432483330     2.1280836470    23.0270229140
Cu      7.3718980000     4.2561672950    23.0270045470
Cu      1.6441266346     1.4084577923    25.2849377303
Cu      2.8727753552     3.5365408169    25.2849833721
Cu      4.1014250583     5.6646246368    25.2849279784
Cu      4.1014250178     1.4084580876    25.2849987293
Cu      5.3300744608     3.5365410280    25.2849566621
Cu      6.5587254125     5.6646250438    25.2849248368
Cu      6.5587240159     1.4084576170    25.2849631698
Cu      7.7873744749     3.5365412766    25.2849370455
Cu      9.0160240367     5.6646247047    25.2849864615
72
Step 3 | ATOMIC_POSITIONS (angstrom) | Cartesian Angstrom
Ni      0.0000000000     0.0000000000    10.0000000900
Ni      8.6005476670     2.1280836470    10.0000000900
Ni      9.8291973330     4.2561672950    10.0000000900
Ni      2.4572993330     0.0000000000    10.0000000900
Ni      3.6859490000     2.1280836470    10.0000000900
Ni      4.9145986670     4.2561672950    10.0000000900
Ni      4.9145986670    -0.0000000000    10.0000000900
Ni      6.1432483330     2.1280836470    10.0000000900
Ni      7.3718980000     4.2561672950    10.0000000900
Ni      1.6381995390     1.4187224170    12.0063763950
Ni      2.8668492300     3.5468061070    12.0063763950
Ni      4.0954988850     5.6748897330    12.0063763950
Ni      4.0954988480     1.4187224170    12.0063763950
Ni      5.3241485390     3.5468061070    12.0063763950
Ni      6.5527981940     5.6748897330    12.0063763950
Ni      6.5527982300     1.4187224170    12.0063763950
Ni      7.7814479220     3.5468061070    12.0063763950
Ni      9.0100975760     5.6748897330    12.0063763950
Ni      2.0477494240     0.7093612090    14.1640614080
Ni      3.2763990780     2.8374448350    14.1640729510
Ni      4.5050487700     4.9655285250    14.1640397250
Ni      4.5050488060     0.7093612090    14.1640710440
Ni      5.7336984610     2.8374448350    14.1640423650
Ni      6.9623481520     4.9655285250    14.1640482520
Ni      6.9623481150     0.7093612090    14.1640292020
Ni      8.1909977700     2.8374448350    14.1640591990
Ni      9.4196474610     4.9655285250    14.1640542750
Ni      0.0029724247    -0.0051499884    16.3283096550
Ni      8.6035449600     2.1229562987    16.3283232015
Ni      9.8321362985     4.2509886316    16.3283077089
Ni      2.4603074490    -0.0051334874    16.3283200433
Ni      3.6888963024     2.1229138489    16.3283335410
Ni      4.9175769837     4.2510032812    16.3283196631
Ni      4.9175499213    -0.0051722189    16.3283339285
Ni      6.1462335101     2.1229284300    16.3283399644
Ni      7.3749097975     4.2510167106    16.3283075870
Cu      1.6424083625     1.4114528232    18.5433383947
Cu      2.8710400960     3.5395148066    18.5433610517
Cu      4.0997033547     5.6676093990    18.5433210290
Cu      4.0996957381     1.4114363821    18.5433774526
Cu      5.3283580480     3.5395186453    18.5433330133
Cu      6.5570155225     5.6676080372    18.5433328842
Cu      6.5570055914     1.4114441195    18.5433306657
Cu      7.7856600968     3.5395237502    18.5433102208
Cu      9.0142886788     5.6676056900    18.5433703624
Cu      2.0477494240     0.7093612090    20.7902126970
Cu      3.2763990780     2.8374448350    20.7902464750
Cu      4.5050487700     4.9655285250    20.7901894570
Cu      4.5050488060     0.7093612090    20.7902646290
Cu      5.7336984610     2.8374448350    20.7902077890
Cu      6.9623481520     4.9655285250    20.7902013200
Cu      6.9623481150     0.7093612090    20.7901985810
Cu      8.1909977700     2.8374448350    20.7901995150
Cu      9.4196474610     4.9655285250    20.7902560580
Cu      0.0000000000     0.0000000000    23.0269984560
Cu      8.6005476670     2.1280836470    23.0270021480
Cu      9.8291973330     4.2561672950    23.0270571880
Cu      2.4572993330     0.0000000000    23.0270017780
Cu      3.6859490000     2.1280836470    23.0270601890
Cu      4.9145986670     4.2561672950    23.0270145410
Cu      4.9145986670    -0.0000000000    23.0270616010
Cu      6.1432483330     2.1280836470    23.0270229140
Cu      7.3718980000     4.2561672950    23.0270045470
Cu      1.6487781351     1.4003993058    25.2845685878
Cu      2.8774278673     3.5284833697    25.2846154940
Cu      4.1060769156     5.6565670384    25.2845584359
Cu      4.1060784102     1.4003995970    25.2846302173
Cu      5.3347267280     3.5284839381    25.2845871177
Cu      6.5633785679     5.6565652640    25.2845561694
Cu      6.5633759583     1.4003999012    25.2845929982
Cu      7.7920268448     3.5284828786    25.2845672502
Cu      9.0206768065     5.6565669632    25.2846182662
72
Step 4 | ATOMIC_POSITIONS (angstrom) | Cartesian Angstrom
Ni      0.0000000000     0.0000000000    10.0000000900
Ni      8.6005476670     2.1280836470    10.0000000900
Ni      9.8291973330     4.2561672950    10.0000000900
Ni      2.4572993330     0.0000000000    10.0000000900
Ni      3.6859490000     2.1280836470    10.0000000900
Ni      4.9145986670     4.2561672950    10.0000000900
Ni      4.9145986670    -0.0000000000    10.0000000900
Ni      6.1432483330     2.1280836470    10.0000000900
Ni      7.3718980000     4.2561672950    10.0000000900
Ni      1.6381995390     1.4187224170    12.0063763950
Ni      2.8668492300     3.5468061070    12.0063763950
Ni      4.0954988850     5.6748897330    12.0063763950
Ni      4.0954988480     1.4187224170    12.0063763950
Ni      5.3241485390     3.5468061070    12.0063763950
Ni      6.5527981940     5.6748897330    12.0063763950
Ni      6.5527982300     1.4187224170    12.0063763950
Ni      7.7814479220     3.5468061070    12.0063763950
Ni      9.0100975760     5.6748897330    12.0063763950
Ni      2.0477494240     0.7093612090    14.1640614080
Ni      3.2763990780     2.8374448350    14.1640729510
Ni      4.5050487700     4.9655285250    14.1640397250
Ni      4.5050488060     0.7093612090    14.1640710440
Ni      5.7336984610     2.8374448350    14.1640423650
Ni      6.9623481520     4.9655285250    14.1640482520
Ni      6.9623481150     0.7093612090    14.1640292020
Ni      8.1909977700     2.8374448350    14.1640591990
Ni      9.4196474610     4.9655285250    14.1640542750
Ni      0.0049087525    -0.0085212061    16.3281531990
Ni      8.6054677679     2.1196091283    16.3281482541
Ni      9.8340587807     4.2475996115    16.3281200590
Ni      2.4622510926    -0.0085203813    16.3281721576
Ni      3.6908377535     2.1195512795    16.3281745304
Ni      4.9195301997     4.2476167501    16.3281655106
Ni      4.9195311996    -0.0085847476    16.3281656049
Ni      6.1482309668     2.1195526915    16.3281905295
Ni      7.3768929681     4.2475989898    16.3281317796
Cu      1.6451674680     1.4066623852    18.5428062470
Cu      2.8737987244     3.5347117506    18.5428385844
Cu      4.1024710200     5.6628068219    18.5428086405
Cu      4.1024743681     1.4066309846    18.5428720551
Cu      5.3311444982     3.5347095391    18.5428212916
Cu      6.5597971885     5.6627864097    18.5428264431
Cu      6.5597939926     1.4066424907    18.5428073386
Cu      7.7884403166     3.5347079337    18.5427643636
Cu      9.0170661178     5.6627884666    18.5428468415
Cu      2.0477494240     0.7093612090    20.7902126970
Cu      3.2763990780     2.8374448350    20.7902464750
Cu      4.5050487700     4.9655285250    20.7901894570
Cu      4.5050488060     0.7093612090    20.7902646290
Cu      5.7336984610     2.8374448350    20.7902077890
Cu      6.9623481520     4.9655285250    20.7902013200
Cu      6.9623481150     0.7093612090    20.7901985810
Cu      8.1909977700     2.8374448350    20.7901995150
Cu      9.4196474610     4.9655285250    20.7902560580
Cu      0.0000000000     0.0000000000    23.0269984560
Cu      8.6005476670     2.1280836470    23.0270021480
Cu      9.8291973330     4.2561672950    23.0270571880
Cu      2.4572993330     0.0000000000    23.0270017780
Cu      3.6859490000     2.1280836470    23.0270601890
Cu      4.9145986670     4.2561672950    23.0270145410
Cu      4.9145986670    -0.0000000000    23.0270616010
Cu      6.1432483330     2.1280836470    23.0270229140
Cu      7.3718980000     4.2561672950    23.0270045470
Cu      1.6557499778     1.3883221543    25.2837420197
Cu      2.8844004452     3.5164075340    25.2837910649
Cu      4.1130487019     5.6444910503    25.2837316085
Cu      4.1130515838     1.3883231107    25.2838047262
Cu      5.3416986628     3.5164084286    25.2837601080
Cu      6.5703516342     5.6444873024    25.2837304655
Cu      6.5703476915     1.3883240637    25.2837651859
Cu      7.7989995617     3.5164058911    25.2837399728
Cu      9.0276499752     5.6444906963    25.2837934566
72
Step 5 | ATOMIC_POSITIONS (angstrom) | Cartesian Angstrom
Ni      0.0000000000     0.0000000000    10.0000000900
Ni      8.6005476670     2.1280836470    10.0000000900
Ni      9.8291973330     4.2561672950    10.0000000900
Ni      2.4572993330     0.0000000000    10.0000000900
Ni      3.6859490000     2.1280836470    10.0000000900
Ni      4.9145986670     4.2561672950    10.0000000900
Ni      4.9145986670    -0.0000000000    10.0000000900
Ni      6.1432483330     2.1280836470    10.0000000900
Ni      7.3718980000     4.2561672950    10.0000000900
Ni      1.6381995390     1.4187224170    12.0063763950
Ni      2.8668492300     3.5468061070    12.0063763950
Ni      4.0954988850     5.6748897330    12.0063763950
Ni      4.0954988480     1.4187224170    12.0063763950
Ni      5.3241485390     3.5468061070    12.0063763950
Ni      6.5527981940     5.6748897330    12.0063763950
Ni      6.5527982300     1.4187224170    12.0063763950
Ni      7.7814479220     3.5468061070    12.0063763950
Ni      9.0100975760     5.6748897330    12.0063763950
Ni      2.0477494240     0.7093612090    14.1640614080
Ni      3.2763990780     2.8374448350    14.1640729510
Ni      4.5050487700     4.9655285250    14.1640397250
Ni      4.5050488060     0.7093612090    14.1640710440
Ni      5.7336984610     2.8374448350    14.1640423650
Ni      6.9623481520     4.9655285250    14.1640482520
Ni      6.9623481150     0.7093612090    14.1640292020
Ni      8.1909977700     2.8374448350    14.1640591990
Ni      9.4196474610     4.9655285250    14.1640542750
Ni      0.0078449054    -0.0136163991    16.3277934867
Ni      8.6084125525     2.1145260162    16.3277622086
Ni      9.8369864551     4.2424877743    16.3277241344
Ni      2.4652015941    -0.0136097301    16.3278002159
Ni      3.6937725488     2.1144527482    16.3277972683
Ni      4.9224697185     4.2425145556    16.3278002315
Ni      4.9224748218    -0.0136922951    16.3277777314
Ni      6.1511853804     2.1144606398    16.3278314993
Ni      7.3798526778     4.2424977608    16.3277363703
Cu      1.6493287578     1.3994615131    18.5417953796
Cu      2.8779519051     3.5275041715    18.5418357219
Cu      4.1066305691     5.6556005530    18.5418243094
Cu      4.1066331151     1.3994238839    18.5418740765
Cu      5.3353084720     3.5274987621    18.5418342617
Cu      6.5639642027     5.6555767968    18.5418335315
Cu      6.5639576529     1.3994360054    18.5418161138
Cu      7.7926062161     3.5274952526    18.5417520759
Cu      9.0212232109     5.6555786447    18.5418448610
Cu      2.0477494240     0.7093612090    20.7902126970
Cu      3.2763990780     2.8374448350    20.7902464750
Cu      4.5050487700     4.9655285250    20.7901894570
Cu      4.5050488060     0.7093612090    20.7902646290
Cu      5.7336984610     2.8374448350    20.7902077890
Cu      6.9623481520     4.9655285250    20.7902013200
Cu      6.9623481150     0.7093612090    20.7901985810
Cu      8.1909977700     2.8374448350    20.7901995150
Cu      9.4196474610     4.9655285250    20.7902560580
Cu      0.0000000000     0.0000000000    23.0269984560
Cu      8.6005476670     2.1280836470    23.0270021480
Cu      9.8291973330     4.2561672950    23.0270571880
Cu      2.4572993330     0.0000000000    23.0270017780
Cu      3.6859490000     2.1280836470    23.0270601890
Cu      4.9145986670     4.2561672950    23.0270145410
Cu      4.9145986670    -0.0000000000    23.0270616010
Cu      6.1432483330     2.1280836470    23.0270229140
Cu      7.3718980000     4.2561672950    23.0270045470
Cu      1.6661957513     1.3702281272    25.2821314959
Cu      2.8948467734     3.4983148170    25.2821836163
Cu      4.1234941685     5.6263984132    25.2821208327
Cu      4.1234985257     1.3702297102    25.2821955791
Cu      5.3521443273     3.4983163835    25.2821488939
Cu      6.5807989367     5.6263924336    25.2821209824
Cu      6.5807930050     1.3702315281    25.2821529233
Cu      7.8094462676     3.4983120215    25.2821285423
Cu      9.0380967584     5.6263978521    25.2821855022
72
Step 6 | ATOMIC_POSITIONS (angstrom) | Cartesian Angstrom
Ni      0.0000000000     0.0000000000    10.0000000900
Ni      8.6005476670     2.1280836470    10.0000000900
Ni      9.8291973330     4.2561672950    10.0000000900
Ni      2.4572993330     0.0000000000    10.0000000900
Ni      3.6859490000     2.1280836470    10.0000000900
Ni      4.9145986670     4.2561672950    10.0000000900
Ni      4.9145986670    -0.0000000000    10.0000000900
Ni      6.1432483330     2.1280836470    10.0000000900
Ni      7.3718980000     4.2561672950    10.0000000900
Ni      1.6381995390     1.4187224170    12.0063763950
Ni      2.8668492300     3.5468061070    12.0063763950
Ni      4.0954988850     5.6748897330    12.0063763950
Ni      4.0954988480     1.4187224170    12.0063763950
Ni      5.3241485390     3.5468061070    12.0063763950
Ni      6.5527981940     5.6748897330    12.0063763950
Ni      6.5527982300     1.4187224170    12.0063763950
Ni      7.7814479220     3.5468061070    12.0063763950
Ni      9.0100975760     5.6748897330    12.0063763950
Ni      2.0477494240     0.7093612090    14.1640614080
Ni      3.2763990780     2.8374448350    14.1640729510
Ni      4.5050487700     4.9655285250    14.1640397250
Ni      4.5050488060     0.7093612090    14.1640710440
Ni      5.7336984610     2.8374448350    14.1640423650
Ni      6.9623481520     4.9655285250    14.1640482520
Ni      6.9623481150     0.7093612090    14.1640292020
Ni      8.1909977700     2.8374448350    14.1640591990
Ni      9.4196474610     4.9655285250    14.1640542750
Ni      0.0122467950    -0.0212412110    16.3270829075
Ni      8.6128315835     2.1069077775    16.3270142331
Ni      9.8413719864     4.2348358699    16.3269640385
Ni      2.4696243069    -0.0212210121    16.3270591730
Ni      3.6981633820     2.1068113170    16.3270482212
Ni      4.9268725677     4.2348844874    16.3270781967
Ni      4.9268614093    -0.0213232116    16.3270167666
Ni      6.1555925665     2.1068398786    16.3271203829
Ni      7.3842733563     4.2348784631    16.3269761265
Cu      1.6555807454     1.3886485079    18.5400038655
Cu      2.8841902341     3.5166820156    18.5400592724
Cu      4.1128790087     5.6447856603    18.5400747698
Cu      4.1128710876     1.3886053183    18.5400955301
Cu      5.3415550327     3.5166792598    18.5400782883
Cu      6.5702165280     5.6447617041    18.5400615336
Cu      6.5702035209     1.3886187158    18.5400588127
Cu      7.7988557738     3.5166737503    18.5399602110
Cu      9.0274576518     5.6447626400    18.5400659486
Cu      2.0477494240     0.7093612090    20.7902126970
Cu      3.2763990780     2.8374448350    20.7902464750
Cu      4.5050487700     4.9655285250    20.7901894570
Cu      4.5050488060     0.7093612090    20.7902646290
Cu      5.7336984610     2.8374448350    20.7902077890
Cu      6.9623481520     4.9655285250    20.7902013200
Cu      6.9623481150     0.7093612090    20.7901985810
Cu      8.1909977700     2.8374448350    20.7901995150
Cu      9.4196474610     4.9655285250    20.7902560580
Cu      0.0000000000     0.0000000000    23.0269984560
Cu      8.6005476670     2.1280836470    23.0270021480
Cu      9.8291973330     4.2561672950    23.0270571880
Cu      2.4572993330     0.0000000000    23.0270017780
Cu      3.6859490000     2.1280836470    23.0270601890
Cu      4.9145986670     4.2561672950    23.0270145410
Cu      4.9145986670    -0.0000000000    23.0270616010
Cu      6.1432483330     2.1280836470    23.0270229140
Cu      7.3718980000     4.2561672950    23.0270045470
Cu      1.6818436440     1.3431239552    25.2792065383
Cu      2.9104947634     3.4712124360    25.2792633910
Cu      4.1391414858     5.5992961003    25.2791957814
Cu      4.1391472477     1.3431267065    25.2792725717
Cu      5.3677916772     3.4712147470    25.2792229075
Cu      6.5964483420     5.5992877685    25.2791977748
Cu      6.5964397814     1.3431294056    25.2792255809
Cu      7.8250949145     3.4712082668    25.2792025146
Cu      9.0537453828     5.5992953226    25.2792646431
72
Step 7 | ATOMIC_POSITIONS (angstrom) | Cartesian Angstrom
Ni      0.0000000000     0.0000000000    10.0000000900
Ni      8.6005476670     2.1280836470    10.0000000900
Ni      9.8291973330     4.2561672950    10.0000000900
Ni      2.4572993330     0.0000000000    10.0000000900
Ni      3.6859490000     2.1280836470    10.0000000900
Ni      4.9145986670     4.2561672950    10.0000000900
Ni      4.9145986670    -0.0000000000    10.0000000900
Ni      6.1432483330     2.1280836470    10.0000000900
Ni      7.3718980000     4.2561672950    10.0000000900
Ni      1.6381995390     1.4187224170    12.0063763950
Ni      2.8668492300     3.5468061070    12.0063763950
Ni      4.0954988850     5.6748897330    12.0063763950
Ni      4.0954988480     1.4187224170    12.0063763950
Ni      5.3241485390     3.5468061070    12.0063763950
Ni      6.5527981940     5.6748897330    12.0063763950
Ni      6.5527982300     1.4187224170    12.0063763950
Ni      7.7814479220     3.5468061070    12.0063763950
Ni      9.0100975760     5.6748897330    12.0063763950
Ni      2.0477494240     0.7093612090    14.1640614080
Ni      3.2763990780     2.8374448350    14.1640729510
Ni      4.5050487700     4.9655285250    14.1640397250
Ni      4.5050488060     0.7093612090    14.1640710440
Ni      5.7336984610     2.8374448350    14.1640423650
Ni      6.9623481520     4.9655285250    14.1640482520
Ni      6.9623481150     0.7093612090    14.1640292020
Ni      8.1909977700     2.8374448350    14.1640591990
Ni      9.4196474610     4.9655285250    14.1640542750
Ni      0.0188639883    -0.0327009864    16.3257213586
Ni      8.6194643342     2.0954527013    16.3256004200
Ni      9.8479681504     4.2233392127    16.3255366671
Ni      2.4762633503    -0.0326712506    16.3256606573
Ni      3.7047689168     2.0953303860    16.3256386692
Ni      4.9334941384     4.2234155819    16.3257030916
Ni      4.9334675503    -0.0327992312    16.3255949409
Ni      6.1622232118     2.0953844624    16.3257576245
Ni      7.3909140907     4.2234161280    16.3255483086
Cu      1.6649763051     1.3723887453    18.5369511819
Cu      2.8935707254     3.5004149173    18.5370261561
Cu      4.1222719641     5.6285269279    18.5370797719
Cu      4.1222530274     1.3723412297    18.5370626169
Cu      5.3509476067     3.5004134772    18.5370740237
Cu      6.5796133797     5.6284987913    18.5370343242
Cu      6.5795950625     1.3723559042    18.5370520748
Cu      7.8082489180     3.5004034883    18.5369034154
Cu      9.0368353273     5.6285001037    18.5370295989
Cu      2.0477494240     0.7093612090    20.7902126970
Cu      3.2763990780     2.8374448350    20.7902464750
Cu      4.5050487700     4.9655285250    20.7901894570
Cu      4.5050488060     0.7093612090    20.7902646290
Cu      5.7336984610     2.8374448350    20.7902077890
Cu      6.9623481520     4.9655285250    20.7902013200
Cu      6.9623481150     0.7093612090    20.7901985810
Cu      8.1909977700     2.8374448350    20.7901995150
Cu      9.4196474610     4.9655285250    20.7902560580
Cu      0.0000000000     0.0000000000    23.0269984560
Cu      8.6005476670     2.1280836470    23.0270021480
Cu      9.8291973330     4.2561672950    23.0270571880
Cu      2.4572993330     0.0000000000    23.0270017780
Cu      3.6859490000     2.1280836470    23.0270601890
Cu      4.9145986670     4.2561672950    23.0270145410
Cu      4.9145986670    -0.0000000000    23.0270616010
Cu      6.1432483330     2.1280836470    23.0270229140
Cu      7.3718980000     4.2561672950    23.0270045470
Cu      1.7052796882     1.3025312983    25.2740977707
Cu      2.9339304059     3.4306211432    25.2741620010
Cu      4.1625763536     5.5587047875    25.2740871138
Cu      4.1625831569     1.3025357871    25.2741665730
Cu      5.3912264819     3.4306245015    25.2741125025
Cu      6.6198859943     5.5586939833    25.2740916190
Cu      6.6198740828     1.3025389153    25.2741138279
Cu      7.8485315566     3.4306154006    25.2740924090
Cu      9.0771820964     5.5587040381    25.2741625460
72
Step 8 | ATOMIC_POSITIONS (angstrom) | Cartesian Angstrom
Ni      0.0000000000     0.0000000000    10.0000000900
Ni      8.6005476670     2.1280836470    10.0000000900
Ni      9.8291973330     4.2561672950    10.0000000900
Ni      2.4572993330     0.0000000000    10.0000000900
Ni      3.6859490000     2.1280836470    10.0000000900
Ni      4.9145986670     4.2561672950    10.0000000900
Ni      4.9145986670    -0.0000000000    10.0000000900
Ni      6.1432483330     2.1280836470    10.0000000900
Ni      7.3718980000     4.2561672950    10.0000000900
Ni      1.6381995390     1.4187224170    12.0063763950
Ni      2.8668492300     3.5468061070    12.0063763950
Ni      4.0954988850     5.6748897330    12.0063763950
Ni      4.0954988480     1.4187224170    12.0063763950
Ni      5.3241485390     3.5468061070    12.0063763950
Ni      6.5527981940     5.6748897330    12.0063763950
Ni      6.5527982300     1.4187224170    12.0063763950
Ni      7.7814479220     3.5468061070    12.0063763950
Ni      9.0100975760     5.6748897330    12.0063763950
Ni      2.0477494240     0.7093612090    14.1640614080
Ni      3.2763990780     2.8374448350    14.1640729510
Ni      4.5050487700     4.9655285250    14.1640397250
Ni      4.5050488060     0.7093612090    14.1640710440
Ni      5.7336984610     2.8374448350    14.1640423650
Ni      6.9623481520     4.9655285250    14.1640482520
Ni      6.9623481150     0.7093612090    14.1640292020
Ni      8.1909977700     2.8374448350    14.1640591990
Ni      9.4196474610     4.9655285250    14.1640542750
Ni      0.0287782387    -0.0498691970    16.3233124913
Ni      8.6294090253     2.0782829012    16.3231173028
Ni      9.8578541627     4.2061170986    16.3230366845
Ni      2.4862176062    -0.0498258018    16.3231917422
Ni      3.7146687030     2.0781189587    16.3231552822