72
Step 1 | ATOMIC_POSITIONS (angstrom) | Cartesian Angstrom
Ni      0.0000000000     0.0000000000    10.0000000900
Ni      8.6005476670     2.1280836470    10.0000000900
Ni      9.8291973330     4.2561672950    10.0000000900
Ni      2.4572993330     0.0000000000    10.0000000900
Ni      3.6859490000     2.1280836470    10.0000000900
Ni      4.9145986670     4.2561672950    10.0000000900
Ni      4.9145986670     0.0000000000    10.0000000900
Ni      6.1432483330     2.1280836470    10.0000000900
Ni      7.3718980000     4.2561672950    10.0000000900
Ni      1.6381995390     1.4187224170    12.0063763950
Ni      2.8668492300     3.5468061070    12.0063763950
Ni      4.0954988850     5.6748897330    12.0063763950
Ni      4.0954988480     1.4187224170    12.0063763950
Ni      5.3241485390     3.5468061070    12.0063763950
Ni      6.5527981940     5.6748897330    12.0063763950
Ni      6.5527982300     1.4187224170    12.0063763950
Ni      7.7814479220     3.5468061070    12.0063763950
Ni      9.0100975760     5.6748897330    12.0063763950
Ni      2.0477494240     0.7093612090    14.0105095270
Ni      3.2763990780     2.8374448350    14.0105159059
Ni      4.5050487700     4.9655285250    14.0105222195
Ni      4.5050488060     0.7093612090    14.0105128491
Ni      5.7336984610     2.8374448350    14.0105169222
Ni      6.9623481520     4.9655285250    14.0105077827
Ni      6.9623481150     0.7093612090    14.0105119184
Ni      8.1909977700     2.8374448350    14.0105068028
Ni      9.4196474610     4.9655285250    14.0105135341
Ni      0.0000000000     0.0000000000    16.0125326634
Ni      8.6005476670     2.1280836470    16.0125234148
Ni      9.8291973330     4.2561672950    16.0125289781
Ni      2.4572993330     0.0000000000    16.0125242794
Ni      3.6859490000     2.1280836470    16.0125270262
Ni      4.9145986670     4.2561672950    16.0125355379
Ni      4.9145986670     0.0000000000    16.0125260963
Ni      6.1432483330     2.1280836470    16.0125287616
Ni      7.3718980000     4.2561672950    16.0125206062
Cu      1.6381995390     1.4187224170    18.0219027487
Cu      2.8668492300     3.5468061070    18.0219048241
Cu      4.0954988850     5.6748897330    18.0219055171
Cu      4.0954988480     1.4187224170    18.0219033733
Cu      5.3241485390     3.5468061070    18.0219071218
Cu      6.5527981940     5.6748897330    18.0219024911
Cu      6.5527982300     1.4187224170    18.0219033832
Cu      7.7814479220     3.5468061070    18.0219024644
Cu      9.0100975760     5.6748897330    18.0219010099
Cu      2.0477494240     0.7093612090    20.0323810165
Cu      3.2763990780     2.8374448350    20.0323814794
Cu      4.5050487700     4.9655285250    20.0323815512
Cu      4.5050488060     0.7093612090    20.0323808119
Cu      5.7336984610     2.8374448350    20.0323814505
Cu      6.9623481520     4.9655285250    20.0323810046
Cu      6.9623481150     0.7093612090    20.0323808513
Cu      8.1909977700     2.8374448350    20.0323809665
Cu      9.4196474610     4.9655285250    20.0323806632
Cu      0.0000000000     0.0000000000    22.0397323353
Cu      8.6005476670     2.1280836470    22.0397322443
Cu      9.8291973330     4.2561672950    22.0397325251
Cu      2.4572993330     0.0000000000    22.0397322917
Cu      3.6859490000     2.1280836470    22.0397323796
Cu      4.9145986670     4.2561672950    22.0397326562
Cu      4.9145986670     0.0000000000    22.0397324934
Cu      6.1432483330     2.1280836470    22.0397321802
Cu      7.3718980000     4.2561672950    22.0397321990
Cu      1.6381995390     1.4187224170    24.0801162281
Cu      2.8668492300     3.5468061070    24.0801161961
Cu      4.0954988850     5.6748897330    24.0801160648
Cu      4.0954988480     1.4187224170    24.0801160359
Cu      5.3241485390     3.5468061070    24.0801160050
Cu      6.5527981940     5.6748897330    24.0801161945
Cu      6.5527982300     1.4187224170    24.0801162668
Cu      7.7814479220     3.5468061070    24.0801161464
Cu      9.0100975760     5.6748897330    24.0801157662
72
Step 2 | ATOMIC_POSITIONS (angstrom) | Cartesian Angstrom
Ni      0.0000000000     0.0000000000    10.0000000900
Ni      8.6005476670     2.1280836470    10.0000000900
Ni      9.8291973330     4.2561672950    10.0000000900
Ni      2.4572993330     0.0000000000    10.0000000900
Ni      3.6859490000     2.1280836470    10.0000000900
Ni      4.9145986670     4.2561672950    10.0000000900
Ni      4.9145986670    -0.0000000000    10.0000000900
Ni      6.1432483330     2.1280836470    10.0000000900
Ni      7.3718980000     4.2561672950    10.0000000900
Ni      1.6381995390     1.4187224170    12.0063763950
Ni      2.8668492300     3.5468061070    12.0063763950
Ni      4.0954988850     5.6748897330    12.0063763950
Ni      4.0954988480     1.4187224170    12.0063763950
Ni      5.3241485390     3.5468061070    12.0063763950
Ni      6.5527981940     5.6748897330    12.0063763950
Ni      6.5527982300     1.4187224170    12.0063763950
Ni      7.7814479220     3.5468061070    12.0063763950
Ni      9.0100975760     5.6748897330    12.0063763950
Ni      2.0477494240     0.7093612090    14.0071015905
Ni      3.2763990780     2.8374448350    14.0071160551
Ni      4.5050487700     4.9655285250    14.0071210046
Ni      4.5050488060     0.7093612090    14.0071113791
Ni      5.7336984610     2.8374448350    14.0071172052
Ni      6.9623481520     4.9655285250    14.0071091986
Ni      6.9623481150     0.7093612090    14.0071058577
Ni      8.1909977700     2.8374448350    14.0071028340
Ni      9.4196474610     4.9655285250    14.0071157413
Ni      0.0000000000     0.0000000000    16.0056846718
Ni      8.6005476670     2.1280836470    16.0056768285
Ni      9.8291973330     4.2561672950    16.0056839347
Ni      2.4572993330     0.0000000000    16.0056771783
Ni      3.6859490000     2.1280836470    16.0056757574
Ni      4.9145986670     4.2561672950    16.0056912878
Ni      4.9145986670    -0.0000000000    16.0056785018
Ni      6.1432483330     2.1280836470    16.0056820171
Ni      7.3718980000     4.2561672950    16.0056737460
Cu      1.6381995390     1.4187224170    18.0174725519
Cu      2.8668492300     3.5468061070    18.0174657337
Cu      4.0954988850     5.6748897330    18.0174669598
Cu      4.0954988480     1.4187224170    18.0174638923
Cu      5.3241485390     3.5468061070    18.0174658490
Cu      6.5527981940     5.6748897330    18.0174698106
Cu      6.5527982300     1.4187224170    18.0174665460
Cu      7.7814479220     3.5468061070    18.0174680912
Cu      9.0100975760     5.6748897330    18.0174654498
Cu      2.0477494240     0.7093612090    20.0324450496
Cu      3.2763990780     2.8374448350    20.0324439630
Cu      4.5050487700     4.9655285250    20.0324440028
Cu      4.5050488060     0.7093612090    20.0324438166
Cu      5.7336984610     2.8374448350    20.0324442714
Cu      6.9623481520     4.9655285250    20.0324443948
Cu      6.9623481150     0.7093612090    20.0324440990
Cu      8.1909977700     2.8374448350    20.0324447625
Cu      9.4196474610     4.9655285250    20.0324431103
Cu      0.0000000000     0.0000000000    22.0490023526
Cu      8.6005476670     2.1280836470    22.0490025287
Cu      9.8291973330     4.2561672950    22.0490022952
Cu      2.4572993330     0.0000000000    22.0490023706
Cu      3.6859490000     2.1280836470    22.0490024957
Cu      4.9145986670     4.2561672950    22.0490024546
Cu      4.9145986670    -0.0000000000    22.0490023604
Cu      6.1432483330     2.1280836470    22.0490023588
Cu      7.3718980000     4.2561672950    22.0490023246
Cu      1.6381995390     1.4187224170    24.1191457080
Cu      2.8668492300     3.5468061070    24.1191454603
Cu      4.0954988850     5.6748897330    24.1191454218
Cu      4.0954988480     1.4187224170    24.1191454612
Cu      5.3241485390     3.5468061070    24.1191450375
Cu      6.5527981940     5.6748897330    24.1191456429
Cu      6.5527982300     1.4187224170    24.1191456298
Cu      7.7814479220     3.5468061070    24.1191455599
Cu      9.0100975760     5.6748897330    24.1191452587
72
Step 3 | ATOMIC_POSITIONS (angstrom) | Cartesian Angstrom
Ni      0.0000000000     0.0000000000    10.0000000900
Ni      8.6005476670     2.1280836470    10.0000000900
Ni      9.8291973330     4.2561672950    10.0000000900
Ni      2.4572993330     0.0000000000    10.0000000900
Ni      3.6859490000     2.1280836470    10.0000000900
Ni      4.9145986670     4.2561672950    10.0000000900
Ni      4.9145986670    -0.0000000000    10.0000000900
Ni      6.1432483330     2.1280836470    10.0000000900
Ni      7.3718980000     4.2561672950    10.0000000900
Ni      1.6381995390     1.4187224170    12.0063763950
Ni      2.8668492300     3.5468061070    12.0063763950
Ni      4.0954988850     5.6748897330    12.0063763950
Ni      4.0954988480     1.4187224170    12.0063763950
Ni      5.3241485390     3.5468061070    12.0063763950
Ni      6.5527981940     5.6748897330    12.0063763950
Ni      6.5527982300     1.4187224170    12.0063763950
Ni      7.7814479220     3.5468061070    12.0063763950
Ni      9.0100975760     5.6748897330    12.0063763950
Ni      2.0477494240     0.7093612090    14.0013837172
Ni      3.2763990780     2.8374448350    14.0013960904
Ni      4.5050487700     4.9655285250    14.0013976662
Ni      4.5050488060     0.7093612090    14.0013863896
Ni      5.7336984610     2.8374448350    14.0013911611
Ni      6.9623481520     4.9655285250    14.0013933976
Ni      6.9623481150     0.7093612090    14.0013775964
Ni      8.1909977700     2.8374448350    14.0013842186
Ni      9.4196474610     4.9655285250    14.0013944045
Ni      0.0000000000     0.0000000000    15.9959804318
Ni      8.6005476670     2.1280836470    15.9959843107
Ni      9.8291973330     4.2561672950    15.9959882217
Ni      2.4572993330     0.0000000000    15.9959844248
Ni      3.6859490000     2.1280836470    15.9959822779
Ni      4.9145986670     4.2561672950    15.9959914132
Ni      4.9145986670    -0.0000000000    15.9959828217
Ni      6.1432483330     2.1280836470    15.9959831716
Ni      7.3718980000     4.2561672950    15.9959837729
Cu      1.6381995390     1.4187224170    18.0107392054
Cu      2.8668492300     3.5468061070    18.0107316375
Cu      4.0954988850     5.6748897330    18.0107338896
Cu      4.0954988480     1.4187224170    18.0107284281
Cu      5.3241485390     3.5468061070    18.0107308381
Cu      6.5527981940     5.6748897330    18.0107349427
Cu      6.5527982300     1.4187224170    18.0107340026
Cu      7.7814479220     3.5468061070    18.0107310923
Cu      9.0100975760     5.6748897330    18.0107329322
Cu      2.0477494240     0.7093612090    20.0345954796
Cu      3.2763990780     2.8374448350    20.0345914136
Cu      4.5050487700     4.9655285250    20.0345919165
Cu      4.5050488060     0.7093612090    20.0345913054
Cu      5.7336984610     2.8374448350    20.0345913451
Cu      6.9623481520     4.9655285250    20.0345933060
Cu      6.9623481150     0.7093612090    20.0345926419
Cu      8.1909977700     2.8374448350    20.0345935696
Cu      9.4196474610     4.9655285250    20.0345912402
Cu      0.0000000000     0.0000000000    22.0692354511
Cu      8.6005476670     2.1280836470    22.0692359101
Cu      9.8291973330     4.2561672950    22.0692349287
Cu      2.4572993330     0.0000000000    22.0692358424
Cu      3.6859490000     2.1280836470    22.0692352696
Cu      4.9145986670     4.2561672950    22.0692349709
Cu      4.9145986670    -0.0000000000    22.0692353243
Cu      6.1432483330     2.1280836470    22.0692354540
Cu      7.3718980000     4.2561672950    22.0692354976
Cu      1.6381995390     1.4187224170    24.1776895218
Cu      2.8668492300     3.5468061070    24.1776895748
Cu      4.0954988850     5.6748897330    24.1776895686
Cu      4.0954988480     1.4187224170    24.1776893767
Cu      5.3241485390     3.5468061070    24.1776892762
Cu      6.5527981940     5.6748897330    24.1776896621
Cu      6.5527982300     1.4187224170    24.1776891143
Cu      7.7814479220     3.5468061070    24.1776895665
Cu      9.0100975760     5.6748897330    24.1776891730
72
Step 4 | ATOMIC_POSITIONS (angstrom) | Cartesian Angstrom
Ni      0.0000000000     0.0000000000    10.0000000900
Ni      8.6005476670     2.1280836470    10.0000000900
Ni      9.8291973330     4.2561672950    10.0000000900
Ni      2.4572993330     0.0000000000    10.0000000900
Ni      3.6859490000     2.1280836470    10.0000000900
Ni      4.9145986670     4.2561672950    10.0000000900
Ni      4.9145986670    -0.0000000000    10.0000000900
Ni      6.1432483330     2.1280836470    10.0000000900
Ni      7.3718980000     4.2561672950    10.0000000900
Ni      1.6381995390     1.4187224170    12.0063763950
Ni      2.8668492300     3.5468061070    12.0063763950
Ni      4.0954988850     5.6748897330    12.0063763950
Ni      4.0954988480     1.4187224170    12.0063763950
Ni      5.3241485390     3.5468061070    12.0063763950
Ni      6.5527981940     5.6748897330    12.0063763950
Ni      6.5527982300     1.4187224170    12.0063763950
Ni      7.7814479220     3.5468061070    12.0063763950
Ni      9.0100975760     5.6748897330    12.0063763950
Ni      2.0477494240     0.7093612090    13.9925281237
Ni      3.2763990780     2.8374448350    13.9925215741
Ni      4.5050487700     4.9655285250    13.9925390341
Ni      4.5050488060     0.7093612090    13.9925400081
Ni      5.7336984610     2.8374448350    13.9925444529
Ni      6.9623481520     4.9655285250    13.9925231515
Ni      6.9623481150     0.7093612090    13.9925602529
Ni      8.1909977700     2.8374448350    13.9925309458
Ni      9.4196474610     4.9655285250    13.9925398227
Ni      0.0000000000     0.0000000000    15.9823311088
Ni      8.6005476670     2.1280836470    15.9823266120
Ni      9.8291973330     4.2561672950    15.9823404474
Ni      2.4572993330     0.0000000000    15.9823211217
Ni      3.6859490000     2.1280836470    15.9823336758
Ni      4.9145986670     4.2561672950    15.9823349233
Ni      4.9145986670    -0.0000000000    15.9823384744
Ni      6.1432483330     2.1280836470    15.9823364351
Ni      7.3718980000     4.2561672950    15.9823292074
Cu      1.6381995390     1.4187224170    18.0017342569
Cu      2.8668492300     3.5468061070    18.0017530876
Cu      4.0954988850     5.6748897330    18.0017319248
Cu      4.0954988480     1.4187224170    18.0017437766
Cu      5.3241485390     3.5468061070    18.0017459004
Cu      6.5527981940     5.6748897330    18.0017389167
Cu      6.5527982300     1.4187224170    18.0017308985
Cu      7.7814479220     3.5468061070    18.0017424668
Cu      9.0100975760     5.6748897330    18.0017431166
Cu      2.0477494240     0.7093612090    20.0418350519
Cu      3.2763990780     2.8374448350    20.0418336630
Cu      4.5050487700     4.9655285250    20.0418319665
Cu      4.5050488060     0.7093612090    20.0418309614
Cu      5.7336984610     2.8374448350    20.0418317801
Cu      6.9623481520     4.9655285250    20.0418345923
Cu      6.9623481150     0.7093612090    20.0418305811
Cu      8.1909977700     2.8374448350    20.0418327916
Cu      9.4196474610     4.9655285250    20.0418331576
Cu      0.0000000000     0.0000000000    22.1061159296
Cu      8.6005476670     2.1280836470    22.1061171783
Cu      9.8291973330     4.2561672950    22.1061161638
Cu      2.4572993330     0.0000000000    22.1061178204
Cu      3.6859490000     2.1280836470    22.1061160968
Cu      4.9145986670     4.2561672950    22.1061160544
Cu      4.9145986670    -0.0000000000    22.1061161638
Cu      6.1432483330     2.1280836470    22.1061155716
Cu      7.3718980000     4.2561672950    22.1061171223
Cu      1.6381995390     1.4187224170    24.2655052704
Cu      2.8668492300     3.5468061070    24.2655052685
Cu      4.0954988850     5.6748897330    24.2655055471
Cu      4.0954988480     1.4187224170    24.2655046677
Cu      5.3241485390     3.5468061070    24.2655046377
Cu      6.5527981940     5.6748897330    24.2655060202
Cu      6.5527982300     1.4187224170    24.2655049230
Cu      7.7814479220     3.5468061070    24.2655052144
Cu      9.0100975760     5.6748897330    24.2655048727
72
Step 5 | ATOMIC_POSITIONS (angstrom) | Cartesian Angstrom
Ni      0.0000000000     0.0000000000    10.0000000900
Ni      8.6005476670     2.1280836470    10.0000000900
Ni      9.8291973330     4.2561672950    10.0000000900
Ni      2.4572993330     0.0000000000    10.0000000900
Ni      3.6859490000     2.1280836470    10.0000000900
Ni      4.9145986670     4.2561672950    10.0000000900
Ni      4.9145986670    -0.0000000000    10.0000000900
Ni      6.1432483330     2.1280836470    10.0000000900
Ni      7.3718980000     4.2561672950    10.0000000900
Ni      1.6381995390     1.4187224170    12.0063763950
Ni      2.8668492300     3.5468061070    12.0063763950
Ni      4.0954988850     5.6748897330    12.0063763950
Ni      4.0954988480     1.4187224170    12.0063763950
Ni      5.3241485390     3.5468061070    12.0063763950
Ni      6.5527981940     5.6748897330    12.0063763950
Ni      6.5527982300     1.4187224170    12.0063763950
Ni      7.7814479220     3.5468061070    12.0063763950
Ni      9.0100975760     5.6748897330    12.0063763950
Ni      2.0477494240     0.7093612090    13.9797703897
Ni      3.2763990780     2.8374448350    13.9797351604
Ni      4.5050487700     4.9655285250    13.9797497380
Ni      4.5050488060     0.7093612090    13.9797839824
Ni      5.7336984610     2.8374448350    13.9797590245
Ni      6.9623481520     4.9655285250    13.9797323344
Ni      6.9623481150     0.7093612090    13.9798158808
Ni      8.1909977700     2.8374448350    13.9797590318
Ni      9.4196474610     4.9655285250    13.9797609030
Ni      0.0000000000     0.0000000000    15.9642562703
Ni      8.6005476670     2.1280836470    15.9642328208
Ni      9.8291973330     4.2561672950    15.9642619368
Ni      2.4572993330     0.0000000000    15.9642361756
Ni      3.6859490000     2.1280836470    15.9642452440
Ni      4.9145986670     4.2561672950    15.9642595606
Ni      4.9145986670    -0.0000000000    15.9642449113
Ni      6.1432483330     2.1280836470    15.9642418280
Ni      7.3718980000     4.2561672950    15.9642498807
Cu      1.6381995390     1.4187224170    17.9920621251
Cu      2.8668492300     3.5468061070    17.9921139498
Cu      4.0954988850     5.6748897330    17.9920720977
Cu      4.0954988480     1.4187224170    17.9920860282
Cu      5.3241485390     3.5468061070    17.9921094413
Cu      6.5527981940     5.6748897330    17.9920831395
Cu      6.5527982300     1.4187224170    17.9920557378
Cu      7.7814479220     3.5468061070    17.9921005134
Cu      9.0100975760     5.6748897330    17.9920771403
Cu      2.0477494240     0.7093612090    20.0597535261
Cu      3.2763990780     2.8374448350    20.0597646954
Cu      4.5050487700     4.9655285250    20.0597543267
Cu      4.5050488060     0.7093612090    20.0597531587
Cu      5.7336984610     2.8374448350    20.0597584260
Cu      6.9623481520     4.9655285250    20.0597600492
Cu      6.9623481150     0.7093612090    20.0597451027
Cu      8.1909977700     2.8374448350    20.0597571246
Cu      9.4196474610     4.9655285250    20.0597581152
Cu      0.0000000000     0.0000000000    22.1693386775
Cu      8.6005476670     2.1280836470    22.1693414571
Cu      9.8291973330     4.2561672950    22.1693410870
Cu      2.4572993330     0.0000000000    22.1693428743
Cu      3.6859490000     2.1280836470    22.1693407235
Cu      4.9145986670     4.2561672950    22.1693402456
Cu      4.9145986670    -0.0000000000    22.1693394261
Cu      6.1432483330     2.1280836470    22.1693392935
Cu      7.3718980000     4.2561672950    22.1693422853
Cu      1.6381995390     1.4187224170    24.3972293864
Cu      2.8668492300     3.5468061070    24.3972292708
Cu      4.0954988850     5.6748897330    24.3972299971
Cu      4.0954988480     1.4187224170    24.3972287412
Cu      5.3241485390     3.5468061070    24.3972285731
Cu      6.5527981940     5.6748897330    24.3972305574
Cu      6.5527982300     1.4187224170    24.3972283774
Cu      7.7814479220     3.5468061070    24.3972293345
Cu      9.0100975760     5.6748897330    24.3972290002
72
Step 6 | ATOMIC_POSITIONS (angstrom) | Cartesian Angstrom
Ni      0.0000000000     0.0000000000    10.0000000900
Ni      8.6005476670     2.1280836470    10.0000000900
Ni      9.8291973330     4.2561672950    10.0000000900
Ni      2.4572993330     0.0000000000    10.0000000900
Ni      3.6859490000     2.1280836470    10.0000000900
Ni      4.9145986670     4.2561672950    10.0000000900
Ni      4.9145986670    -0.0000000000    10.0000000900
Ni      6.1432483330     2.1280836470    10.0000000900
Ni      7.3718980000     4.2561672950    10.0000000900
Ni      1.6381995390     1.4187224170    12.0063763950
Ni      2.8668492300     3.5468061070    12.0063763950
Ni      4.0954988850     5.6748897330    12.0063763950
Ni      4.0954988480     1.4187224170    12.0063763950
Ni      5.3241485390     3.5468061070    12.0063763950
Ni      6.5527981940     5.6748897330    12.0063763950
Ni      6.5527982300     1.4187224170    12.0063763950
Ni      7.7814479220     3.5468061070    12.0063763950
Ni      9.0100975760     5.6748897330    12.0063763950
Ni      2.0477494240     0.7093612090    13.9666058185
Ni      3.2763990780     2.8374448350    13.9666026295
Ni      4.5050487700     4.9655285250    13.9666276432
Ni      4.5050488060     0.7093612090    13.9666089317
Ni      5.7336984610     2.8374448350    13.9666068704
Ni      6.9623481520     4.9655285250    13.9665975171
Ni      6.9623481150     0.7093612090    13.9666284027
Ni      8.1909977700     2.8374448350    13.9665954602
Ni      9.4196474610     4.9655285250    13.9666174237
Ni      0.0000000000     0.0000000000    15.9479006118
Ni      8.6005476670     2.1280836470    15.9478443660
Ni      9.8291973330     4.2561672950    15.9478780538
Ni      2.4572993330     0.0000000000    15.9478607230
Ni      3.6859490000     2.1280836470    15.9478569332
Ni      4.9145986670     4.2561672950    15.9478770027
Ni      4.9145986670    -0.0000000000    15.9478729502
Ni      6.1432483330     2.1280836470    15.9478568327
Ni      7.3718980000     4.2561672950    15.9478475504
Cu      1.6381995390     1.4187224170    17.9884314982
Cu      2.8668492300     3.5468061070    17.9884753603
Cu      4.0954988850     5.6748897330    17.9884549092
Cu      4.0954988480     1.4187224170    17.9884566333
Cu      5.3241485390     3.5468061070    17.9884685528
Cu      6.5527981940     5.6748897330    17.9884461270
Cu      6.5527982300     1.4187224170    17.9884351390
Cu      7.7814479220     3.5468061070    17.9884551507
Cu      9.0100975760     5.6748897330    17.9884503618
Cu      2.0477494240     0.7093612090    20.0924341430
Cu      3.2763990780     2.8374448350    20.0924605948
Cu      4.5050487700     4.9655285250    20.0924378430
Cu      4.5050488060     0.7093612090    20.0924424874
Cu      5.7336984610     2.8374448350    20.0924515688
Cu      6.9623481520     4.9655285250    20.0924455334
Cu      6.9623481150     0.7093612090    20.0924250019
Cu      8.1909977700     2.8374448350    20.0924477897
Cu      9.4196474610     4.9655285250    20.0924438776
Cu      0.0000000000     0.0000000000    22.2569589165
Cu      8.6005476670     2.1280836470    22.2569652060
Cu      9.8291973330     4.2561672950    22.2569655756
Cu      2.4572993330     0.0000000000    22.2569655505
Cu      3.6859490000     2.1280836470    22.2569665090
Cu      4.9145986670     4.2561672950    22.2569630921
Cu      4.9145986670    -0.0000000000    22.2569622445
Cu      6.1432483330     2.1280836470    22.2569627857
Cu      7.3718980000     4.2561672950    22.2569666306
Cu      1.6381995390     1.4187224170    24.5587028338
Cu      2.8668492300     3.5468061070    24.5587025330
Cu      4.0954988850     5.6748897330    24.5587027924
Cu      4.0954988480     1.4187224170    24.5587019296
Cu      5.3241485390     3.5468061070    24.5587015537
Cu      6.5527981940     5.6748897330    24.5587046925
Cu      6.5527982300     1.4187224170    24.5587014692
Cu      7.7814479220     3.5468061070    24.5587028407
Cu      9.0100975760     5.6748897330    24.5587016515
72
Step 7 | ATOMIC_POSITIONS (angstrom) | Cartesian Angstrom
Ni      0.0000000000     0.0000000000    10.0000000900
Ni      8.6005476670     2.1280836470    10.0000000900
Ni      9.8291973330     4.2561672950    10.0000000900
Ni      2.4572993330     0.0000000000    10.0000000900
Ni      3.6859490000     2.1280836470    10.0000000900
Ni      4.9145986670     4.2561672950    10.0000000900
Ni      4.9145986670    -0.0000000000    10.0000000900
Ni      6.1432483330     2.1280836470    10.0000000900
Ni      7.3718980000     4.2561672950    10.0000000900
Ni      1.6381995390     1.4187224170    12.0063763950
Ni      2.8668492300     3.5468061070    12.0063763950
Ni      4.0954988850     5.6748897330    12.0063763950
Ni      4.0954988480     1.4187224170    12.0063763950
Ni      5.3241485390     3.5468061070    12.0063763950
Ni      6.5527981940     5.6748897330    12.0063763950
Ni      6.5527982300     1.4187224170    12.0063763950
Ni      7.7814479220     3.5468061070    12.0063763950
Ni      9.0100975760     5.6748897330    12.0063763950
Ni      2.0477494240     0.7093612090    13.9628524025
Ni      3.2763990780     2.8374448350    13.9628686862
Ni      4.5050487700     4.9655285250    13.9629031652
Ni      4.5050488060     0.7093612090    13.9628579163
Ni      5.7336984610     2.8374448350    13.9628718495
Ni      6.9623481520     4.9655285250    13.9628579724
Ni      6.9623481150     0.7093612090    13.9628768881
Ni      8.1909977700     2.8374448350    13.9628428397
Ni      9.4196474610     4.9655285250    13.9628763249
Ni      0.0000000000     0.0000000000    15.9457705243
Ni      8.6005476670     2.1280836470    15.9457063032
Ni      9.8291973330     4.2561672950    15.9457437643
Ni      2.4572993330     0.0000000000    15.9457246533
Ni      3.6859490000     2.1280836470    15.9457218726
Ni      4.9145986670     4.2561672950    15.9457578390
Ni      4.9145986670    -0.0000000000    15.9457342137
Ni      6.1432483330     2.1280836470    15.9457282768
Ni      7.3718980000     4.2561672950    15.9457104791
Cu      1.6381995390     1.4187224170    17.9964506243
Cu      2.8668492300     3.5468061070    17.9964841323
Cu      4.0954988850     5.6748897330    17.9964852413
Cu      4.0954988480     1.4187224170    17.9964693860
Cu      5.3241485390     3.5468061070    17.9964815293
Cu      6.5527981940     5.6748897330    17.9964615334
Cu      6.5527982300     1.4187224170    17.9964612019
Cu      7.7814479220     3.5468061070    17.9964624928
Cu      9.0100975760     5.6748897330    17.9964696996
Cu      2.0477494240     0.7093612090    20.1234948281
Cu      3.2763990780     2.8374448350    20.1235280556
Cu      4.5050487700     4.9655285250    20.1235032246
Cu      4.5050488060     0.7093612090    20.1235086244
Cu      5.7336984610     2.8374448350    20.1235188988
Cu      6.9623481520     4.9655285250    20.1235079647
Cu      6.9623481150     0.7093612090    20.1234885141
Cu      8.1909977700     2.8374448350    20.1235126057
Cu      9.4196474610     4.9655285250    20.1235076637
Cu      0.0000000000     0.0000000000    22.3197729469
Cu      8.6005476670     2.1280836470    22.3197833165
Cu      9.8291973330     4.2561672950    22.3197834618
Cu      2.4572993330     0.0000000000    22.3197810611
Cu      3.6859490000     2.1280836470    22.3197870183
Cu      4.9145986670     4.2561672950    22.3197797931
Cu      4.9145986670    -0.0000000000    22.3197795862
Cu      6.1432483330     2.1280836470    22.3197814043
Cu      7.3718980000     4.2561672950    22.3197843348
Cu      1.6381995390     1.4187224170    24.6572427142
Cu      2.8668492300     3.5468061070    24.6572424602
Cu      4.0954988850     5.6748897330    24.6572415903
Cu      4.0954988480     1.4187224170    24.6572417820
Cu      5.3241485390     3.5468061070    24.6572410004
Cu      6.5527981940     5.6748897330    24.6572448741
Cu      6.5527982300     1.4187224170    24.6572412586
Cu      7.7814479220     3.5468061070    24.6572428333
Cu      9.0100975760     5.6748897330    24.6572410794
72
Step 8 | ATOMIC_POSITIONS (angstrom) | Cartesian Angstrom
Ni      0.0000000000     0.0000000000    10.0000000900
Ni      8.6005476670     2.1280836470    10.0000000900
Ni      9.8291973330     4.2561672950    10.0000000900
Ni      2.4572993330     0.0000000000    10.0000000900
Ni      3.6859490000     2.1280836470    10.0000000900
Ni      4.9145986670     4.2561672950    10.0000000900
Ni      4.9145986670    -0.0000000000    10.0000000900
Ni      6.1432483330     2.1280836470    10.0000000900
Ni      7.3718980000     4.2561672950    10.0000000900
Ni      1.6381995390     1.4187224170    12.0063763950
Ni      2.8668492300     3.5468061070    12.0063763950
Ni      4.0954988850     5.6748897330    12.0063763950
Ni      4.0954988480     1.4187224170    12.0063763950
Ni      5.3241485390     3.5468061070    12.0063763950
Ni      6.5527981940     5.6748897330    12.0063763950
Ni      6.5527982300     1.4187224170    12.0063763950
Ni      7.7814479220     3.5468061070    12.0063763950
Ni      9.0100975760     5.6748897330    12.0063763950
Ni      2.0477494240     0.7093612090    13.9647593302
Ni      3.2763990780     2.8374448350    13.9647935492
Ni      4.5050487700     4.9655285250    13.9648029469
Ni      4.5050488060     0.7093612090    13.9647715721
Ni      5.7336984610     2.8374448350    13.9647724577
Ni      6.9623481520     4.9655285250    13.9647708295
Ni      6.9623481150     0.7093612090    13.9647667007
Ni      8.1909977700     2.8374448350    13.9647497338
Ni      9.4196474610     4.9655285250    13.9647927668
Ni      0.0000000000     0.0000000000    15.9538332046
Ni      8.6005476670     2.1280836470    15.9537902190
Ni      9.8291973330     4.2561672950    15.9538399032
Ni      2.4572993330     0.0000000000    15.9538072370
Ni      3.6859490000     2.1280836470    15.9538240577