72
Step 1 | ATOMIC_POSITIONS (angstrom) | Cartesian Angstrom
Ni      0.0000000000     0.0000000000    10.0000000900
Ni      8.6005476670     2.1280836470    10.0000000900
Ni      9.8291973330     4.2561672950    10.0000000900
Ni      2.4572993330     0.0000000000    10.0000000900
Ni      3.6859490000     2.1280836470    10.0000000900
Ni      4.9145986670     4.2561672950    10.0000000900
Ni      4.9145986670     0.0000000000    10.0000000900
Ni      6.1432483330     2.1280836470    10.0000000900
Ni      7.3718980000     4.2561672950    10.0000000900
Ni      1.6381995390     1.4187224170    12.0063763950
Ni      2.8668492300     3.5468061070    12.0063763950
Ni      4.0954988850     5.6748897330    12.0063763950
Ni      4.0954988480     1.4187224170    12.0063763950
Ni      5.3241485390     3.5468061070    12.0063763950
Ni      6.5527981940     5.6748897330    12.0063763950
Ni      6.5527982300     1.4187224170    12.0063763950
Ni      7.7814479220     3.5468061070    12.0063763950
Ni      9.0100975760     5.6748897330    12.0063763950
Ni      2.0470853100     0.7105308283    14.0105095177
Ni      3.2757147993     2.8385966189    14.0105158920
Ni      4.5043846606     4.9666963710    14.0105221983
Ni      4.5043711033     0.7105151595    14.0105128329
Ni      5.7330402739     2.8386025601    14.0105169040
Ni      6.9616888551     4.9666955068    14.0105077653
Ni      6.9616745039     0.7105370960    14.0105119039
Ni      8.1903255601     2.8386114078    14.0105067746
Ni      9.4189554959     4.9666906769    14.0105135353
Ni     -0.0005735678     0.0009950643    16.0125326552
Ni      8.5999758716     2.1290742721    16.0125234065
Ni      9.8286175240     4.2571565523    16.0125289586
Ni      2.4567338119     0.0009913119    16.0125242674
Ni      3.6853747892     2.1290670762    16.0125270217
Ni      4.9140322578     4.2571564560    16.0125355308
Ni      4.9140242720     0.0009870874    16.0125260876
Ni      6.1426803829     2.1290705994    16.0125287437
Ni      7.3713304978     4.2571597415    16.0125206135
Cu      1.6386981208     1.4178586010    18.0219027529
Cu      2.8673456057     3.5459422889    18.0219048318
Cu      4.0959966692     5.6740280263    18.0219055297
Cu      4.0959977634     1.4178557950    18.0219033951
Cu      5.3246490370     3.5459413555    18.0219071445
Cu      6.5532990509     5.6740270253    18.0219025075
Cu      6.5532969805     1.4178578494    18.0219034027
Cu      7.7819472451     3.5459429392    18.0219024723
Cu      9.0105948207     5.6740267582    18.0219010204
Cu      2.0478325932     0.7092172256    20.0323810197
Cu      3.2764820112     2.8373006111    20.0323814935
Cu      4.5051318324     4.9653848214    20.0323815600
Cu      4.5051320812     0.7092168518    20.0323808189
Cu      5.7337819038     2.8373004943    20.0323814617
Cu      6.9624316978     4.9653846938    20.0323810066
Cu      6.9624310188     0.7092172518    20.0323808545
Cu      8.1910808488     2.8373009352    20.0323809675
Cu      9.4197301579     4.9653848030    20.0323806647
Cu      0.0007192547    -0.0012458841    22.0397323460
Cu      8.6012670120     2.1268377091    22.0397322541
Cu      9.8299166247     4.2549214462    22.0397325417
Cu      2.4580186259    -0.0012459149    22.0397323123
Cu      3.6866683368     2.1268376858    22.0397323913
Cu      4.9153179669     4.2549214755    22.0397326740
Cu      4.9153179522    -0.0012459170    22.0397325068
Cu      6.1439677321     2.1268377687    22.0397322029
Cu      7.3726173772     4.2549213595    22.0397322148
Cu      1.6472627421     1.4030244086    24.0801162242
Cu      2.8759125443     3.5311083099    24.0801161873
Cu      4.1045620618     5.6591917753    24.0801160747
Cu      4.1045620362     1.4030243349    24.0801160474
Cu      5.3332117485     3.5311079528    24.0801160184
Cu      6.5618614019     5.6591918488    24.0801162058
Cu      6.5618613587     1.4030245348    24.0801162752
Cu      7.7905111000     3.5311081482    24.0801161507
Cu      9.0191606138     5.6591918161    24.0801157616
72
Step 2 | ATOMIC_POSITIONS (angstrom) | Cartesian Angstrom
Ni      0.0000000000     0.0000000000    10.0000000900
Ni      8.6005476670     2.1280836470    10.0000000900
Ni      9.8291973330     4.2561672950    10.0000000900
Ni      2.4572993330     0.0000000000    10.0000000900
Ni      3.6859490000     2.1280836470    10.0000000900
Ni      4.9145986670     4.2561672950    10.0000000900
Ni      4.9145986670     0.0000000000    10.0000000900
Ni      6.1432483330     2.1280836470    10.0000000900
Ni      7.3718980000     4.2561672950    10.0000000900
Ni      1.6381995390     1.4187224170    12.0063763950
Ni      2.8668492300     3.5468061070    12.0063763950
Ni      4.0954988850     5.6748897330    12.0063763950
Ni      4.0954988480     1.4187224170    12.0063763950
Ni      5.3241485390     3.5468061070    12.0063763950
Ni      6.5527981940     5.6748897330    12.0063763950
Ni      6.5527982300     1.4187224170    12.0063763950
Ni      7.7814479220     3.5468061070    12.0063763950
Ni      9.0100975760     5.6748897330    12.0063763950
Ni      2.0461297729     0.7121978730    14.0072058357
Ni      3.2747387296     2.8402565497    14.0072191985
Ni      4.5034334116     4.9683637635    14.0072325257
Ni      4.5033916740     0.7121739030    14.0072163234
Ni      5.7320838633     2.8402776533    14.0072246456
Ni      6.9607279267     4.9683649113    14.0072064263
Ni      6.9607269452     0.7122038833    14.0072196467
Ni      8.1893745769     2.8402774656    14.0072075951
Ni      9.4179851420     4.9683411235    14.0072195312
Ni     -0.0009891723     0.0017258190    16.0057463991
Ni      8.5995594349     2.1298098109    16.0057297185
Ni      9.8281927605     4.2578810258    16.0057398504
Ni      2.4563119424     0.0017228058    16.0057287223
Ni      3.6849445408     2.1298021124    16.0057382269
Ni      4.9136123687     4.2578896249    16.0057514263
Ni      4.9135928344     0.0017143594    16.0057404946
Ni      6.1422585108     2.1298112375    16.0057469159
Ni      7.3709063145     4.2578938759    16.0057278814
Cu      1.6393743183     1.4166928192    18.0171860753
Cu      2.8680196232     3.5447739345    18.0171880511
Cu      4.0966736742     5.6728581477    18.0171936999
Cu      4.0966678064     1.4166912994    18.0171884478
Cu      5.3253225342     3.5447766211    18.0171920678
Cu      6.5539716156     5.6728587808    18.0171839704
Cu      6.5539714677     1.4166937775    18.0171940024
Cu      7.7826203157     3.5447784506    18.0171833398
Cu      9.0112665520     5.6728559444    18.0171901628
Cu      2.0479239976     0.7090594966    20.0326544061
Cu      3.2765730586     2.8371429754    20.0326546952
Cu      4.5052234200     4.9652264444    20.0326554939
Cu      4.5052224760     0.7090591484    20.0326552598
Cu      5.7338729705     2.8371432594    20.0326559080
Cu      6.9625223952     4.9652267403    20.0326539583
Cu      6.9625225192     0.7090596224    20.0326559063
Cu      8.1911721148     2.8371435845    20.0326541907
Cu      9.4198210226     4.9652263557    20.0326543569
Cu      0.0031411438    -0.0054405310    22.0500423862
Cu      8.6036889285     2.1226431679    22.0500423127
Cu      9.8323383266     4.2507267625    22.0500422850
Cu      2.4604403331    -0.0054405655    22.0500422614
Cu      3.6890899853     2.1226431468    22.0500424644
Cu      4.9177397533     4.2507269575    22.0500425422
Cu      4.9177395942    -0.0054405190    22.0500424244
Cu      6.1463894958     2.1226432104    22.0500424003
Cu      7.3750390714     4.2507267140    22.0500421303
Cu      1.6577968621     1.3847790422    24.1185475682
Cu      2.8864465843     3.5128626167    24.1185478145
Cu      4.1150962295     5.6409461469    24.1185475242
Cu      4.1150960570     1.3847788190    24.1185474815
Cu      5.3437460201     3.5128624483    24.1185477363
Cu      6.5723954079     5.6409460502    24.1185473712
Cu      6.5723953456     1.3847790689    24.1185478881
Cu      7.8010450687     3.5128627116    24.1185477275
Cu      9.0296946295     5.6409462140    24.1185474155
72
Step 3 | ATOMIC_POSITIONS (angstrom) | Cartesian Angstrom
Ni      0.0000000000     0.0000000000    10.0000000900
Ni      8.6005476670     2.1280836470    10.0000000900
Ni      9.8291973330     4.2561672950    10.0000000900
Ni      2.4572993330     0.0000000000    10.0000000900
Ni      3.6859490000     2.1280836470    10.0000000900
Ni      4.9145986670     4.2561672950    10.0000000900
Ni      4.9145986670     0.0000000000    10.0000000900
Ni      6.1432483330     2.1280836470    10.0000000900
Ni      7.3718980000     4.2561672950    10.0000000900
Ni      1.6381995390     1.4187224170    12.0063763950
Ni      2.8668492300     3.5468061070    12.0063763950
Ni      4.0954988850     5.6748897330    12.0063763950
Ni      4.0954988480     1.4187224170    12.0063763950
Ni      5.3241485390     3.5468061070    12.0063763950
Ni      6.5527981940     5.6748897330    12.0063763950
Ni      6.5527982300     1.4187224170    12.0063763950
Ni      7.7814479220     3.5468061070    12.0063763950
Ni      9.0100975760     5.6748897330    12.0063763950
Ni      2.0445185880     0.7149583204    14.0018455952
Ni      3.2731566412     2.8430205414    14.0018760273
Ni      4.5018381415     4.9711340935    14.0018858374
Ni      4.5018223894     0.7149439710    14.0018526177
Ni      5.7305026152     2.8430298037    14.0018662039
Ni      6.9591312907     4.9711135726    14.0018518313
Ni      6.9591185100     0.7149830469    14.0018464406
Ni      8.1877482119     2.8430348712    14.0018436489
Ni      9.4163875476     4.9711257649    14.0018617239
Ni     -0.0013763574     0.0023881659    15.9960748233
Ni      8.5991643247     2.1304707697    15.9960677539
Ni      9.8278198533     4.2585445756    15.9960822581
Ni      2.4559275562     0.0023697476    15.9960697959
Ni      3.6845819836     2.1304698258    15.9960821979
Ni      4.9132364213     4.2585413101    15.9960913227
Ni      4.9132213396     0.0023804263    15.9960760841
Ni      6.1418752933     2.1304764419    15.9960770679
Ni      7.3705129107     4.2585437642    15.9960628212
Cu      1.6406453714     1.4144856003    18.0098244207
Cu      2.8693011716     3.5425677150    18.0098251019
Cu      4.0979484573     5.6706463612    18.0098264111
Cu      4.0979484387     1.4144896898    18.0098237981
Cu      5.3265981571     3.5425678719    18.0098192048
Cu      6.5552437044     5.6706431377    18.0098189897
Cu      6.5552429857     1.4144906278    18.0098252003
Cu      7.7838871446     3.5425711128    18.0098130711
Cu      9.0125434845     5.6706491764    18.0098282226
Cu      2.0486093562     0.7078711681    20.0359823275
Cu      3.2772604861     2.8359556279    20.0359818077
Cu      4.5059099945     4.9640368021    20.0359831323
Cu      4.5059092245     0.7078720651    20.0359823465
Cu      5.7345587607     2.8359556222    20.0359814758
Cu      6.9632073541     4.9640376382    20.0359798769
Cu      6.9632081055     0.7078716157    20.0359842204
Cu      8.1918564950     2.8359564264    20.0359798757
Cu      9.4205076583     4.9640380745    20.0359828912
Cu      0.0080191129    -0.0138896470    22.0720079416
Cu      8.6085667216     2.1141943790    22.0720073219
Cu      9.8372165357     4.2422778868    22.0720074619
Cu      2.4653182700    -0.0138897316    22.0720073325
Cu      3.6939680851     2.1141943442    22.0720076569
Cu      4.9226178530     4.2422777928    22.0720077328
Cu      4.9226176600    -0.0138894796    22.0720076834
Cu      6.1512675145     2.1141944039    22.0720075342
Cu      7.3799169136     4.2422775639    22.0720071892
Cu      1.6742383556     1.3563013712    24.1754738787
Cu      2.9028882080     3.4843853435    24.1754739277
Cu      4.1315375121     5.6124687388    24.1754736423
Cu      4.1315376940     1.3563012120    24.1754735610
Cu      5.3601874340     3.4843846161    24.1754739924
Cu      6.5888367405     5.6124686427    24.1754735660
Cu      6.5888368877     1.3563016369    24.1754741439
Cu      7.8174864507     3.4843849911    24.1754740201
Cu      9.0461363259     5.6124683209    24.1754739409
72
Step 4 | ATOMIC_POSITIONS (angstrom) | Cartesian Angstrom
Ni      0.0000000000     0.0000000000    10.0000000900
Ni      8.6005476670     2.1280836470    10.0000000900
Ni      9.8291973330     4.2561672950    10.0000000900
Ni      2.4572993330     0.0000000000    10.0000000900
Ni      3.6859490000     2.1280836470    10.0000000900
Ni      4.9145986670     4.2561672950    10.0000000900
Ni      4.9145986670     0.0000000000    10.0000000900
Ni      6.1432483330     2.1280836470    10.0000000900
Ni      7.3718980000     4.2561672950    10.0000000900
Ni      1.6381995390     1.4187224170    12.0063763950
Ni      2.8668492300     3.5468061070    12.0063763950
Ni      4.0954988850     5.6748897330    12.0063763950
Ni      4.0954988480     1.4187224170    12.0063763950
Ni      5.3241485390     3.5468061070    12.0063763950
Ni      6.5527981940     5.6748897330    12.0063763950
Ni      6.5527982300     1.4187224170    12.0063763950
Ni      7.7814479220     3.5468061070    12.0063763950
Ni      9.0100975760     5.6748897330    12.0063763950
Ni      2.0420127484     0.7192478195    13.9941412011
Ni      3.2706911535     2.8473347636    13.9941672185
Ni      4.4993527765     4.9754447447    13.9941705704
Ni      4.4993672188     0.7192577050    13.9941405867
Ni      5.7280240775     2.8473310366    13.9941378822
Ni      6.9566319708     4.9754023088    13.9941376458
Ni      6.9566313121     0.7192890773    13.9941303015
Ni      8.1852350732     2.8473217078    13.9941333546
Ni      9.4139179450     4.9754454177    13.9941590837
Ni     -0.0015490293     0.0026837415    15.9825671435
Ni      8.5989827574     2.1307564635    15.9825755900
Ni      9.8276606515     4.2588451475    15.9825917348
Ni      2.4557488245     0.0026542051    15.9825742549
Ni      3.6844302398     2.1307667404    15.9825978006
Ni      4.9130690085     4.2588325427    15.9825897823
Ni      4.9130650285     0.0026786631    15.9825857243
Ni      6.1417080315     2.1307662097    15.9825783831
Ni      7.3703324073     4.2588257390    15.9825699434
Cu      1.6432543313     1.4099579745    18.0003611283
Cu      2.8719191050     3.5380430167    18.0003672203
Cu      4.1005604536     5.6661209139    18.0003554894
Cu      4.1005674304     1.4099633539    18.0003670146
Cu      5.3292140573     3.5380375853    18.0003575235
Cu      6.5578543256     5.6661126293    18.0003568044
Cu      6.5578559921     1.4099640910    18.0003570505
Cu      7.7864971021     3.5380416149    18.0003503901
Cu      9.0151599511     5.6661254532    18.0003666869
Cu      2.0505616033     0.7044881077    20.0458787365
Cu      3.2792144994     2.8325730255    20.0458794323
Cu      4.5078631566     4.9606536879    20.0458793405
Cu      4.5078628831     0.7044898965    20.0458788571
Cu      5.7365115196     2.8325734254    20.0458755372
Cu      6.9651597420     4.9606544384    20.0458758096
Cu      6.9651607240     0.7044892251    20.0458790572
Cu      8.1938079577     2.8325748381    20.0458727546
Cu      9.4224616317     4.9606552986    20.0458810728
Cu      0.0166546558    -0.0288468751    22.1112686250
Cu      8.6172019309     2.0992373398    22.1112667954
Cu      9.8458522804     4.2273207257    22.1112683196
Cu      2.4739538094    -0.0288469316    22.1112674042
Cu      3.7026035758     2.0992371726    22.1112679521
Cu      4.9312534712     4.2273203861    22.1112686929
Cu      4.9312530612    -0.0288466227    22.1112682610
Cu      6.1599030745     2.0992372638    22.1112672962
Cu      7.3885522765     4.2273205089    22.1112669853
Cu      1.6997852813     1.3120529526    24.2598171992
Cu      2.9284353702     3.4401366034    24.2598167972
Cu      4.1570844862     5.5682199006    24.2598166966
Cu      4.1570847619     1.3120523902    24.2598167429
Cu      5.3857344135     3.4401358771    24.2598170571
Cu      6.6143835851     5.5682198148    24.2598168253
Cu      6.6143837581     1.3120527629    24.2598169912
Cu      7.8430332503     3.4401363873    24.2598172452
Cu      9.0716831433     5.5682196640    24.2598172849
72
Step 5 | ATOMIC_POSITIONS (angstrom) | Cartesian Angstrom
Ni      0.0000000000     0.0000000000    10.0000000900
Ni      8.6005476670     2.1280836470    10.0000000900
Ni      9.8291973330     4.2561672950    10.0000000900
Ni      2.4572993330     0.0000000000    10.0000000900
Ni      3.6859490000     2.1280836470    10.0000000900
Ni      4.9145986670     4.2561672950    10.0000000900
Ni      4.9145986670     0.0000000000    10.0000000900
Ni      6.1432483330     2.1280836470    10.0000000900
Ni      7.3718980000     4.2561672950    10.0000000900
Ni      1.6381995390     1.4187224170    12.0063763950
Ni      2.8668492300     3.5468061070    12.0063763950
Ni      4.0954988850     5.6748897330    12.0063763950
Ni      4.0954988480     1.4187224170    12.0063763950
Ni      5.3241485390     3.5468061070    12.0063763950
Ni      6.5527981940     5.6748897330    12.0063763950
Ni      6.5527982300     1.4187224170    12.0063763950
Ni      7.7814479220     3.5468061070    12.0063763950
Ni      9.0100975760     5.6748897330    12.0063763950
Ni      2.0383252880     0.7257128061    13.9839200727
Ni      3.2669441148     2.8537686356    13.9839349169
Ni      4.4956169891     4.9818933719    13.9839331510
Ni      4.4956401316     0.7256866739    13.9839027913
Ni      5.7243032472     2.8537631900    13.9838856817
Ni      6.9529576602     4.9818635104    13.9838945353
Ni      6.9528881478     0.7257334033    13.9838940889
Ni      8.1815319657     2.8537852655    13.9839011562
Ni      9.4101603094     4.9818888924    13.9839309152
Ni     -0.0009603687     0.0016390353    15.9651504465
Ni      8.5996111637     2.1297279149    15.9651489317
Ni      9.8282344143     4.2577929376    15.9651617632
Ni      2.4563864262     0.0016265904    15.9651481286
Ni      3.6850188117     2.1297011366    15.9651732756
Ni      4.9136689036     4.2577793797    15.9651776985
Ni      4.9136489878     0.0016217878    15.9651516977
Ni      6.1423087668     2.1297063652    15.9651615473
Ni      7.3709697294     4.2577924224    15.9651392541
Cu      1.6485992143     1.4007287132    17.9904573200
Cu      2.8772388841     3.5287996382    17.9904679695
Cu      4.1058879034     5.6568861333    17.9904720166
Cu      4.1058932768     1.4007119412    17.9904693069
Cu      5.3345496547     3.5287906305    17.9904879788
Cu      6.5632041496     5.6568842085    17.9904561365
Cu      6.5631884454     1.4007192751    17.9904759655
Cu      7.7918474987     3.5288085767    17.9904488198
Cu      9.0204819645     5.6568850100    17.9904596009
Cu      2.0549324374     0.6969224620    20.0681497878
Cu      3.2835815165     2.8250034192    20.0681541986
Cu      4.5122311556     4.9530871375    20.0681545000
Cu      4.5122313478     0.6969199328    20.0681518607
Cu      5.7408811328     2.8250042082    20.0681524322
Cu      6.9695321979     4.9530887820    20.0681484254
Cu      6.9695284810     0.6969223430    20.0681522469
Cu      8.1981785247     2.8250089832    20.0681417487
Cu      9.4268288928     4.9530876082    20.0681539777
Cu      0.0312401196    -0.0541082594    22.1774317078
Cu      8.6317862764     2.0739764705    22.1774283068
Cu      9.8604366483     4.2020587087    22.1774332117
Cu      2.4885386222    -0.0541084392    22.1774319991
Cu      3.7171874349     2.0739754652    22.1774331638
Cu      4.9458383525     4.2020591908    22.1774326598
Cu      4.9458370804    -0.0541087518    22.1774323141
Cu      6.1744880175     2.0739759787    22.1774287533
Cu      7.4031374190     4.2020594595    22.1774295926
Cu      1.7394028877     1.2434341234    24.3847223144
Cu      2.9680524085     3.3715183957    24.3847226453
Cu      4.1967017309     5.4996010725    24.3847228718
Cu      4.1967011364     1.2434336606    24.3847204171
Cu      5.4253516583     3.3715167759    24.3847240628
Cu      6.6540003055     5.4996020345    24.3847213437
Cu      6.6540007423     1.2434340205    24.3847235448
Cu      7.8826500255     3.3715180538    24.3847225916
Cu      9.1112996938     5.4996008411    24.3847223862
72
Step 6 | ATOMIC_POSITIONS (angstrom) | Cartesian Angstrom
Ni      0.0000000000     0.0000000000    10.0000000900
Ni      8.6005476670     2.1280836470    10.0000000900
Ni      9.8291973330     4.2561672950    10.0000000900
Ni      2.4572993330     0.0000000000    10.0000000900
Ni      3.6859490000     2.1280836470    10.0000000900
Ni      4.9145986670     4.2561672950    10.0000000900
Ni      4.9145986670     0.0000000000    10.0000000900
Ni      6.1432483330     2.1280836470    10.0000000900
Ni      7.3718980000     4.2561672950    10.0000000900
Ni      1.6381995390     1.4187224170    12.0063763950
Ni      2.8668492300     3.5468061070    12.0063763950
Ni      4.0954988850     5.6748897330    12.0063763950
Ni      4.0954988480     1.4187224170    12.0063763950
Ni      5.3241485390     3.5468061070    12.0063763950
Ni      6.5527981940     5.6748897330    12.0063763950
Ni      6.5527982300     1.4187224170    12.0063763950
Ni      7.7814479220     3.5468061070    12.0063763950
Ni      9.0100975760     5.6748897330    12.0063763950
Ni      2.0335040246     0.7340842038    13.9738157985
Ni      3.2621095379     2.8621330871    13.9738271841
Ni      4.4907807618     4.9902628011    13.9738635216
Ni      4.4908415332     0.7340415122    13.9737695832
Ni      5.7194951475     2.8621000971    13.9737870382
Ni      6.9481633226     4.9902288731    13.9737678931
Ni      6.9480274361     0.7341022456    13.9738078833
Ni      8.1766797777     2.8621538809    13.9737905610
Ni      9.4053014037     4.9902782210    13.9738156666
Ni      0.0017124255    -0.0030117047    15.9479067886
Ni      8.6022873608     2.1250675975    15.9479022251
Ni      9.8309182276     4.2531464917    15.9479183566
Ni      2.4590827038    -0.0030402408    15.9479060925
Ni      3.6877282204     2.1250364147    15.9479325109
Ni      4.9163658305     4.2531124398    15.9479449070
Ni      4.9163503791    -0.0030366815    15.9478945369
Ni      6.1450008675     2.1250384898    15.9479064396
Ni      7.3736600401     4.2531253941    15.9478828654
Cu      1.6586880072     1.3832404072    17.9861496977
Cu      2.8873345306     3.5113197667    17.9861646407
Cu      4.1159767027     5.6394087154    17.9861532863
Cu      4.1159975845     1.3832194143    17.9861705639
Cu      5.3446485619     3.5113024242    17.9861805932
Cu      6.5732995204     5.6393942784    17.9861488929
Cu      6.5732828146     1.3832330424    17.9861551770
Cu      7.8019412586     3.5113199559    17.9861348539
Cu      9.0305813828     5.6394023902    17.9861477887
Cu      2.0632531973     0.6825075018    20.1105664508
Cu      3.2919046990     2.8105882304    20.1105760301
Cu      4.5205532875     4.9386727993    20.1105748220
Cu      4.5205564421     0.6825031636    20.1105738909
Cu      5.7492060722     2.8105855908    20.1105799744
Cu      6.9778545623     4.9386736544    20.1105654698
Cu      6.9778509322     0.6825066104    20.1105723520
Cu      8.2064993604     2.8105937008    20.1105560038
Cu      9.4351511992     4.9386749796    20.1105705093
Cu      0.0537087984    -0.0930254485    22.2779626646
Cu      8.6542545482     2.0350599621    22.2779564854
Cu      9.8829052929     4.1631417390    22.2779662239
Cu      2.5110074305    -0.0930255527    22.2779637376
Cu      3.7396566816     2.0350580245    22.2779660415
Cu      4.9683076031     4.1631413151    22.2779658543
Cu      4.9683061172    -0.0930261368    22.2779646147
Cu      6.1969570535     2.0350579716    22.2779607149
Cu      7.4256063573     4.1631422394    22.2779604636
Cu      1.7963091182     1.1448701075    24.5549669401
Cu      3.0249590344     3.2729543984    24.5549694086
Cu      4.2536078548     5.4010360976    24.5549691438
Cu      4.2536074100     1.1448689322    24.5549654433
Cu      5.4822577701     3.2729520095    24.5549698831
Cu      6.7109065357     5.4010374371    24.5549667608
Cu      6.7109067819     1.1448695382    24.5549691070
Cu      7.9395561267     3.2729539333    24.5549681079
Cu      9.1682058869     5.4010362803    24.5549681514
72
Step 7 | ATOMIC_POSITIONS (angstrom) | Cartesian Angstrom
Ni      0.0000000000     0.0000000000    10.0000000900
Ni      8.6005476670     2.1280836470    10.0000000900
Ni      9.8291973330     4.2561672950    10.0000000900
Ni      2.4572993330     0.0000000000    10.0000000900
Ni      3.6859490000     2.1280836470    10.0000000900
Ni      4.9145986670     4.2561672950    10.0000000900
Ni      4.9145986670     0.0000000000    10.0000000900
Ni      6.1432483330     2.1280836470    10.0000000900
Ni      7.3718980000     4.2561672950    10.0000000900
Ni      1.6381995390     1.4187224170    12.0063763950
Ni      2.8668492300     3.5468061070    12.0063763950
Ni      4.0954988850     5.6748897330    12.0063763950
Ni      4.0954988480     1.4187224170    12.0063763950
Ni      5.3241485390     3.5468061070    12.0063763950
Ni      6.5527981940     5.6748897330    12.0063763950
Ni      6.5527982300     1.4187224170    12.0063763950
Ni      7.7814479220     3.5468061070    12.0063763950
Ni      9.0100975760     5.6748897330    12.0063763950
Ni      2.0308941791     0.7385811946    13.9732006397
Ni      3.2594954346     2.8666622920    13.9732150100
Ni      4.4881755867     4.9947868308    13.9732349674
Ni      4.4882262078     0.7385439552    13.9731629128
Ni      5.7168824669     2.8666425111    13.9731683373
Ni      6.9455473517     4.9947481762    13.9731480343
Ni      6.9454487091     0.7385806652    13.9732089960
Ni      8.1740886696     2.8666595189    13.9731886205
Ni      9.4027124184     4.9947708481    13.9732149835
Ni      0.0059781824    -0.0103886252    15.9459389140
Ni      8.6065477500     2.1176946599    15.9459265336
Ni      9.8351759503     4.2457827517    15.9459412991
Ni      2.4633279498    -0.0104100466    15.9459255938
Ni      3.6919737731     2.1176718749    15.9459581276
Ni      4.9206162631     4.2457610353    15.9459659584
Ni      4.9205973599    -0.0104097755    15.9459269464
Ni      6.1492566568     2.1176730950    15.9459450133
Ni      7.3779084435     4.2457658428    15.9459035123
Cu      1.6686242303     1.3660259496    17.9944452688
Cu      2.8972708922     3.4941128264    17.9944655984
Cu      4.1259151513     5.6222017211    17.9944484734
Cu      4.1259303945     1.3660041813    17.9944773270
Cu      5.3545833438     3.4940976214    17.9944882306
Cu      6.5832314716     5.6221844150    17.9944462067
Cu      6.5832230940     1.3660196322    17.9944575860
Cu      7.8118796479     3.4941107442    17.9944321059
Cu      9.0405183023     5.6221926048    17.9944448893
Cu      2.0711857534     0.6687667571    20.1504655099
Cu      3.2998371304     2.7968477501    20.1504794887
Cu      4.5284858916     4.9249340898    20.1504743015
Cu      4.5284895700     0.6687607221    20.1504796791
Cu      5.7571398304     2.7968442894    20.1504892677
Cu      6.9857871058     4.9249336316    20.1504657829
Cu      6.9857850709     0.6687655390    20.1504734456
Cu      8.2144330893     2.7968528602    20.1504542774
Cu      9.4430840948     4.9249355541    20.1504692398
Cu      0.0711271772    -0.1231949765    22.3538842327
Cu      8.6716727276     2.0048906859    22.3538750198
Cu      9.9003235357     4.1329726503    22.3538880985
Cu      2.5284255777    -0.1231946865    22.3538843702
Cu      3.7570750593     2.0048882733    22.3538886392
Cu      4.9857259221     4.1329718401    22.3538887067
Cu      4.9857247785    -0.1231957625    22.3538871362
Cu      6.2143757655     2.0048873719    22.3538845958
Cu      7.4430247414     4.1329726062    22.3538812178
Cu      1.8370399043     1.0743223865    24.6673617295
Cu      3.0656900748     3.2024061316    24.6673659522
Cu      4.2943387140     5.3304879335    24.6673653204
Cu      4.2943385493     1.0743205676    24.6673608520
Cu      5.5229887482     3.2024036274    24.6673660425
Cu      6.7516374858     5.3304889590    24.6673624524
Cu      6.7516377614     1.0743212194    24.6673650793
Cu      7.9802872963     3.2024055361    24.6673637572
Cu      9.2089369567     5.3304880205    24.6673640771
72
Step 8 | ATOMIC_POSITIONS (angstrom) | Cartesian Angstrom
Ni      0.0000000000     0.0000000000    10.0000000900
Ni      8.6005476670     2.1280836470    10.0000000900
Ni      9.8291973330     4.2561672950    10.0000000900
Ni      2.4572993330     0.0000000000    10.0000000900
Ni      3.6859490000     2.1280836470    10.0000000900
Ni      4.9145986670     4.2561672950    10.0000000900
Ni      4.9145986670     0.0000000000    10.0000000900
Ni      6.1432483330     2.1280836470    10.0000000900
Ni      7.3718980000     4.2561672950    10.0000000900
Ni      1.6381995390     1.4187224170    12.0063763950
Ni      2.8668492300     3.5468061070    12.0063763950
Ni      4.0954988850     5.6748897330    12.0063763950
Ni      4.0954988480     1.4187224170    12.0063763950
Ni      5.3241485390     3.5468061070    12.0063763950
Ni      6.5527981940     5.6748897330    12.0063763950
Ni      6.5527982300     1.4187224170    12.0063763950
Ni      7.7814479220     3.5468061070    12.0063763950
Ni      9.0100975760     5.6748897330    12.0063763950
Ni      2.0289244221     0.7420223110    13.9799413558
Ni      3.2574812537     2.8701021176    13.9799696285
Ni      4.4861991312     4.9982322812    13.9799784698
Ni      4.4861934161     0.7419739980    13.9799247047
Ni      5.7148838280     2.8701192105    13.9799395981
Ni      6.9435590052     4.9982075040    13.9798999970
Ni      6.9434999130     0.7419916461    13.9799777855
Ni      8.1721439840     2.8701001174    13.9799481641
Ni      9.4007269704     4.9981689728    13.9799723148
Ni      0.0135324097    -0.0234428419    15.9552228599
Ni      8.6141025797     2.1046462631    15.9551801567
Ni      9.8427055338     4.2327247882    15.9552037027
Ni      2.4708581909    -0.0234473849    15.9551732801
Ni      3.6994798027     2.1046232912    15.9552089442